      -----------------------------------------------------------      
     |                   =====================                   |     
     |                           x T B                           |     
     |                   =====================                   |     
     |                         S. Grimme                         |     
     |          Mulliken Center for Theoretical Chemistry        |     
     |                    University of Bonn                     |     
      -----------------------------------------------------------      

   * xtb version 6.4.1 (unknown) compiled by 'oda6@login1.crc.pitt.edu' on 2021-06-25

   xtb is free software: you can redistribute it and/or modify it under
   the terms of the GNU Lesser General Public License as published by
   the Free Software Foundation, either version 3 of the License, or
   (at your option) any later version.
   
   xtb is distributed in the hope that it will be useful,
   but WITHOUT ANY WARRANTY; without even the implied warranty of
   MERCHANTABILITY or FITNESS FOR A PARTICULAR PURPOSE.  See the
   GNU Lesser General Public License for more details.
   
   Cite this work as:
   * C. Bannwarth, E. Caldeweyher, S. Ehlert, A. Hansen, P. Pracht,
     J. Seibert, S. Spicher, S. Grimme, WIREs Comput. Mol. Sci., 2020, 11,
     e01493. DOI: 10.1002/wcms.1493
   
   for GFN2-xTB:
   * C. Bannwarth, S. Ehlert and S. Grimme., J. Chem. Theory Comput., 2019,
     15, 1652-1671. DOI: 10.1021/acs.jctc.8b01176
   for GFN1-xTB:
   * S. Grimme, C. Bannwarth, P. Shushkov, J. Chem. Theory Comput., 2017,
     13, 1989-2009. DOI: 10.1021/acs.jctc.7b00118
   for GFN0-xTB:
   * P. Pracht, E. Caldeweyher, S. Ehlert, S. Grimme, ChemRxiv, 2019, preprint.
     DOI: 10.26434/chemrxiv.8326202.v1
   for GFN-FF:
   * S. Spicher and S. Grimme, Angew. Chem. Int. Ed., 2020, 59, 15665-15673.
     DOI: 10.1002/anie.202004239
   
   for DFT-D4:
   * E. Caldeweyher, C. Bannwarth and S. Grimme, J. Chem. Phys., 2017,
     147, 034112. DOI: 10.1063/1.4993215
   * E. Caldeweyher, S. Ehlert, A. Hansen, H. Neugebauer, S. Spicher,
     C. Bannwarth and S. Grimme, J. Chem. Phys., 2019, 150, 154122.
     DOI: 10.1063/1.5090222
   * E. Caldeweyher, J.-M. Mewes, S. Ehlert and S. Grimme, Phys. Chem. Chem. Phys.
     2020, 22, 8499-8512. DOI: 10.1039/D0CP00502A
   
   for sTDA-xTB:
   * S. Grimme and C. Bannwarth, J. Chem. Phys., 2016, 145, 054103.
     DOI: 10.1063/1.4959605
   
   in the mass-spec context:
   * V. Asgeirsson, C. Bauer and S. Grimme, Chem. Sci., 2017, 8, 4879.
     DOI: 10.1039/c7sc00601b
   * J. Koopman and S. Grimme, ACS Omega 2019, 4, 12, 15120-15133.
     DOI: 10.1021/acsomega.9b02011
   
   for metadynamics refer to:
   * S. Grimme, J. Chem. Theory Comput., 2019, 155, 2847-2862
     DOI: 10.1021/acs.jctc.9b00143
   
   for SPH calculations refer to:
   * S. Spicher and S. Grimme, J. Chem. Theory Comput., 2021, 17, 1701-1714
     DOI: 10.1021/acs.jctc.0c01306
   
   with help from (in alphabetical order)
   P. Atkinson, C. Bannwarth, F. Bohle, G. Brandenburg, E. Caldeweyher
   M. Checinski, S. Dohm, S. Ehlert, S. Ehrlich, I. Gerasimov, J. Koopman
   C. Lavigne, S. Lehtola, F. März, M. Müller, F. Musil, H. Neugebauer
   J. Pisarek, C. Plett, P. Pracht, J. Seibert, P. Shushkov, S. Spicher
   M. Stahn, M. Steiner, T. Strunk, J. Stückrath, T. Rose, and J. Unsleber
   
 * started run on 2022/02/06 at 11:04:52.449     

           -------------------------------------------------
          |                Calculation Setup                |
           -------------------------------------------------

          program call               : /ihome/ghutchison/oda6/xtb/xtb-641/bin/xtb ../../GFN2_output/24_130_130_130_24.mol --sp --alpb hexane
          hostname                   : smp-n57
          coordinate file            : ../../GFN2_output/24_130_130_130_24.mol
          omp threads                :                     8
          number of atoms            :                   252
          number of electrons        :                   780
          charge                     :                     0
          spin                       :                   0.0
          first test random number   :      0.73333796827762

   ID    Z sym.   atoms
    1    6 C      1-3, 5, 7-13, 15, 17, 18, 20-23, 25-31, 33-36, 38, 39,
                  41-44, 46-52, 54-57, 59, 60, 62-65, 67-73, 75-78, 80, 81,
                  83-86, 88-94, 96-99, 101, 102, 104-107, 109-115, 117-120,
                  122, 123, 125-128, 130-136, 138-141, 143-145, 147, 149-155,
                  157
    2    8 O      4, 146
    3   16 S      6, 24, 32, 37, 45, 53, 58, 66, 74, 79, 87, 95, 100, 108,
                  116, 121, 129, 137, 142, 148
    4    7 N      14, 16, 19, 40, 61, 82, 103, 124, 156, 158
    5    1 H      159-252

           -------------------------------------------------
          |                 G F N 2 - x T B                 |
           -------------------------------------------------

        Reference                      10.1021/acs.jctc.8b01176
      * Hamiltonian:
        H0-scaling (s, p, d)           1.850000    2.230000    2.230000
        zeta-weighting                 0.500000
      * Dispersion:
        s8                             2.700000
        a1                             0.520000
        a2                             5.000000
        s9                             5.000000
      * Repulsion:
        kExp                           1.500000    1.000000
        rExp                           1.000000
      * Coulomb:
        alpha                          2.000000
        third order                    shell-resolved
        anisotropic                    true
        a3                             3.000000
        a5                             4.000000
        cn-shift                       1.200000
        cn-exp                         4.000000
        max-rad                        5.000000

      * Solvation model:               ALPB
        Solvent                        hexane
        Parameter file                 internal GFN2-xTB/ALPB
        Dielectric constant                1.8800E+00
        Reference state                gsolv [1 M gas/solution]
        Free energy shift                  4.8134E-03 Eh       3.0204E+00 kcal/mol
        Temperature                        2.9815E+02 K
        Density                            6.6000E-01 kg/L
        Solvent mass                       8.6180E+01 g/mol
        Interaction kernel             P16
        Born radius scaling (c1)           1.1040E+00
        Born radii integrator          GBOBC
        Born offset                        0.0000E+00 a0       0.0000E+00 AA
        H-bond correction              false
        Ion screening                  false
        Surface tension                    1.0000E-05 Eh       1.5569E+01 dyn/cm
        Grid points                               230 per atom

          ...................................................
          :                      SETUP                      :
          :.................................................:
          :  # basis functions                 846          :
          :  # atomic orbitals                 826          :
          :  # shells                          430          :
          :  # electrons                       780          :
          :  max. iterations                   250          :
          :  Hamiltonian                  GFN2-xTB          :
          :  restarted?                      false          :
          :  GBSA solvation                   true          :
          :  PC potential                    false          :
          :  electronic temp.          300.0000000     K    :
          :  accuracy                    1.0000000          :
          :  -> integral cutoff          0.2500000E+02      :
          :  -> integral neglect         0.1000000E-07      :
          :  -> SCF convergence          0.1000000E-05 Eh   :
          :  -> wf. convergence          0.1000000E-03 e    :
          :  Broyden damping             0.4000000          :
          ...................................................

 iter      E             dE          RMSdq      gap      omega  full diag
   1   -426.4090681 -0.426409E+03  0.476E+00    0.83       0.0  T
   2   -426.6652841 -0.256216E+00  0.271E+00    0.94       1.0  T
   3   -426.4104741  0.254810E+00  0.136E+00    0.20       1.0  T
   4   -426.7182556 -0.307781E+00  0.537E-01    0.58       1.0  T
   5   -426.7552389 -0.369833E-01  0.199E-01    0.34       1.0  T
   6   -426.7566193 -0.138042E-02  0.961E-02    0.41       1.0  T
   7   -426.7579359 -0.131658E-02  0.365E-02    0.38       1.0  T
   8   -426.7580452 -0.109318E-03  0.194E-02    0.40       1.0  T
   9   -426.7580725 -0.272755E-04  0.101E-02    0.39       1.0  T
  10   -426.7580769 -0.437697E-05  0.413E-03    0.39       1.5  T
  11   -426.7580787 -0.178767E-05  0.180E-03    0.39       3.5  T
  12   -426.7580788 -0.943526E-07  0.101E-03    0.39       6.2  T
  13   -426.7580788 -0.684586E-07  0.480E-04    0.39      13.1  T
  14   -426.7580788 -0.184264E-07  0.206E-04    0.39      30.5  T

   *** convergence criteria satisfied after 14 iterations ***

         #    Occupation            Energy/Eh            Energy/eV
      -------------------------------------------------------------
         1        2.0000           -0.7576870             -20.6177
       ...           ...                  ...                  ...
       384        2.0000           -0.3621697              -9.8551
       385        2.0000           -0.3592730              -9.7763
       386        2.0000           -0.3564294              -9.6989
       387        2.0000           -0.3536302              -9.6228
       388        2.0000           -0.3518860              -9.5753
       389        2.0000           -0.3498764              -9.5206
       390        1.9990           -0.3454620              -9.4005 (HOMO)
       391        0.0010           -0.3309862              -9.0066 (LUMO)
       392        0.0000           -0.3269386              -8.8965
       393                         -0.3209220              -8.7327
       394                         -0.3169853              -8.6256
       395                         -0.2897814              -7.8854
       ...                                ...                  ...
       826                          1.1649004              31.6986
      -------------------------------------------------------------
                  HL-Gap            0.0144758 Eh            0.3939 eV
             Fermi-level           -0.3382256 Eh           -9.2036 eV

 SCC (total)                   0 d,  0 h,  0 min,  1.261 sec
 SCC setup                      ...        0 min,  0.012 sec (  0.923%)
 Dispersion                     ...        0 min,  0.014 sec (  1.087%)
 classical contributions        ...        0 min,  0.001 sec (  0.044%)
 integral evaluation            ...        0 min,  0.062 sec (  4.914%)
 iterations                     ...        0 min,  0.925 sec ( 73.345%)
 molecular gradient             ...        0 min,  0.241 sec ( 19.151%)
 printout                       ...        0 min,  0.007 sec (  0.529%)

         :::::::::::::::::::::::::::::::::::::::::::::::::::::
         ::                     SUMMARY                     ::
         :::::::::::::::::::::::::::::::::::::::::::::::::::::
         :: total energy            -420.129243167391 Eh    ::
         :: total w/o Gsasa/hb      -419.999719889563 Eh    ::
         :: gradient norm              0.022388786656 Eh/a0 ::
         :: HOMO-LUMO gap              0.393906318679 eV    ::
         ::.................................................::
         :: SCC energy              -426.758078842330 Eh    ::
         :: -> isotropic ES            0.163949969746 Eh    ::
         :: -> anisotropic ES          0.013779576289 Eh    ::
         :: -> anisotropic XC          0.260427929850 Eh    ::
         :: -> dispersion             -0.517275321217 Eh    ::
         :: -> Gsolv                  -0.159176234432 Eh    ::
         ::    -> Gelec               -0.029652956604 Eh    ::
         ::    -> Gsasa               -0.134336633648 Eh    ::
         ::    -> Ghb                  0.000000000000 Eh    ::
         ::    -> Gshift               0.004813355820 Eh    ::
         :: repulsion energy           6.597644862565 Eh    ::
         :: add. restraining           0.000000000000 Eh    ::
         :: total charge              -0.000000000003 e     ::
         :::::::::::::::::::::::::::::::::::::::::::::::::::::

           -------------------------------------------------
          |                Property Printout                |
           -------------------------------------------------

    * Orbital Energies and Occupations

         #    Occupation            Energy/Eh            Energy/eV
      -------------------------------------------------------------
         1        2.0000           -0.7576870             -20.6177
       ...           ...                  ...                  ...
       378        2.0000           -0.3720732             -10.1246
       379        2.0000           -0.3715387             -10.1101
       380        2.0000           -0.3699250             -10.0662
       381        2.0000           -0.3687741             -10.0349
       382        2.0000           -0.3679088             -10.0113
       383        2.0000           -0.3638061              -9.8997
       384        2.0000           -0.3621697              -9.8551
       385        2.0000           -0.3592730              -9.7763
       386        2.0000           -0.3564294              -9.6989
       387        2.0000           -0.3536302              -9.6228
       388        2.0000           -0.3518860              -9.5753
       389        2.0000           -0.3498764              -9.5206
       390        1.9990           -0.3454620              -9.4005 (HOMO)
       391        0.0010           -0.3309862              -9.0066 (LUMO)
       392        0.0000           -0.3269386              -8.8965
       393                         -0.3209220              -8.7327
       394                         -0.3169853              -8.6256
       395                         -0.2897814              -7.8854
       396                         -0.2722082              -7.4072
       397                         -0.2600162              -7.0754
       398                         -0.2525980              -6.8735
       399                         -0.2513316              -6.8391
       400                         -0.2487122              -6.7678
       401                         -0.2480409              -6.7495
       ...                                ...                  ...
       826                          1.1649004              31.6986
      -------------------------------------------------------------
                  HL-Gap            0.0144758 Eh            0.3939 eV
             Fermi-level           -0.3382256 Eh           -9.2036 eV

     #   Z          covCN         q      C6AA      α(0)
     1   6 C        2.932    -0.019    28.489     8.753
     2   6 C        3.035    -0.048    29.166     8.858
     3   6 C        2.876     0.229    23.197     7.895
     4   8 O        0.856    -0.443    22.568     6.369
     5   6 C        3.079    -0.022    28.478     8.749
     6  16 S        2.277     0.041   139.387    19.871
     7   6 C        2.996     0.037    27.153     8.548
     8   6 C        3.778    -0.118    22.780     6.800
     9   6 C        3.069    -0.056    29.317     8.878
    10   6 C        3.234    -0.006    27.302     8.480
    11   6 C        3.033     0.038    27.123     8.542
    12   6 C        2.948     0.004    27.934     8.669
    13   6 C        1.931     0.137    27.742     8.506
    14   7 N        0.911    -0.291    27.499     7.584
    15   6 C        1.924     0.135    27.795     8.514
    16   7 N        0.911    -0.276    27.136     7.534
    17   6 C        2.985     0.005    27.899     8.664
    18   6 C        3.045     0.062    26.578     8.455
    19   7 N        2.749    -0.045    22.119     6.985
    20   6 C        2.933     0.057    26.712     8.476
    21   6 C        2.923    -0.040    28.997     8.831
    22   6 C        2.945    -0.043    29.058     8.841
    23   6 C        2.966     0.050    26.880     8.504
    24  16 S        2.039    -0.175   148.458    20.507
    25   6 C        3.745    -0.049    21.525     6.618
    26   6 C        2.988    -0.037    28.910     8.820
    27   6 C        2.921    -0.038    28.948     8.823
    28   6 C        2.926     0.058    26.710     8.475
    29   6 C        2.922    -0.043    29.062     8.841
    30   6 C        2.972    -0.035    28.865     8.813
    31   6 C        2.967     0.055    26.771     8.487
    32  16 S        2.030    -0.182   148.763    20.528
    33   6 C        3.744    -0.052    21.581     6.627
    34   6 C        2.951    -0.034    28.835     8.807
    35   6 C        2.922    -0.044    29.081     8.843
    36   6 C        3.166     0.003    27.595     8.584
    37  16 S        2.293    -0.058   143.478    20.160
    38   6 C        3.015     0.004    27.905     8.665
    39   6 C        3.053     0.050    26.827     8.494
    40   7 N        2.749    -0.075    22.704     7.077
    41   6 C        2.929     0.055    26.762     8.484
    42   6 C        2.923    -0.049    29.223     8.865
    43   6 C        2.942    -0.045    29.119     8.850
    44   6 C        2.965     0.047    26.946     8.515
    45  16 S        2.039    -0.186   148.940    20.540
    46   6 C        3.745    -0.052    21.580     6.627
    47   6 C        2.990    -0.038    28.930     8.823
    48   6 C        2.923    -0.044    29.089     8.845
    49   6 C        2.924     0.062    26.601     8.458
    50   6 C        2.923    -0.044    29.099     8.846
    51   6 C        2.946    -0.040    28.988     8.831
    52   6 C        2.966     0.049    26.907     8.508
    53  16 S        2.032    -0.200   149.548    20.582
    54   6 C        3.744    -0.047    21.496     6.614
    55   6 C        2.979    -0.037    28.920     8.821
    56   6 C        2.930    -0.044    29.094     8.846
    57   6 C        3.190     0.016    27.156     8.500
    58  16 S        2.261    -0.071   144.012    20.198
    59   6 C        3.043    -0.004    28.071     8.690
    60   6 C        3.067     0.051    26.782     8.486
    61   7 N        2.750    -0.070    22.604     7.061
    62   6 C        2.929     0.056    26.746     8.481
    63   6 C        2.924    -0.048    29.204     8.862
    64   6 C        2.944    -0.042    29.040     8.838
    65   6 C        2.965     0.050    26.886     8.505
    66  16 S        2.032    -0.187   148.998    20.544
    67   6 C        3.744    -0.053    21.595     6.629
    68   6 C        2.981    -0.037    28.921     8.821
    69   6 C        2.921    -0.046    29.135     8.852
    70   6 C        2.923     0.061    26.638     8.464
    71   6 C        2.925    -0.047    29.167     8.857
    72   6 C        2.946    -0.037    28.922     8.820
    73   6 C        2.967     0.050    26.869     8.502
    74  16 S        2.031    -0.198   149.480    20.578
    75   6 C        3.744    -0.048    21.515     6.617
    76   6 C        2.978    -0.039    28.963     8.828
    77   6 C        2.923    -0.048    29.199     8.861
    78   6 C        3.161    -0.001    27.733     8.608
    79  16 S        2.249    -0.041   142.756    20.109
    80   6 C        3.041     0.009    27.774     8.644
    81   6 C        3.064     0.046    26.898     8.505
    82   7 N        2.745    -0.078    22.750     7.084
    83   6 C        2.919     0.068    26.485     8.439
    84   6 C        2.926    -0.047    29.178     8.858
    85   6 C        2.944    -0.044    29.082     8.845
    86   6 C        2.966     0.041    27.081     8.536
    87  16 S        2.023    -0.211   150.049    20.617
    88   6 C        3.744    -0.047    21.497     6.614
    89   6 C        2.974    -0.038    28.949     8.826
    90   6 C        2.925    -0.047    29.172     8.857
    91   6 C        2.915     0.063    26.588     8.455
    92   6 C        2.925    -0.051    29.267     8.872
    93   6 C        2.970    -0.041    29.011     8.835
    94   6 C        2.965     0.040    27.094     8.538
    95  16 S        2.020    -0.218   150.363    20.638
    96   6 C        3.744    -0.036    21.296     6.583
    97   6 C        2.946    -0.048    29.190     8.861
    98   6 C        2.929    -0.060    29.494     8.906
    99   6 C        3.185     0.008    27.388     8.540
   100  16 S        2.252    -0.069   143.903    20.190
   101   6 C        3.013     0.005    27.884     8.662
   102   6 C        3.053     0.056    26.686     8.472
   103   7 N        2.747    -0.078    22.760     7.086
   104   6 C        2.921     0.065    26.549     8.450
   105   6 C        2.926    -0.053    29.309     8.878
   106   6 C        2.968    -0.037    28.906     8.819
   107   6 C        2.967     0.044    27.020     8.526
   108  16 S        2.024    -0.223   150.589    20.654
   109   6 C        3.744    -0.047    21.495     6.614
   110   6 C        2.950    -0.038    28.937     8.823
   111   6 C        2.926    -0.053    29.328     8.881
   112   6 C        2.933     0.060    26.645     8.466
   113   6 C        2.922    -0.037    28.919     8.819
   114   6 C        2.983    -0.038    28.945     8.825
   115   6 C        2.967     0.057    26.721     8.479
   116  16 S        2.036    -0.181   148.722    20.525
   117   6 C        3.744    -0.053    21.598     6.629
   118   6 C        2.947    -0.033    28.821     8.805
   119   6 C        2.927    -0.033    28.818     8.804
   120   6 C        3.162    -0.004    27.781     8.615
   121  16 S        2.307    -0.028   142.207    20.071
   122   6 C        2.986     0.006    27.875     8.661
   123   6 C        3.048     0.059    26.639     8.465
   124   7 N        2.748    -0.045    22.115     6.984
   125   6 C        2.923     0.055    26.767     8.484
   126   6 C        2.923    -0.048    29.189     8.860
   127   6 C        2.944    -0.043    29.063     8.842
   128   6 C        2.966     0.047    26.952     8.515
   129  16 S        2.033    -0.180   148.692    20.523
   130   6 C        3.744    -0.048    21.506     6.615
   131   6 C        2.981    -0.035    28.863     8.813
   132   6 C        2.921    -0.038    28.951     8.824
   133   6 C        2.932     0.059    26.687     8.472
   134   6 C        2.922    -0.042    29.047     8.838
   135   6 C        2.945    -0.041    29.011     8.834
   136   6 C        2.965     0.050    26.869     8.502
   137  16 S        2.035    -0.173   148.367    20.501
   138   6 C        3.744    -0.051    21.555     6.623
   139   6 C        2.984    -0.036    28.899     8.818
   140   6 C        2.923    -0.040    29.001     8.831
   141   6 C        3.173     0.004    27.545     8.573
   142  16 S        2.267    -0.061   143.586    20.168
   143   6 C        2.921    -0.013    28.338     8.730
   144   6 C        3.030    -0.044    29.069     8.844
   145   6 C        2.876     0.233    23.139     7.886
   146   8 O        0.924    -0.427    22.193     6.318
   147   6 C        3.083    -0.022    28.466     8.746
   148  16 S        2.277     0.040   139.450    19.875
   149   6 C        2.995     0.038    27.143     8.546
   150   6 C        3.778    -0.117    22.772     6.799
   151   6 C        3.071    -0.056    29.305     8.876
   152   6 C        3.231    -0.005    27.322     8.487
   153   6 C        3.037     0.033    27.229     8.559
   154   6 C        2.947     0.005    27.902     8.664
   155   6 C        1.934     0.134    27.826     8.519
   156   7 N        0.911    -0.267    26.923     7.504
   157   6 C        1.928     0.129    27.940     8.536
   158   7 N        0.911    -0.273    27.068     7.525
   159   1 H        0.925     0.076     2.016     2.220
   160   1 H        0.925     0.073     2.054     2.241
   161   1 H        0.925     0.068     2.104     2.269
   162   1 H        0.925     0.072     2.060     2.244
   163   1 H        0.926     0.063     2.162     2.299
   164   1 H        0.926     0.047     2.356     2.401
   165   1 H        0.926     0.052     2.297     2.370
   166   1 H        0.925     0.062     2.181     2.310
   167   1 H        0.925     0.076     2.024     2.225
   168   1 H        0.925     0.066     2.130     2.282
   169   1 H        0.926     0.054     2.267     2.355
   170   1 H        0.926     0.049     2.328     2.386
   171   1 H        0.926     0.047     2.363     2.404
   172   1 H        0.926     0.057     2.240     2.340
   173   1 H        0.925     0.066     2.131     2.283
   174   1 H        0.925     0.054     2.265     2.354
   175   1 H        0.925     0.080     1.974     2.197
   176   1 H        0.926     0.052     2.300     2.372
   177   1 H        0.926     0.040     2.451     2.448
   178   1 H        0.926     0.037     2.489     2.467
   179   1 H        0.926     0.046     2.369     2.407
   180   1 H        0.925     0.058     2.227     2.334
   181   1 H        0.925     0.079     1.986     2.204
   182   1 H        0.925     0.069     2.095     2.264
   183   1 H        0.926     0.057     2.229     2.335
   184   1 H        0.926     0.031     2.568     2.506
   185   1 H        0.926     0.045     2.382     2.414
   186   1 H        0.926     0.050     2.316     2.380
   187   1 H        0.925     0.064     2.149     2.292
   188   1 H        0.925     0.063     2.166     2.302
   189   1 H        0.925     0.061     2.186     2.312
   190   1 H        0.926     0.050     2.324     2.384
   191   1 H        0.926     0.037     2.485     2.465
   192   1 H        0.926     0.046     2.365     2.405
   193   1 H        0.926     0.048     2.344     2.394
   194   1 H        0.925     0.065     2.146     2.291
   195   1 H        0.925     0.056     2.252     2.347
   196   1 H        0.925     0.085     1.926     2.170
   197   1 H        0.926     0.049     2.333     2.389
   198   1 H        0.926     0.033     2.545     2.495
   199   1 H        0.926     0.042     2.427     2.436
   200   1 H        0.926     0.053     2.285     2.364
   201   1 H        0.925     0.067     2.114     2.274
   202   1 H        0.925     0.063     2.164     2.300
   203   1 H        0.925     0.064     2.150     2.293
   204   1 H        0.926     0.040     2.443     2.444
   205   1 H        0.926     0.031     2.570     2.507
   206   1 H        0.926     0.045     2.387     2.416
   207   1 H        0.926     0.045     2.383     2.414
   208   1 H        0.925     0.063     2.168     2.303
   209   1 H        0.925     0.067     2.115     2.274
   210   1 H        0.925     0.056     2.252     2.347
   211   1 H        0.926     0.044     2.396     2.421
   212   1 H        0.926     0.039     2.462     2.454
   213   1 H        0.926     0.052     2.294     2.369
   214   1 H        0.926     0.045     2.381     2.413
   215   1 H        0.925     0.060     2.198     2.319
   216   1 H        0.925     0.060     2.198     2.318
   217   1 H        0.925     0.057     2.229     2.335
   218   1 H        0.926     0.041     2.439     2.442
   219   1 H        0.926     0.025     2.663     2.552
   220   1 H        0.926     0.035     2.510     2.478
   221   1 H        0.926     0.047     2.352     2.398
   222   1 H        0.925     0.064     2.155     2.296
   223   1 H        0.925     0.066     2.131     2.283
   224   1 H        0.925     0.055     2.260     2.351
   225   1 H        0.926     0.055     2.264     2.353
   226   1 H        0.926     0.038     2.472     2.459
   227   1 H        0.926     0.047     2.355     2.400
   228   1 H        0.926     0.050     2.324     2.384
   229   1 H        0.925     0.065     2.138     2.287
   230   1 H        0.925     0.057     2.239     2.340
   231   1 H        0.925     0.079     1.992     2.207
   232   1 H        0.926     0.055     2.258     2.350
   233   1 H        0.926     0.049     2.327     2.386
   234   1 H        0.926     0.040     2.447     2.446
   235   1 H        0.926     0.051     2.302     2.373
   236   1 H        0.925     0.056     2.247     2.344
   237   1 H        0.925     0.073     2.057     2.243
   238   1 H        0.925     0.064     2.158     2.297
   239   1 H        0.926     0.058     2.225     2.333
   240   1 H        0.926     0.057     2.236     2.338
   241   1 H        0.926     0.045     2.385     2.415
   242   1 H        0.926     0.046     2.366     2.405
   243   1 H        0.925     0.070     2.087     2.259
   244   1 H        0.925     0.059     2.206     2.323
   245   1 H        0.925     0.071     2.074     2.252
   246   1 H        0.926     0.054     2.276     2.359
   247   1 H        0.926     0.043     2.405     2.425
   248   1 H        0.925     0.067     2.122     2.278
   249   1 H        0.925     0.073     2.056     2.243
   250   1 H        0.925     0.069     2.097     2.265
   251   1 H        0.925     0.073     2.053     2.241
   252   1 H        0.926     0.065     2.146     2.291

 Mol. C6AA /au·bohr⁶  :    1206554.379205
 Mol. C8AA /au·bohr⁸  :   35872763.912084
 Mol. α(0) /au        :       1777.198823


Wiberg/Mayer (AO) data.
largest (>0.10) Wiberg bond orders for each atom

 ---------------------------------------------------------------------------
     #   Z sym  total        # sym  WBO       # sym  WBO       # sym  WBO
 ---------------------------------------------------------------------------
     1   6 C    3.942 --     2 C    1.477    17 C    1.318   159 H    0.934
     2   6 C    3.943 --     1 C    1.477    11 C    1.160     3 C    1.023
     3   6 C    3.922 --     4 O    1.688     5 C    1.072     2 C    1.023
     4   8 O    1.991 --     3 C    1.688
     5   6 C    3.918 --    10 C    1.389     6 S    1.181     3 C    1.072
     6  16 S    2.655 --     5 C    1.181     7 C    1.173
     7   6 C    3.933 --     9 C    1.559     6 S    1.173     8 C    1.046
     8   6 C    3.988 --     7 C    1.046   161 H    0.977   162 H    0.963
                           160 H    0.963
     9   6 C    3.980 --     7 C    1.559    10 C    1.281   163 H    0.958
    10   6 C    3.969 --     5 C    1.389     9 C    1.281    11 C    1.084
    11   6 C    3.961 --    12 C    1.435     2 C    1.160    10 C    1.084
    12   6 C    3.963 --    11 C    1.435    15 C    1.113    13 C    1.111
    13   6 C    3.940 --    14 N    2.737    12 C    1.111
    14   7 N    2.959 --    13 C    2.737
    15   6 C    3.942 --    16 N    2.747    12 C    1.113
    16   7 N    2.955 --    15 C    2.747
    17   6 C    3.917 --     1 C    1.318    18 C    1.297    58 S    1.061
    18   6 C    3.944 --    17 C    1.297    36 C    1.237    19 N    1.157
    19   7 N    3.513 --    18 C    1.157    28 C    1.044    20 C    1.019
    20   6 C    3.959 --    21 C    1.377    27 C    1.361    19 N    1.019
    21   6 C    3.979 --    22 C    1.453    20 C    1.377   164 H    0.966
                            26 C    0.101
    22   6 C    3.988 --    21 C    1.453    23 C    1.384   165 H    0.963
    23   6 C    3.954 --    22 C    1.384    26 C    1.365    24 S    1.060
    24  16 S    2.272 --    23 C    1.060    25 C    1.009
    25   6 C    3.970 --    24 S    1.009   166 H    0.980   168 H    0.979
                           167 H    0.975
    26   6 C    3.989 --    27 C    1.471    23 C    1.365   169 H    0.964
                            21 C    0.101
    27   6 C    3.983 --    26 C    1.471    20 C    1.361   170 H    0.966
    28   6 C    3.959 --    29 C    1.360    35 C    1.354    19 N    1.044
    29   6 C    3.980 --    30 C    1.469    28 C    1.360   171 H    0.966
    30   6 C    3.989 --    29 C    1.469    31 C    1.380   172 H    0.967
    31   6 C    3.958 --    30 C    1.380    34 C    1.379    32 S    1.049
    32  16 S    2.221 --    31 C    1.049    33 C    1.001
    33   6 C    3.968 --    32 S    1.001   174 H    0.983   173 H    0.979
                           175 H    0.975
    34   6 C    3.988 --    35 C    1.465    31 C    1.379   176 H    0.965
    35   6 C    3.983 --    34 C    1.465    28 C    1.354   177 H    0.967
    36   6 C    3.933 --    57 C    1.367    18 C    1.237    37 S    1.104
    37  16 S    2.537 --    36 C    1.104    38 C    1.080
    38   6 C    3.897 --    39 C    1.422    59 C    1.161    37 S    1.080
    39   6 C    3.949 --    38 C    1.422    57 C    1.223    40 N    1.077
    40   7 N    3.469 --    39 C    1.077    49 C    1.054    41 C    1.042
    41   6 C    3.960 --    42 C    1.371    48 C    1.350    40 N    1.042
    42   6 C    3.982 --    43 C    1.451    41 C    1.371   178 H    0.966
                            47 C    0.101
    43   6 C    3.988 --    42 C    1.451    44 C    1.385   179 H    0.964
    44   6 C    3.954 --    43 C    1.385    47 C    1.364    45 S    1.055
    45  16 S    2.259 --    44 C    1.055    46 C    1.007
    46   6 C    3.969 --    45 S    1.007   180 H    0.981   182 H    0.977
                           181 H    0.974
    47   6 C    3.989 --    48 C    1.479    44 C    1.364   183 H    0.963
                            42 C    0.101
    48   6 C    3.984 --    47 C    1.479    41 C    1.350   184 H    0.962
    49   6 C    3.963 --    50 C    1.359    56 C    1.351    40 N    1.054
    50   6 C    3.985 --    51 C    1.465    49 C    1.359   185 H    0.966
                            55 C    0.101
    51   6 C    3.988 --    50 C    1.465    52 C    1.378   186 H    0.963
    52   6 C    3.952 --    55 C    1.380    51 C    1.378    53 S    1.040
    53  16 S    2.229 --    52 C    1.040    54 C    1.006
    54   6 C    3.972 --    53 S    1.006   188 H    0.982   187 H    0.979
                           189 H    0.976
    55   6 C    3.989 --    56 C    1.458    52 C    1.380   190 H    0.967
                            50 C    0.101
    56   6 C    3.984 --    55 C    1.458    49 C    1.351   191 H    0.967
    57   6 C    3.934 --    36 C    1.367    39 C    1.223    58 S    1.115
    58  16 S    2.526 --    57 C    1.115    17 C    1.061
    59   6 C    3.902 --    60 C    1.404    38 C    1.161   100 S    1.084
    60   6 C    3.943 --    59 C    1.404    78 C    1.229    61 N    1.079
    61   7 N    3.483 --    60 C    1.079    70 C    1.067    62 C    1.033
    62   6 C    3.960 --    63 C    1.373    69 C    1.361    61 N    1.033
    63   6 C    3.985 --    64 C    1.453    62 C    1.373   192 H    0.958
                            68 C    0.101
    64   6 C    3.989 --    63 C    1.453    65 C    1.385   193 H    0.964
    65   6 C    3.959 --    64 C    1.385    68 C    1.366    66 S    1.052
    66  16 S    2.255 --    65 C    1.052    67 C    1.006
    67   6 C    3.966 --    66 S    1.006   195 H    0.981   194 H    0.977
                           196 H    0.971
    68   6 C    3.989 --    69 C    1.473    65 C    1.366   197 H    0.967
                            63 C    0.101
    69   6 C    3.986 --    68 C    1.473    62 C    1.361   198 H    0.967
    70   6 C    3.961 --    71 C    1.358    77 C    1.349    61 N    1.067
    71   6 C    3.982 --    72 C    1.459    70 C    1.358   199 H    0.965
                            76 C    0.101
    72   6 C    3.989 --    71 C    1.459    73 C    1.385   200 H    0.963
    73   6 C    3.949 --    72 C    1.385    76 C    1.376    74 S    1.035
    74  16 S    2.239 --    73 C    1.035    75 C    1.009
    75   6 C    3.971 --    74 S    1.009   203 H    0.979   202 H    0.978
                           201 H    0.978
    76   6 C    3.989 --    77 C    1.469    73 C    1.376   204 H    0.968
                            71 C    0.101
    77   6 C    3.982 --    76 C    1.469    70 C    1.349   205 H    0.966
    78   6 C    3.931 --    99 C    1.356    60 C    1.229    79 S    1.112
    79  16 S    2.587 --    80 C    1.113    78 C    1.112
    80   6 C    3.921 --    81 C    1.445   101 C    1.132    79 S    1.113
    81   6 C    3.944 --    80 C    1.445    99 C    1.252    82 N    1.007
    82   7 N    3.464 --    91 C    1.088    83 C    1.062    81 C    1.007
    83   6 C    3.963 --    84 C    1.358    90 C    1.355    82 N    1.062
    84   6 C    3.986 --    85 C    1.454    83 C    1.358   206 H    0.960
                            89 C    0.101
    85   6 C    3.987 --    84 C    1.454    86 C    1.387   207 H    0.963
    86   6 C    3.950 --    85 C    1.387    89 C    1.374    87 S    1.027
    87  16 S    2.221 --    86 C    1.027    88 C    1.007
    88   6 C    3.973 --    87 S    1.007   208 H    0.981   210 H    0.981
                           209 H    0.978
    89   6 C    3.989 --    90 C    1.468    86 C    1.374   211 H    0.967
                            84 C    0.101
    90   6 C    3.984 --    89 C    1.468    83 C    1.355   212 H    0.961
    91   6 C    3.964 --    98 C    1.357    92 C    1.332    82 N    1.088
    92   6 C    3.985 --    93 C    1.481    91 C    1.332   213 H    0.961
    93   6 C    3.988 --    92 C    1.481    94 C    1.361   214 H    0.967
    94   6 C    3.949 --    97 C    1.394    93 C    1.361    95 S    1.029
    95  16 S    2.226 --    94 C    1.029    96 C    1.008
    96   6 C    3.973 --    95 S    1.008   216 H    0.981   215 H    0.978
                           217 H    0.977
    97   6 C    3.989 --    98 C    1.448    94 C    1.394   218 H    0.958
    98   6 C    3.982 --    97 C    1.448    91 C    1.357   219 H    0.959
    99   6 C    3.935 --    78 C    1.356    81 C    1.252   100 S    1.109
   100  16 S    2.573 --    99 C    1.109    59 C    1.084
   101   6 C    3.888 --   102 C    1.407    80 C    1.132   142 S    1.097
   102   6 C    3.953 --   101 C    1.407   120 C    1.217   103 N    1.096
   103   7 N    3.460 --   102 C    1.096   104 C    1.085   112 C    0.977
   104   6 C    3.963 --   111 C    1.346   105 C    1.341   103 N    1.085
   105   6 C    3.984 --   106 C    1.459   104 C    1.341   220 H    0.963
   106   6 C    3.989 --   105 C    1.459   107 C    1.390   221 H    0.968
   107   6 C    3.949 --   106 C    1.390   110 C    1.387   108 S    1.018
   108  16 S    2.174 --   107 C    1.018   109 C    1.001
   109   6 C    3.972 --   108 S    1.001   224 H    0.984   222 H    0.980
                           223 H    0.978
   110   6 C    3.988 --   111 C    1.466   107 C    1.387   225 H    0.962
   111   6 C    3.982 --   110 C    1.466   104 C    1.346   226 H    0.964
   112   6 C    3.964 --   119 C    1.390   113 C    1.387   103 N    0.977
   113   6 C    3.987 --   114 C    1.458   112 C    1.387   227 H    0.963
                           118 C    0.101
   114   6 C    3.988 --   113 C    1.458   115 C    1.377   228 H    0.967
                           119 C    0.104
   115   6 C    3.965 --   118 C    1.389   114 C    1.377   116 S    1.055
   116  16 S    2.255 --   115 C    1.055   117 C    1.006
   117   6 C    3.969 --   116 S    1.006   230 H    0.982   229 H    0.978
                           231 H    0.971
   118   6 C    3.988 --   119 C    1.443   115 C    1.389   232 H    0.964
                           113 C    0.101
   119   6 C    3.987 --   118 C    1.443   112 C    1.390   233 H    0.966
                           114 C    0.104
   120   6 C    3.934 --   141 C    1.347   102 C    1.217   121 S    1.128
   121  16 S    2.669 --   120 C    1.128   122 C    1.072   146 O    0.105
   122   6 C    3.927 --   143 C    1.332   123 C    1.281   121 S    1.072
   123   6 C    3.941 --   122 C    1.281   141 C    1.264   124 N    1.147
   124   7 N    3.531 --   123 C    1.147   133 C    1.044   125 C    1.034
   125   6 C    3.958 --   126 C    1.364   132 C    1.359   124 N    1.034
   126   6 C    3.986 --   127 C    1.461   125 C    1.364   234 H    0.962
                           131 C    0.102
   127   6 C    3.987 --   126 C    1.461   128 C    1.378   235 H    0.963
   128   6 C    3.957 --   127 C    1.378   131 C    1.375   129 S    1.051
   129  16 S    2.250 --   128 C    1.051   130 C    1.007
   130   6 C    3.972 --   129 S    1.007   236 H    0.982   238 H    0.981
                           237 H    0.977
   131   6 C    3.989 --   132 C    1.466   128 C    1.375   239 H    0.966
                           126 C    0.102
   132   6 C    3.981 --   131 C    1.466   125 C    1.359   240 H    0.965
   133   6 C    3.958 --   134 C    1.368   140 C    1.345   124 N    1.044
   134   6 C    3.973 --   135 C    1.455   133 C    1.368   241 H    0.964
   135   6 C    3.987 --   134 C    1.455   136 C    1.382   242 H    0.962
   136   6 C    3.949 --   135 C    1.382   139 C    1.362   137 S    1.060
   137  16 S    2.261 --   136 C    1.060   138 C    1.007
   138   6 C    3.970 --   137 S    1.007   244 H    0.981   243 H    0.977
                           245 H    0.977
   139   6 C    3.988 --   140 C    1.480   136 C    1.362   246 H    0.967
   140   6 C    3.981 --   139 C    1.480   133 C    1.345   247 H    0.966
   141   6 C    3.930 --   120 C    1.347   123 C    1.264   142 S    1.099
   142  16 S    2.557 --   141 C    1.099   101 C    1.097
   143   6 C    3.943 --   144 C    1.470   122 C    1.332   248 H    0.932
   144   6 C    3.944 --   143 C    1.470   153 C    1.147   145 C    1.057
   145   6 C    3.917 --   146 O    1.641   147 C    1.082   144 C    1.057
   146   8 O    2.050 --   145 C    1.641   121 S    0.105
   147   6 C    3.920 --   152 C    1.388   148 S    1.177   145 C    1.082
   148  16 S    2.650 --   147 C    1.177   149 C    1.172
   149   6 C    3.933 --   151 C    1.559   148 S    1.172   150 C    1.047
   150   6 C    3.988 --   149 C    1.047   250 H    0.977   251 H    0.963
                           249 H    0.962
   151   6 C    3.979 --   149 C    1.559   152 C    1.280   252 H    0.957
   152   6 C    3.970 --   147 C    1.388   151 C    1.280   153 C    1.089
   153   6 C    3.971 --   154 C    1.454   144 C    1.147   152 C    1.089
   154   6 C    3.958 --   153 C    1.454   157 C    1.110   155 C    1.103
   155   6 C    3.942 --   156 N    2.757   154 C    1.103
   156   7 N    2.957 --   155 C    2.757
   157   6 C    3.943 --   158 N    2.738   154 C    1.110
   158   7 N    2.952 --   157 C    2.738
   159   1 H    0.992 --     1 C    0.934
   160   1 H    0.992 --     8 C    0.963
   161   1 H    0.995 --     8 C    0.977
   162   1 H    0.992 --     8 C    0.963
   163   1 H    0.996 --     9 C    0.958
   164   1 H    0.998 --    21 C    0.966
   165   1 H    0.997 --    22 C    0.963
   166   1 H    0.996 --    25 C    0.980
   167   1 H    0.994 --    25 C    0.975
   168   1 H    0.995 --    25 C    0.979
   169   1 H    0.996 --    26 C    0.964
   170   1 H    0.997 --    27 C    0.966
   171   1 H    0.997 --    29 C    0.966
   172   1 H    0.996 --    30 C    0.967
   173   1 H    0.995 --    33 C    0.979
   174   1 H    0.996 --    33 C    0.983
   175   1 H    0.993 --    33 C    0.975
   176   1 H    0.997 --    34 C    0.965
   177   1 H    0.998 --    35 C    0.967
   178   1 H    0.999 --    42 C    0.966
   179   1 H    0.997 --    43 C    0.964
   180   1 H    0.996 --    46 C    0.981
   181   1 H    0.993 --    46 C    0.974
   182   1 H    0.995 --    46 C    0.977
   183   1 H    0.996 --    47 C    0.963
   184   1 H    0.999 --    48 C    0.962
   185   1 H    0.998 --    50 C    0.966
   186   1 H    0.997 --    51 C    0.963
   187   1 H    0.995 --    54 C    0.979
   188   1 H    0.996 --    54 C    0.982
   189   1 H    0.996 --    54 C    0.976
   190   1 H    0.997 --    55 C    0.967
   191   1 H    0.998 --    56 C    0.967
   192   1 H    0.998 --    63 C    0.958
   193   1 H    0.997 --    64 C    0.964
   194   1 H    0.995 --    67 C    0.977
   195   1 H    0.996 --    67 C    0.981
   196   1 H    0.993 --    67 C    0.971
   197   1 H    0.997 --    68 C    0.967
   198   1 H    0.998 --    69 C    0.967
   199   1 H    0.998 --    71 C    0.965
   200   1 H    0.997 --    72 C    0.963
   201   1 H    0.995 --    75 C    0.978
   202   1 H    0.996 --    75 C    0.978
   203   1 H    0.996 --    75 C    0.979
   204   1 H    0.998 --    76 C    0.968
   205   1 H    0.999 --    77 C    0.966
   206   1 H    0.998 --    84 C    0.960
   207   1 H    0.997 --    85 C    0.963
   208   1 H    0.996 --    88 C    0.981
   209   1 H    0.995 --    88 C    0.978
   210   1 H    0.997 --    88 C    0.981
   211   1 H    0.998 --    89 C    0.967
   212   1 H    0.998 --    90 C    0.961
   213   1 H    0.997 --    92 C    0.961
   214   1 H    0.997 --    93 C    0.967
   215   1 H    0.996 --    96 C    0.978
   216   1 H    0.996 --    96 C    0.981
   217   1 H    0.997 --    96 C    0.977
   218   1 H    0.998 --    97 C    0.958
   219   1 H    0.999 --    98 C    0.959
   220   1 H    0.998 --   105 C    0.963
   221   1 H    0.997 --   106 C    0.968
   222   1 H    0.995 --   109 C    0.980
   223   1 H    0.995 --   109 C    0.978
   224   1 H    0.997 --   109 C    0.984
   225   1 H    0.996 --   110 C    0.962
   226   1 H    0.998 --   111 C    0.964
   227   1 H    0.997 --   113 C    0.963
   228   1 H    0.997 --   114 C    0.967
   229   1 H    0.995 --   117 C    0.978
   230   1 H    0.996 --   117 C    0.982
   231   1 H    0.994 --   117 C    0.971
   232   1 H    0.997 --   118 C    0.964
   233   1 H    0.997 --   119 C    0.966
   234   1 H    0.998 --   126 C    0.962
   235   1 H    0.997 --   127 C    0.963
   236   1 H    0.997 --   130 C    0.982
   237   1 H    0.994 --   130 C    0.977
   238   1 H    0.995 --   130 C    0.981
   239   1 H    0.996 --   131 C    0.966
   240   1 H    0.996 --   132 C    0.965
   241   1 H    0.998 --   134 C    0.964
   242   1 H    0.997 --   135 C    0.962
   243   1 H    0.995 --   138 C    0.977
   244   1 H    0.996 --   138 C    0.981
   245   1 H    0.995 --   138 C    0.977
   246   1 H    0.996 --   139 C    0.967
   247   1 H    0.998 --   140 C    0.966
   248   1 H    0.994 --   143 C    0.932
   249   1 H    0.991 --   150 C    0.962
   250   1 H    0.995 --   150 C    0.977
   251   1 H    0.991 --   150 C    0.963
   252   1 H    0.995 --   151 C    0.957
 ---------------------------------------------------------------------------

Topologies differ in bond orders
Writing corrected topology to xtbtopo.mol

molecular dipole:
                 x           y           z       tot (Debye)
 q only:       -1.539       1.312       0.995
   full:       -1.845       1.712       1.465       7.402
molecular quadrupole (traceless):
                xx          xy          yy          xz          yz          zz
 q only:       93.422      50.757     -51.440      20.734      58.849     -41.982
  q+dip:       95.110      75.660     -37.634      19.287      61.871     -57.477
   full:       91.416      80.549     -30.841      21.079      58.632     -60.575


           -------------------------------------------------
          | TOTAL ENERGY             -420.129243167391 Eh   |
          | GRADIENT NORM               0.022388786656 Eh/α |
          | HOMO-LUMO GAP               0.393906318679 eV   |
           -------------------------------------------------

------------------------------------------------------------------------
 * finished run on 2022/02/06 at 11:04:53.854     
------------------------------------------------------------------------
 total:
 * wall-time:     0 d,  0 h,  0 min,  1.405 sec
 *  cpu-time:     0 d,  0 h,  0 min, 11.125 sec
 * ratio c/w:     7.917 speedup
 SCF:
 * wall-time:     0 d,  0 h,  0 min,  1.264 sec
 *  cpu-time:     0 d,  0 h,  0 min, 10.094 sec
 * ratio c/w:     7.983 speedup

