      -----------------------------------------------------------      
     |                   =====================                   |     
     |                           x T B                           |     
     |                   =====================                   |     
     |                         S. Grimme                         |     
     |          Mulliken Center for Theoretical Chemistry        |     
     |                    University of Bonn                     |     
      -----------------------------------------------------------      

   * xtb version 6.4.1 (unknown) compiled by 'oda6@login1.crc.pitt.edu' on 2021-06-25

   xtb is free software: you can redistribute it and/or modify it under
   the terms of the GNU Lesser General Public License as published by
   the Free Software Foundation, either version 3 of the License, or
   (at your option) any later version.
   
   xtb is distributed in the hope that it will be useful,
   but WITHOUT ANY WARRANTY; without even the implied warranty of
   MERCHANTABILITY or FITNESS FOR A PARTICULAR PURPOSE.  See the
   GNU Lesser General Public License for more details.
   
   Cite this work as:
   * C. Bannwarth, E. Caldeweyher, S. Ehlert, A. Hansen, P. Pracht,
     J. Seibert, S. Spicher, S. Grimme, WIREs Comput. Mol. Sci., 2020, 11,
     e01493. DOI: 10.1002/wcms.1493
   
   for GFN2-xTB:
   * C. Bannwarth, S. Ehlert and S. Grimme., J. Chem. Theory Comput., 2019,
     15, 1652-1671. DOI: 10.1021/acs.jctc.8b01176
   for GFN1-xTB:
   * S. Grimme, C. Bannwarth, P. Shushkov, J. Chem. Theory Comput., 2017,
     13, 1989-2009. DOI: 10.1021/acs.jctc.7b00118
   for GFN0-xTB:
   * P. Pracht, E. Caldeweyher, S. Ehlert, S. Grimme, ChemRxiv, 2019, preprint.
     DOI: 10.26434/chemrxiv.8326202.v1
   for GFN-FF:
   * S. Spicher and S. Grimme, Angew. Chem. Int. Ed., 2020, 59, 15665-15673.
     DOI: 10.1002/anie.202004239
   
   for DFT-D4:
   * E. Caldeweyher, C. Bannwarth and S. Grimme, J. Chem. Phys., 2017,
     147, 034112. DOI: 10.1063/1.4993215
   * E. Caldeweyher, S. Ehlert, A. Hansen, H. Neugebauer, S. Spicher,
     C. Bannwarth and S. Grimme, J. Chem. Phys., 2019, 150, 154122.
     DOI: 10.1063/1.5090222
   * E. Caldeweyher, J.-M. Mewes, S. Ehlert and S. Grimme, Phys. Chem. Chem. Phys.
     2020, 22, 8499-8512. DOI: 10.1039/D0CP00502A
   
   for sTDA-xTB:
   * S. Grimme and C. Bannwarth, J. Chem. Phys., 2016, 145, 054103.
     DOI: 10.1063/1.4959605
   
   in the mass-spec context:
   * V. Asgeirsson, C. Bauer and S. Grimme, Chem. Sci., 2017, 8, 4879.
     DOI: 10.1039/c7sc00601b
   * J. Koopman and S. Grimme, ACS Omega 2019, 4, 12, 15120-15133.
     DOI: 10.1021/acsomega.9b02011
   
   for metadynamics refer to:
   * S. Grimme, J. Chem. Theory Comput., 2019, 155, 2847-2862
     DOI: 10.1021/acs.jctc.9b00143
   
   for SPH calculations refer to:
   * S. Spicher and S. Grimme, J. Chem. Theory Comput., 2021, 17, 1701-1714
     DOI: 10.1021/acs.jctc.0c01306
   
   with help from (in alphabetical order)
   P. Atkinson, C. Bannwarth, F. Bohle, G. Brandenburg, E. Caldeweyher
   M. Checinski, S. Dohm, S. Ehlert, S. Ehrlich, I. Gerasimov, J. Koopman
   C. Lavigne, S. Lehtola, F. März, M. Müller, F. Musil, H. Neugebauer
   J. Pisarek, C. Plett, P. Pracht, J. Seibert, P. Shushkov, S. Spicher
   M. Stahn, M. Steiner, T. Strunk, J. Stückrath, T. Rose, and J. Unsleber
   
 * started run on 2022/02/10 at 18:49:36.980     

           -------------------------------------------------
          |                Calculation Setup                |
           -------------------------------------------------

          program call               : /ihome/ghutchison/oda6/xtb/xtb-641/bin/xtb ../../GFN2_output/29_133_5_133_21.mol --sp --alpb hexane
          hostname                   : smp-n25
          coordinate file            : ../../GFN2_output/29_133_5_133_21.mol
          omp threads                :                     8
          number of atoms            :                   112
          number of electrons        :                   378
          charge                     :                     0
          spin                       :                   0.0
          first test random number   :      0.46165519777718

   ID    Z sym.   atoms
    1    6 C      1-3, 5-9, 11-15, 17, 19-21, 25, 26, 30-42, 44, 45, 47-49,
                  53, 54, 58-64, 67-69, 72, 74-77
    2    8 O      4, 65, 73
    3    9 F      10
    4    7 N      16, 18, 22, 24, 27, 29, 50, 52, 55, 57, 66, 71
    5   16 S      23, 28, 43, 46, 51, 56, 70
    6    1 H      78-112

           -------------------------------------------------
          |                 G F N 2 - x T B                 |
           -------------------------------------------------

        Reference                      10.1021/acs.jctc.8b01176
      * Hamiltonian:
        H0-scaling (s, p, d)           1.850000    2.230000    2.230000
        zeta-weighting                 0.500000
      * Dispersion:
        s8                             2.700000
        a1                             0.520000
        a2                             5.000000
        s9                             5.000000
      * Repulsion:
        kExp                           1.500000    1.000000
        rExp                           1.000000
      * Coulomb:
        alpha                          2.000000
        third order                    shell-resolved
        anisotropic                    true
        a3                             3.000000
        a5                             4.000000
        cn-shift                       1.200000
        cn-exp                         4.000000
        max-rad                        5.000000

      * Solvation model:               ALPB
        Solvent                        hexane
        Parameter file                 internal GFN2-xTB/ALPB
        Dielectric constant                1.8800E+00
        Reference state                gsolv [1 M gas/solution]
        Free energy shift                  4.8134E-03 Eh       3.0204E+00 kcal/mol
        Temperature                        2.9815E+02 K
        Density                            6.6000E-01 kg/L
        Solvent mass                       8.6180E+01 g/mol
        Interaction kernel             P16
        Born radius scaling (c1)           1.1040E+00
        Born radii integrator          GBOBC
        Born offset                        0.0000E+00 a0       0.0000E+00 AA
        H-bond correction              false
        Ion screening                  false
        Surface tension                    1.0000E-05 Eh       1.5569E+01 dyn/cm
        Grid points                               230 per atom

          ...................................................
          :                      SETUP                      :
          :.................................................:
          :  # basis functions                 385          :
          :  # atomic orbitals                 378          :
          :  # shells                          196          :
          :  # electrons                       378          :
          :  max. iterations                   250          :
          :  Hamiltonian                  GFN2-xTB          :
          :  restarted?                      false          :
          :  GBSA solvation                   true          :
          :  PC potential                    false          :
          :  electronic temp.          300.0000000     K    :
          :  accuracy                    1.0000000          :
          :  -> integral cutoff          0.2500000E+02      :
          :  -> integral neglect         0.1000000E-07      :
          :  -> SCF convergence          0.1000000E-05 Eh   :
          :  -> wf. convergence          0.1000000E-03 e    :
          :  Broyden damping             0.4000000          :
          ...................................................

 iter      E             dE          RMSdq      gap      omega  full diag
   1   -210.9326780 -0.210933E+03  0.452E+00    0.77       0.0  T
   2   -211.2098194 -0.277141E+00  0.266E+00    0.60       1.0  T
   3   -211.1932456  0.165738E-01  0.144E+00    0.52       1.0  T
   4   -211.2311800 -0.379343E-01  0.700E-01    0.61       1.0  T
   5   -211.2764280 -0.452480E-01  0.274E-01    0.51       1.0  T
   6   -211.2814880 -0.506003E-02  0.132E-01    0.52       1.0  T
   7   -211.2824404 -0.952360E-03  0.591E-02    0.51       1.0  T
   8   -211.2825870 -0.146610E-03  0.279E-02    0.53       1.0  T
   9   -211.2826224 -0.354021E-04  0.167E-02    0.52       1.0  T
  10   -211.2826489 -0.264757E-04  0.641E-03    0.52       1.5  T
  11   -211.2826508 -0.190588E-05  0.281E-03    0.52       3.4  T
  12   -211.2826511 -0.373223E-06  0.124E-03    0.52       7.6  T
  13   -211.2826512 -0.547207E-07  0.628E-04    0.52      15.1  T
  14   -211.2826512 -0.119562E-07  0.246E-04    0.52      38.4  T

   *** convergence criteria satisfied after 14 iterations ***

         #    Occupation            Energy/Eh            Energy/eV
      -------------------------------------------------------------
         1        2.0000           -0.8330165             -22.6675
       ...           ...                  ...                  ...
       183        2.0000           -0.4035410             -10.9809
       184        2.0000           -0.4014072             -10.9228
       185        2.0000           -0.3997165             -10.8768
       186        2.0000           -0.3858705             -10.5001
       187        2.0000           -0.3783048             -10.2942
       188        2.0000           -0.3741019             -10.1798
       189        1.9999           -0.3646097              -9.9215 (HOMO)
       190        0.0001           -0.3454693              -9.4007 (LUMO)
       191                         -0.3374294              -9.1819
       192                         -0.3217930              -8.7564
       193                         -0.3215211              -8.7490
       194                         -0.3039038              -8.2696
       ...                                ...                  ...
       378                          1.1626385              31.6370
      -------------------------------------------------------------
                  HL-Gap            0.0191404 Eh            0.5208 eV
             Fermi-level           -0.3550396 Eh           -9.6611 eV

 SCC (total)                   0 d,  0 h,  0 min,  0.691 sec
 SCC setup                      ...        0 min,  0.003 sec (  0.440%)
 Dispersion                     ...        0 min,  0.004 sec (  0.558%)
 classical contributions        ...        0 min,  0.000 sec (  0.038%)
 integral evaluation            ...        0 min,  0.018 sec (  2.581%)
 iterations                     ...        0 min,  0.619 sec ( 89.549%)
 molecular gradient             ...        0 min,  0.046 sec (  6.606%)
 printout                       ...        0 min,  0.001 sec (  0.216%)

         :::::::::::::::::::::::::::::::::::::::::::::::::::::
         ::                     SUMMARY                     ::
         :::::::::::::::::::::::::::::::::::::::::::::::::::::
         :: total energy            -208.380730998929 Eh    ::
         :: total w/o Gsasa/hb      -208.320938418718 Eh    ::
         :: gradient norm              0.025954664514 Eh/a0 ::
         :: HOMO-LUMO gap              0.520835933919 eV    ::
         ::.................................................::
         :: SCC energy              -211.282651208135 Eh    ::
         :: -> isotropic ES            0.248967761964 Eh    ::
         :: -> anisotropic ES          0.000992096856 Eh    ::
         :: -> anisotropic XC          0.114554010533 Eh    ::
         :: -> dispersion             -0.205327360486 Eh    ::
         :: -> Gsolv                  -0.094926437276 Eh    ::
         ::    -> Gelec               -0.035133857065 Eh    ::
         ::    -> Gsasa               -0.064605936030 Eh    ::
         ::    -> Ghb                  0.000000000000 Eh    ::
         ::    -> Gshift               0.004813355820 Eh    ::
         :: repulsion energy           2.895624064085 Eh    ::
         :: add. restraining           0.000000000000 Eh    ::
         :: total charge               0.000000000000 e     ::
         :::::::::::::::::::::::::::::::::::::::::::::::::::::

           -------------------------------------------------
          |                Property Printout                |
           -------------------------------------------------

    * Orbital Energies and Occupations

         #    Occupation            Energy/Eh            Energy/eV
      -------------------------------------------------------------
         1        2.0000           -0.8330165             -22.6675
       ...           ...                  ...                  ...
       177        2.0000           -0.4208077             -11.4508
       178        2.0000           -0.4189814             -11.4011
       179        2.0000           -0.4170502             -11.3485
       180        2.0000           -0.4142528             -11.2724
       181        2.0000           -0.4100993             -11.1594
       182        2.0000           -0.4096143             -11.1462
       183        2.0000           -0.4035410             -10.9809
       184        2.0000           -0.4014072             -10.9228
       185        2.0000           -0.3997165             -10.8768
       186        2.0000           -0.3858705             -10.5001
       187        2.0000           -0.3783048             -10.2942
       188        2.0000           -0.3741019             -10.1798
       189        1.9999           -0.3646097              -9.9215 (HOMO)
       190        0.0001           -0.3454693              -9.4007 (LUMO)
       191                         -0.3374294              -9.1819
       192                         -0.3217930              -8.7564
       193                         -0.3215211              -8.7490
       194                         -0.3039038              -8.2696
       195                         -0.2946790              -8.0186
       196                         -0.2927003              -7.9648
       197                         -0.2788970              -7.5892
       198                         -0.2695429              -7.3346
       199                         -0.2561034              -6.9689
       200                         -0.2548223              -6.9341
       ...                                ...                  ...
       378                          1.1626385              31.6370
      -------------------------------------------------------------
                  HL-Gap            0.0191404 Eh            0.5208 eV
             Fermi-level           -0.3550396 Eh           -9.6611 eV

     #   Z          covCN         q      C6AA      α(0)
     1   6 C        2.902     0.002    27.987     8.674
     2   6 C        3.008    -0.028    28.671     8.783
     3   6 C        2.866     0.242    22.959     7.854
     4   8 O        0.856    -0.420    22.085     6.301
     5   6 C        3.040    -0.021    28.501     8.756
     6   6 C        2.921    -0.026    28.652     8.778
     7   6 C        2.965     0.016    27.646     8.624
     8   6 C        3.758    -0.111    22.682     6.790
     9   6 C        2.794     0.172    24.298     8.075
    10   9 F        0.788    -0.230    11.550     4.015
    11   6 C        2.911    -0.046    29.149     8.853
    12   6 C        3.038     0.008    27.794     8.647
    13   6 C        3.019     0.040    27.090     8.538
    14   6 C        2.947     0.012    27.747     8.639
    15   6 C        1.939     0.132    27.861     8.524
    16   7 N        0.911    -0.263    26.810     7.489
    17   6 C        1.940     0.134    27.818     8.518
    18   7 N        0.911    -0.262    26.797     7.487
    19   6 C        2.959    -0.008    28.229     8.715
    20   6 C        3.351     0.086    23.478     7.633
    21   6 C        3.341     0.069    24.016     7.747
    22   7 N        1.852    -0.297    28.541     7.918
    23  16 S        2.674     0.447   124.171    18.755
    24   7 N        1.853    -0.295    28.500     7.912
    25   6 C        2.993    -0.005    28.148     8.703
    26   6 C        3.349     0.071    23.825     7.696
    27   7 N        1.888    -0.287    28.283     7.884
    28  16 S        2.669     0.453   123.957    18.739
    29   7 N        1.853    -0.301    28.661     7.935
    30   6 C        3.347     0.073    23.828     7.701
    31   6 C        2.987     0.039    27.129     8.544
    32   6 C        3.060    -0.042    28.984     8.829
    33   6 C        3.126     0.001    27.822     8.637
    34   6 C        2.988     0.007    27.856     8.658
    35   6 C        3.806    -0.062    21.684     6.629
    36   6 C        3.754    -0.103    22.529     6.768
    37   6 C        3.009     0.020    27.552     8.610
    38   6 C        3.126     0.003    27.768     8.629
    39   6 C        2.986     0.007    27.865     8.659
    40   6 C        3.806    -0.059    21.633     6.621
    41   6 C        3.753    -0.103    22.530     6.769
    42   6 C        3.008     0.020    27.534     8.607
    43  16 S        2.294    -0.042   142.801    20.113
    44   6 C        3.064    -0.045    29.047     8.838
    45   6 C        2.987     0.036    27.190     8.554
    46  16 S        2.279    -0.041   142.771    20.110
    47   6 C        2.995    -0.027    28.675     8.784
    48   6 C        3.357     0.070    23.661     7.645
    49   6 C        3.356     0.064    23.815     7.674
    50   7 N        1.853    -0.305    28.754     7.948
    51  16 S        2.679     0.482   122.934    18.661
    52   7 N        1.865    -0.304    28.737     7.946
    53   6 C        2.965    -0.017    28.437     8.747
    54   6 C        3.332     0.063    24.325     7.821
    55   7 N        1.851    -0.301    28.640     7.932
    56  16 S        2.652     0.447   124.156    18.754
    57   7 N        1.850    -0.314    28.981     7.979
    58   6 C        3.343     0.062    24.123     7.760
    59   6 C        3.876    -0.010    20.710     6.471
    60   6 C        2.931    -0.013    28.328     8.729
    61   6 C        2.917    -0.032    28.791     8.799
    62   6 C        2.976     0.077    26.267     8.407
    63   6 C        2.955    -0.087    30.174     9.010
    64   6 C        2.779     0.275    22.345     7.742
    65   8 O        0.859    -0.469    23.104     6.444
    66   7 N        2.805    -0.079    22.771     7.087
    67   6 C        3.757     0.013    20.411     6.441
    68   6 C        3.752    -0.108    22.632     6.784
    69   6 C        2.835     0.194    23.864     8.005
    70  16 S        1.114    -0.395   156.523    21.157
    71   7 N        2.805    -0.075    22.700     7.076
    72   6 C        2.774     0.274    22.363     7.745
    73   8 O        0.859    -0.461    22.936     6.421
    74   6 C        3.758     0.008    20.492     6.454
    75   6 C        3.752    -0.109    22.650     6.787
    76   6 C        3.813    -0.072    21.862     6.655
    77   6 C        3.817    -0.065    21.728     6.634
    78   1 H        0.925     0.082     1.961     2.190
    79   1 H        0.926     0.073     2.052     2.240
    80   1 H        0.925     0.071     2.078     2.255
    81   1 H        0.925     0.071     2.078     2.254
    82   1 H        0.925     0.059     2.211     2.325
    83   1 H        0.926     0.081     1.966     2.192
    84   1 H        0.926     0.082     1.957     2.188
    85   1 H        0.924     0.056     2.250     2.346
    86   1 H        0.924     0.055     2.256     2.349
    87   1 H        0.925     0.043     2.405     2.425
    88   1 H        0.925     0.046     2.373     2.409
    89   1 H        0.925     0.041     2.435     2.440
    90   1 H        0.924     0.057     2.232     2.336
    91   1 H        0.924     0.055     2.261     2.352
    92   1 H        0.925     0.043     2.407     2.426
    93   1 H        0.925     0.040     2.452     2.449
    94   1 H        0.925     0.045     2.384     2.415
    95   1 H        0.926     0.065     2.141     2.288
    96   1 H        0.924     0.066     2.129     2.282
    97   1 H        0.926     0.069     2.102     2.267
    98   1 H        0.926     0.080     1.982     2.201
    99   1 H        0.924     0.071     2.074     2.252
   100   1 H        0.924     0.074     2.047     2.238
   101   1 H        0.925     0.052     2.298     2.371
   102   1 H        0.925     0.055     2.259     2.351
   103   1 H        0.925     0.058     2.221     2.331
   104   1 H        0.924     0.077     2.010     2.217
   105   1 H        0.924     0.077     2.011     2.218
   106   1 H        0.925     0.049     2.328     2.386
   107   1 H        0.925     0.058     2.225     2.333
   108   1 H        0.925     0.060     2.194     2.317
   109   1 H        0.924     0.085     1.926     2.170
   110   1 H        0.925     0.096     1.824     2.112
   111   1 H        0.925     0.081     1.969     2.195
   112   1 H        0.924     0.053     2.285     2.364

 Mol. C6AA /au·bohr⁶  :     234854.584414
 Mol. C8AA /au·bohr⁸  :    6656905.107569
 Mol. α(0) /au        :        765.236779


Wiberg/Mayer (AO) data.
largest (>0.10) Wiberg bond orders for each atom

 ---------------------------------------------------------------------------
     #   Z sym  total        # sym  WBO       # sym  WBO       # sym  WBO
 ---------------------------------------------------------------------------
     1   6 C    3.943 --     2 C    1.530    19 C    1.234    78 H    0.941
     2   6 C    3.920 --     1 C    1.530    13 C    1.146     3 C    1.035
     3   6 C    3.909 --     4 O    1.735     2 C    1.035     5 C    1.020
     4   8 O    2.014 --     3 C    1.735
     5   6 C    3.976 --     6 C    1.421    12 C    1.294     3 C    1.020
     6   6 C    3.980 --     5 C    1.421     7 C    1.396    79 H    0.962
     7   6 C    3.967 --     6 C    1.396     9 C    1.350     8 C    1.035
     8   6 C    3.989 --     7 C    1.035    82 H    0.984    81 H    0.963
                            80 H    0.963
     9   6 C    3.869 --    11 C    1.401     7 C    1.350    10 F    0.957
    10   9 F    1.084 --     9 C    0.957
    11   6 C    3.975 --     9 C    1.401    12 C    1.397    83 H    0.956
    12   6 C    3.982 --    11 C    1.397     5 C    1.294    13 C    1.085
    13   6 C    3.973 --    14 C    1.478     2 C    1.146    12 C    1.085
    14   6 C    3.951 --    13 C    1.478    17 C    1.100    15 C    1.099
    15   6 C    3.944 --    16 N    2.755    14 C    1.099
    16   7 N    2.958 --    15 C    2.755
    17   6 C    3.943 --    18 N    2.757    14 C    1.100
    18   7 N    2.960 --    17 C    2.757
    19   6 C    3.919 --     1 C    1.234    30 C    1.224    20 C    1.223
    20   6 C    3.967 --    24 N    1.377    19 C    1.223    21 C    1.147
    21   6 C    3.965 --    22 N    1.371    25 C    1.224    20 C    1.147
    22   7 N    3.067 --    23 S    1.439    21 C    1.371    24 N    0.156
    23  16 S    3.169 --    22 N    1.439    24 N    1.435
    24   7 N    3.069 --    23 S    1.435    20 C    1.377    22 N    0.156
    25   6 C    3.929 --    26 C    1.231    21 C    1.224    31 C    1.215
    26   6 C    3.966 --    27 N    1.368    25 C    1.231    30 C    1.149
    27   7 N    3.094 --    28 S    1.436    26 C    1.368    29 N    0.154
    28  16 S    3.146 --    27 N    1.436    29 N    1.431
    29   7 N    3.056 --    28 S    1.431    30 C    1.374    27 N    0.154
    30   6 C    3.963 --    29 N    1.374    19 C    1.224    26 C    1.149
    31   6 C    3.938 --    32 C    1.445    25 C    1.215    43 S    1.103
    32   6 C    3.892 --    31 C    1.445    33 C    1.290    84 H    0.947
    33   6 C    3.959 --    32 C    1.290    34 C    1.266    42 C    1.212
    34   6 C    3.939 --    37 C    1.435    33 C    1.266    35 C    1.016
    35   6 C    3.993 --    34 C    1.016    36 C    0.995    86 H    0.967
                            85 H    0.966
    36   6 C    3.989 --    35 C    0.995    89 H    0.988    87 H    0.987
                            88 H    0.985
    37   6 C    3.940 --    34 C    1.435    38 C    1.218    46 S    1.091
    38   6 C    3.952 --    39 C    1.278    44 C    1.262    37 C    1.218
    39   6 C    3.952 --    42 C    1.434    38 C    1.278    40 C    1.015
    40   6 C    3.992 --    39 C    1.015    41 C    0.998    91 H    0.966
                            90 H    0.958
    41   6 C    3.991 --    40 C    0.998    93 H    0.988    92 H    0.985
                            94 H    0.985
    42   6 C    3.936 --    39 C    1.434    33 C    1.212    43 S    1.093
    43  16 S    2.551 --    31 C    1.103    42 C    1.093
    44   6 C    3.918 --    45 C    1.499    38 C    1.262    95 H    0.950
    45   6 C    3.928 --    44 C    1.499    47 C    1.160    46 S    1.104
    46  16 S    2.531 --    45 C    1.104    37 C    1.091
    47   6 C    3.981 --    48 C    1.259    58 C    1.256    45 C    1.160
                            53 C    0.105
    48   6 C    3.964 --    52 N    1.347    47 C    1.259    49 C    1.140
    49   6 C    3.974 --    50 N    1.325    53 C    1.302    48 C    1.140
    50   7 N    3.058 --    51 S    1.467    49 C    1.325    52 N    0.163
    51  16 S    3.194 --    50 N    1.467    52 N    1.445
    52   7 N    3.082 --    51 S    1.445    48 C    1.347    50 N    0.163
    53   6 C    3.908 --    54 C    1.307    49 C    1.302    59 C    0.988
                            47 C    0.105
    54   6 C    3.974 --    55 N    1.328    53 C    1.307    58 C    1.125
    55   7 N    3.060 --    56 S    1.460    54 C    1.328    57 N    0.165
    56  16 S    3.205 --    55 N    1.460    57 N    1.442
    57   7 N    3.062 --    56 S    1.442    58 C    1.356    55 N    0.165
    58   6 C    3.963 --    57 N    1.356    47 C    1.256    54 C    1.125
    59   6 C    3.992 --    60 C    1.000    53 C    0.988    77 C    0.978
                            96 H    0.948
    60   6 C    3.968 --    61 C    1.816    59 C    1.000    97 H    0.966
    61   6 C    3.984 --    60 C    1.816    62 C    1.113    98 H    0.938
    62   6 C    3.925 --    63 C    1.518    61 C    1.113    76 C    1.034
    63   6 C    3.971 --    62 C    1.518    72 C    1.078    64 C    1.075
    64   6 C    3.945 --    65 O    1.633    66 N    1.114    63 C    1.075
    65   8 O    1.988 --    64 C    1.633    66 N    0.125
    66   7 N    3.587 --    69 C    1.193    64 C    1.114    67 C    0.956
                            65 O    0.125
    67   6 C    3.943 --    68 C    1.010   100 H    0.965    99 H    0.964
                            66 N    0.956
    68   6 C    3.988 --    67 C    1.010   101 H    0.983   103 H    0.981
                           102 H    0.978
    69   6 C    3.957 --    70 S    1.477    71 N    1.194    66 N    1.193
    70  16 S    1.834 --    69 C    1.477
    71   7 N    3.589 --    69 C    1.194    72 C    1.113    74 C    0.956
                            73 O    0.127
    72   6 C    3.947 --    73 O    1.635    71 N    1.113    63 C    1.078
    73   8 O    1.991 --    72 C    1.635    71 N    0.127
    74   6 C    3.941 --    75 C    1.010   105 H    0.963   104 H    0.962
                            71 N    0.956
    75   6 C    3.988 --    74 C    1.010   106 H    0.982   108 H    0.981
                           107 H    0.975
    76   6 C    3.984 --    62 C    1.034    77 C    0.984   110 H    0.948
                           109 H    0.931
    77   6 C    3.987 --    76 C    0.984    59 C    0.978   112 H    0.978
                           111 H    0.960
    78   1 H    0.989 --     1 C    0.941
    79   1 H    0.994 --     6 C    0.962
    80   1 H    0.992 --     8 C    0.963
    81   1 H    0.992 --     8 C    0.963
    82   1 H    0.996 --     8 C    0.984
    83   1 H    0.993 --    11 C    0.956
    84   1 H    0.993 --    32 C    0.947
    85   1 H    0.995 --    35 C    0.966
    86   1 H    0.995 --    35 C    0.967
    87   1 H    0.998 --    36 C    0.987
    88   1 H    0.996 --    36 C    0.985
    89   1 H    0.998 --    36 C    0.988
    90   1 H    0.995 --    40 C    0.958
    91   1 H    0.996 --    40 C    0.966
    92   1 H    0.998 --    41 C    0.985
    93   1 H    0.998 --    41 C    0.988
    94   1 H    0.997 --    41 C    0.985
    95   1 H    0.995 --    44 C    0.950
    96   1 H    0.991 --    59 C    0.948
    97   1 H    0.994 --    60 C    0.966
    98   1 H    0.992 --    61 C    0.938
    99   1 H    0.994 --    67 C    0.964
   100   1 H    0.994 --    67 C    0.965
   101   1 H    0.997 --    68 C    0.983
   102   1 H    0.997 --    68 C    0.978
   103   1 H    0.996 --    68 C    0.981
   104   1 H    0.993 --    74 C    0.962
   105   1 H    0.993 --    74 C    0.963
   106   1 H    0.997 --    75 C    0.982
   107   1 H    0.997 --    75 C    0.975
   108   1 H    0.996 --    75 C    0.981
   109   1 H    0.989 --    76 C    0.931
   110   1 H    0.990 --    76 C    0.948
   111   1 H    0.991 --    77 C    0.960
   112   1 H    0.996 --    77 C    0.978
 ---------------------------------------------------------------------------

Topologies differ in bond orders
Writing corrected topology to xtbtopo.mol

molecular dipole:
                 x           y           z       tot (Debye)
 q only:        3.127       4.940       2.204
   full:        3.294       5.179       2.175      16.551
molecular quadrupole (traceless):
                xx          xy          yy          xz          yz          zz
 q only:      -15.955     -51.625     -21.485     -20.226     -56.120      37.441
  q+dip:      -15.546     -62.487     -24.137     -32.887     -43.137      39.683
   full:       -8.553     -69.164     -28.789     -34.945     -45.617      37.342


           -------------------------------------------------
          | TOTAL ENERGY             -208.380730998929 Eh   |
          | GRADIENT NORM               0.025954664514 Eh/α |
          | HOMO-LUMO GAP               0.520835933919 eV   |
           -------------------------------------------------

------------------------------------------------------------------------
 * finished run on 2022/02/10 at 18:49:37.867     
------------------------------------------------------------------------
 total:
 * wall-time:     0 d,  0 h,  0 min,  0.887 sec
 *  cpu-time:     0 d,  0 h,  0 min,  5.902 sec
 * ratio c/w:     6.654 speedup
 SCF:
 * wall-time:     0 d,  0 h,  0 min,  0.693 sec
 *  cpu-time:     0 d,  0 h,  0 min,  4.783 sec
 * ratio c/w:     6.898 speedup

