      -----------------------------------------------------------      
     |                   =====================                   |     
     |                           x T B                           |     
     |                   =====================                   |     
     |                         S. Grimme                         |     
     |          Mulliken Center for Theoretical Chemistry        |     
     |                    University of Bonn                     |     
      -----------------------------------------------------------      

   * xtb version 6.4.1 (unknown) compiled by 'oda6@login1.crc.pitt.edu' on 2021-06-25

   xtb is free software: you can redistribute it and/or modify it under
   the terms of the GNU Lesser General Public License as published by
   the Free Software Foundation, either version 3 of the License, or
   (at your option) any later version.
   
   xtb is distributed in the hope that it will be useful,
   but WITHOUT ANY WARRANTY; without even the implied warranty of
   MERCHANTABILITY or FITNESS FOR A PARTICULAR PURPOSE.  See the
   GNU Lesser General Public License for more details.
   
   Cite this work as:
   * C. Bannwarth, E. Caldeweyher, S. Ehlert, A. Hansen, P. Pracht,
     J. Seibert, S. Spicher, S. Grimme, WIREs Comput. Mol. Sci., 2020, 11,
     e01493. DOI: 10.1002/wcms.1493
   
   for GFN2-xTB:
   * C. Bannwarth, S. Ehlert and S. Grimme., J. Chem. Theory Comput., 2019,
     15, 1652-1671. DOI: 10.1021/acs.jctc.8b01176
   for GFN1-xTB:
   * S. Grimme, C. Bannwarth, P. Shushkov, J. Chem. Theory Comput., 2017,
     13, 1989-2009. DOI: 10.1021/acs.jctc.7b00118
   for GFN0-xTB:
   * P. Pracht, E. Caldeweyher, S. Ehlert, S. Grimme, ChemRxiv, 2019, preprint.
     DOI: 10.26434/chemrxiv.8326202.v1
   for GFN-FF:
   * S. Spicher and S. Grimme, Angew. Chem. Int. Ed., 2020, 59, 15665-15673.
     DOI: 10.1002/anie.202004239
   
   for DFT-D4:
   * E. Caldeweyher, C. Bannwarth and S. Grimme, J. Chem. Phys., 2017,
     147, 034112. DOI: 10.1063/1.4993215
   * E. Caldeweyher, S. Ehlert, A. Hansen, H. Neugebauer, S. Spicher,
     C. Bannwarth and S. Grimme, J. Chem. Phys., 2019, 150, 154122.
     DOI: 10.1063/1.5090222
   * E. Caldeweyher, J.-M. Mewes, S. Ehlert and S. Grimme, Phys. Chem. Chem. Phys.
     2020, 22, 8499-8512. DOI: 10.1039/D0CP00502A
   
   for sTDA-xTB:
   * S. Grimme and C. Bannwarth, J. Chem. Phys., 2016, 145, 054103.
     DOI: 10.1063/1.4959605
   
   in the mass-spec context:
   * V. Asgeirsson, C. Bauer and S. Grimme, Chem. Sci., 2017, 8, 4879.
     DOI: 10.1039/c7sc00601b
   * J. Koopman and S. Grimme, ACS Omega 2019, 4, 12, 15120-15133.
     DOI: 10.1021/acsomega.9b02011
   
   for metadynamics refer to:
   * S. Grimme, J. Chem. Theory Comput., 2019, 155, 2847-2862
     DOI: 10.1021/acs.jctc.9b00143
   
   for SPH calculations refer to:
   * S. Spicher and S. Grimme, J. Chem. Theory Comput., 2021, 17, 1701-1714
     DOI: 10.1021/acs.jctc.0c01306
   
   with help from (in alphabetical order)
   P. Atkinson, C. Bannwarth, F. Bohle, G. Brandenburg, E. Caldeweyher
   M. Checinski, S. Dohm, S. Ehlert, S. Ehrlich, I. Gerasimov, J. Koopman
   C. Lavigne, S. Lehtola, F. März, M. Müller, F. Musil, H. Neugebauer
   J. Pisarek, C. Plett, P. Pracht, J. Seibert, P. Shushkov, S. Spicher
   M. Stahn, M. Steiner, T. Strunk, J. Stückrath, T. Rose, and J. Unsleber
   
 * started run on 2022/02/10 at 20:17:24.204     

           -------------------------------------------------
          |                Calculation Setup                |
           -------------------------------------------------

          program call               : /ihome/ghutchison/oda6/xtb/xtb-641/bin/xtb ../../GFN2_output/29_56_130_133_66.mol --sp --alpb hexane
          hostname                   : smp-n25
          coordinate file            : ../../GFN2_output/29_56_130_133_66.mol
          omp threads                :                     8
          number of atoms            :                   175
          number of electrons        :                   594
          charge                     :                     0
          spin                       :                   0.0
          first test random number   :      0.45969280371158

   ID    Z sym.   atoms
    1    6 C      1-3, 5-9, 11-15, 17, 19-23, 25-28, 30, 32-40, 42, 44, 45,
                  47, 48, 50-53, 55-61, 63-66, 68, 69, 71-74, 76-82, 84-87,
                  89-91, 95, 96, 100-103, 105-109, 111, 113-119, 121
    2    8 O      4, 104
    3    9 F      10, 110, 112
    4    7 N      16, 18, 49, 70, 92, 94, 97, 99, 120, 122
    5   16 S      24, 41, 43, 46, 54, 62, 67, 75, 83, 88, 93, 98
    6   17 Cl     29, 31
    7    1 H      123-175

           -------------------------------------------------
          |                 G F N 2 - x T B                 |
           -------------------------------------------------

        Reference                      10.1021/acs.jctc.8b01176
      * Hamiltonian:
        H0-scaling (s, p, d)           1.850000    2.230000    2.230000
        zeta-weighting                 0.500000
      * Dispersion:
        s8                             2.700000
        a1                             0.520000
        a2                             5.000000
        s9                             5.000000
      * Repulsion:
        kExp                           1.500000    1.000000
        rExp                           1.000000
      * Coulomb:
        alpha                          2.000000
        third order                    shell-resolved
        anisotropic                    true
        a3                             3.000000
        a5                             4.000000
        cn-shift                       1.200000
        cn-exp                         4.000000
        max-rad                        5.000000

      * Solvation model:               ALPB
        Solvent                        hexane
        Parameter file                 internal GFN2-xTB/ALPB
        Dielectric constant                1.8800E+00
        Reference state                gsolv [1 M gas/solution]
        Free energy shift                  4.8134E-03 Eh       3.0204E+00 kcal/mol
        Temperature                        2.9815E+02 K
        Density                            6.6000E-01 kg/L
        Solvent mass                       8.6180E+01 g/mol
        Interaction kernel             P16
        Born radius scaling (c1)           1.1040E+00
        Born radii integrator          GBOBC
        Born offset                        0.0000E+00 a0       0.0000E+00 AA
        H-bond correction              false
        Ion screening                  false
        Surface tension                    1.0000E-05 Eh       1.5569E+01 dyn/cm
        Grid points                               230 per atom

          ...................................................
          :                      SETUP                      :
          :.................................................:
          :  # basis functions                 625          :
          :  # atomic orbitals                 611          :
          :  # shells                          311          :
          :  # electrons                       594          :
          :  max. iterations                   250          :
          :  Hamiltonian                  GFN2-xTB          :
          :  restarted?                      false          :
          :  GBSA solvation                   true          :
          :  PC potential                    false          :
          :  electronic temp.          300.0000000     K    :
          :  accuracy                    1.0000000          :
          :  -> integral cutoff          0.2500000E+02      :
          :  -> integral neglect         0.1000000E-07      :
          :  -> SCF convergence          0.1000000E-05 Eh   :
          :  -> wf. convergence          0.1000000E-03 e    :
          :  Broyden damping             0.4000000          :
          ...................................................

 iter      E             dE          RMSdq      gap      omega  full diag
   1   -330.4156343 -0.330416E+03  0.461E+00    0.53       0.0  T
   2   -330.6109876 -0.195353E+00  0.271E+00    0.64       1.0  T
   3   -330.3209187  0.290069E+00  0.152E+00    0.17       1.0  T
   4   -330.6573574 -0.336439E+00  0.637E-01    0.35       1.0  T
   5   -330.7267377 -0.693803E-01  0.264E-01    0.27       1.0  T
   6   -330.7303019 -0.356415E-02  0.150E-01    0.22       1.0  T
   7   -330.7335826 -0.328079E-02  0.674E-02    0.25       1.0  T
   8   -330.7338979 -0.315297E-03  0.357E-02    0.25       1.0  T
   9   -330.7339828 -0.848230E-04  0.215E-02    0.25       1.0  T
  10   -330.7339991 -0.163367E-04  0.153E-02    0.25       1.0  T
  11   -330.7340135 -0.143982E-04  0.106E-02    0.25       1.0  T
  12   -330.7340200 -0.651338E-05  0.739E-03    0.25       1.0  T
  13   -330.7340238 -0.379572E-05  0.409E-03    0.25       1.9  T
  14   -330.7340252 -0.140130E-05  0.225E-03    0.25       3.4  T
  15   -330.7340256 -0.351404E-06  0.129E-03    0.26       5.9  T
  16   -330.7340256 -0.611886E-07  0.793E-04    0.26       9.5  T
  17   -330.7340257 -0.418291E-07  0.498E-04    0.26      15.2  T

   *** convergence criteria satisfied after 17 iterations ***

         #    Occupation            Energy/Eh            Energy/eV
      -------------------------------------------------------------
         1        2.0000           -1.0774174             -29.3180
       ...           ...                  ...                  ...
       291        2.0000           -0.3882904             -10.5659
       292        2.0000           -0.3810009             -10.3676
       293        2.0000           -0.3770637             -10.2604
       294        2.0000           -0.3717922             -10.1170
       295        2.0000           -0.3698012             -10.0628
       296        2.0000           -0.3651536              -9.9363
       297        1.9857           -0.3562929              -9.6952 (HOMO)
       298        0.0143           -0.3469181              -9.4401 (LUMO)
       299        0.0000           -0.3368720              -9.1668
       300                         -0.3255975              -8.8600
       301                         -0.3207583              -8.7283
       302                         -0.3104506              -8.4478
       ...                                ...                  ...
       611                          1.1623461              31.6290
      -------------------------------------------------------------
                  HL-Gap            0.0093749 Eh            0.2551 eV
             Fermi-level           -0.3516055 Eh           -9.5677 eV

 SCC (total)                   0 d,  0 h,  0 min,  0.894 sec
 SCC setup                      ...        0 min,  0.007 sec (  0.763%)
 Dispersion                     ...        0 min,  0.008 sec (  0.848%)
 classical contributions        ...        0 min,  0.000 sec (  0.040%)
 integral evaluation            ...        0 min,  0.037 sec (  4.086%)
 iterations                     ...        0 min,  0.742 sec ( 82.968%)
 molecular gradient             ...        0 min,  0.097 sec ( 10.888%)
 printout                       ...        0 min,  0.004 sec (  0.397%)

         :::::::::::::::::::::::::::::::::::::::::::::::::::::
         ::                     SUMMARY                     ::
         :::::::::::::::::::::::::::::::::::::::::::::::::::::
         :: total energy            -325.883332533687 Eh    ::
         :: total w/o Gsasa/hb      -325.778654168974 Eh    ::
         :: gradient norm              0.023418981560 Eh/a0 ::
         :: HOMO-LUMO gap              0.255103178486 eV    ::
         ::.................................................::
         :: SCC energy              -330.734025668373 Eh    ::
         :: -> isotropic ES            0.218398041028 Eh    ::
         :: -> anisotropic ES          0.004189745248 Eh    ::
         :: -> anisotropic XC          0.180843776315 Eh    ::
         :: -> dispersion             -0.337147060531 Eh    ::
         :: -> Gsolv                  -0.139220657126 Eh    ::
         ::    -> Gelec               -0.034542292413 Eh    ::
         ::    -> Gsasa               -0.109491720532 Eh    ::
         ::    -> Ghb                  0.000000000000 Eh    ::
         ::    -> Gshift               0.004813355820 Eh    ::
         :: repulsion energy           4.844556057603 Eh    ::
         :: add. restraining           0.000000000000 Eh    ::
         :: total charge              -0.000000000000 e     ::
         :::::::::::::::::::::::::::::::::::::::::::::::::::::

           -------------------------------------------------
          |                Property Printout                |
           -------------------------------------------------

    * Orbital Energies and Occupations

         #    Occupation            Energy/Eh            Energy/eV
      -------------------------------------------------------------
         1        2.0000           -1.0774174             -29.3180
       ...           ...                  ...                  ...
       285        2.0000           -0.4030244             -10.9669
       286        2.0000           -0.4014688             -10.9245
       287        2.0000           -0.4002557             -10.8915
       288        2.0000           -0.3994277             -10.8690
       289        2.0000           -0.3953098             -10.7569
       290        2.0000           -0.3929819             -10.6936
       291        2.0000           -0.3882904             -10.5659
       292        2.0000           -0.3810009             -10.3676
       293        2.0000           -0.3770637             -10.2604
       294        2.0000           -0.3717922             -10.1170
       295        2.0000           -0.3698012             -10.0628
       296        2.0000           -0.3651536              -9.9363
       297        1.9857           -0.3562929              -9.6952 (HOMO)
       298        0.0143           -0.3469181              -9.4401 (LUMO)
       299        0.0000           -0.3368720              -9.1668
       300                         -0.3255975              -8.8600
       301                         -0.3207583              -8.7283
       302                         -0.3104506              -8.4478
       303                         -0.3004596              -8.1759
       304                         -0.2950607              -8.0290
       305                         -0.2860658              -7.7842
       306                         -0.2821981              -7.6790
       307                         -0.2684913              -7.3060
       308                         -0.2641586              -7.1881
       ...                                ...                  ...
       611                          1.1623461              31.6290
      -------------------------------------------------------------
                  HL-Gap            0.0093749 Eh            0.2551 eV
             Fermi-level           -0.3516055 Eh           -9.5677 eV

     #   Z          covCN         q      C6AA      α(0)
     1   6 C        2.918    -0.010    28.268     8.719
     2   6 C        3.005    -0.031    28.760     8.797
     3   6 C        2.870     0.236    23.067     7.873
     4   8 O        0.923    -0.384    21.329     6.194
     5   6 C        3.040    -0.021    28.496     8.756
     6   6 C        2.921    -0.025    28.628     8.774
     7   6 C        2.965     0.018    27.605     8.618
     8   6 C        3.758    -0.112    22.693     6.792
     9   6 C        2.794     0.173    24.265     8.069
    10   9 F        0.788    -0.227    11.520     4.009
    11   6 C        2.911    -0.046    29.141     8.852
    12   6 C        3.040     0.008    27.806     8.649
    13   6 C        3.017     0.038    27.122     8.543
    14   6 C        2.947     0.012    27.740     8.638
    15   6 C        1.947     0.134    27.810     8.516
    16   7 N        0.911    -0.258    26.686     7.471
    17   6 C        1.945     0.133    27.833     8.520
    18   7 N        0.911    -0.264    26.831     7.492
    19   6 C        2.978     0.037    27.170     8.550
    20   6 C        3.073    -0.042    28.971     8.825
    21   6 C        3.123     0.001    27.816     8.637
    22   6 C        3.009     0.002    27.970     8.675
    23   6 C        3.017     0.003    27.934     8.670
    24  16 S        2.373     0.016   140.398    19.943
    25   6 C        3.010     0.015    27.671     8.629
    26   6 C        3.824    -0.056    21.566     6.608
    27   6 C        3.754    -0.107    22.600     6.779
    28   6 C        3.105     0.065    26.406     8.420
    29  17 Cl       0.947    -0.158   104.095    15.609
    30   6 C        3.105     0.069    26.317     8.406
    31  17 Cl       0.964    -0.156   104.032    15.604
    32   6 C        3.011     0.030    27.309     8.572
    33   6 C        3.123     0.003    27.775     8.631
    34   6 C        3.011    -0.001    28.034     8.685
    35   6 C        2.992     0.017    27.633     8.623
    36   6 C        3.111    -0.051    29.119     8.840
    37   6 C        3.109    -0.060    29.334     8.874
    38   6 C        2.989     0.027    27.398     8.586
    39   6 C        3.826    -0.057    21.571     6.609
    40   6 C        3.754    -0.104    22.549     6.771
    41  16 S        2.434    -0.033   142.434    20.087
    42   6 C        3.008     0.016    27.632     8.623
    43  16 S        2.390     0.008   140.742    19.967
    44   6 C        3.077    -0.057    29.334     8.880
    45   6 C        3.036     0.036    27.157     8.548
    46  16 S        2.272    -0.067   143.848    20.186
    47   6 C        3.016     0.004    27.923     8.668
    48   6 C        3.057     0.053    26.755     8.483
    49   7 N        2.748    -0.061    22.422     7.033
    50   6 C        2.945     0.059    26.680     8.472
    51   6 C        2.922    -0.041    29.016     8.834
    52   6 C        2.945    -0.042    29.032     8.837
    53   6 C        2.966     0.052    26.828     8.496
    54  16 S        2.036    -0.173   148.388    20.502
    55   6 C        3.744    -0.059    21.716     6.648
    56   6 C        2.984    -0.036    28.887     8.816
    57   6 C        2.923    -0.041    29.007     8.832
    58   6 C        2.923     0.061    26.632     8.463
    59   6 C        2.923    -0.044    29.100     8.846
    60   6 C        2.985    -0.035    28.852     8.811
    61   6 C        2.965     0.051    26.854     8.500
    62  16 S        2.035    -0.175   148.452    20.507
    63   6 C        3.745    -0.047    21.495     6.614
    64   6 C        2.943    -0.041    29.020     8.835
    65   6 C        2.922    -0.047    29.169     8.857
    66   6 C        3.179     0.004    27.522     8.565
    67  16 S        2.276    -0.030   142.275    20.075
    68   6 C        3.002     0.012    27.742     8.640
    69   6 C        3.052     0.058    26.657     8.468
    70   7 N        2.749    -0.034    21.907     6.951
    71   6 C        2.932     0.060    26.660     8.468
    72   6 C        2.923    -0.039    28.966     8.826
    73   6 C        2.986    -0.037    28.900     8.818
    74   6 C        2.966     0.049    26.889     8.506
    75  16 S        2.037    -0.161   147.833    20.464
    76   6 C        3.744    -0.055    21.629     6.634
    77   6 C        2.943    -0.043    29.075     8.844
    78   6 C        2.922    -0.043    29.060     8.840
    79   6 C        2.924     0.058    26.702     8.474
    80   6 C        2.922    -0.045    29.116     8.849
    81   6 C        2.974    -0.041    29.014     8.836
    82   6 C        2.966     0.048    26.914     8.510
    83  16 S        2.029    -0.179   148.623    20.519
    84   6 C        3.744    -0.052    21.580     6.627
    85   6 C        2.947    -0.038    28.951     8.825
    86   6 C        2.924    -0.047    29.170     8.857
    87   6 C        3.166     0.004    27.580     8.582
    88  16 S        2.290    -0.059   143.498    20.162
    89   6 C        3.003    -0.011    28.284     8.724
    90   6 C        3.347     0.069    23.901     7.712
    91   6 C        3.348     0.073    23.811     7.696
    92   7 N        1.854    -0.299    28.605     7.927
    93  16 S        2.669     0.421   125.076    18.823
    94   7 N        1.852    -0.307    28.811     7.955
    95   6 C        2.958    -0.013    28.346     8.733
    96   6 C        3.338     0.085    23.747     7.711
    97   7 N        1.855    -0.291    28.391     7.897
    98  16 S        2.673     0.439   124.421    18.774
    99   7 N        1.866    -0.300    28.615     7.929
   100   6 C        3.357     0.072    23.646     7.644
   101   6 C        2.904     0.002    27.987     8.674
   102   6 C        3.008    -0.027    28.663     8.782
   103   6 C        2.866     0.239    23.010     7.863
   104   8 O        0.856    -0.445    22.606     6.375
   105   6 C        3.038    -0.015    28.354     8.734
   106   6 C        2.913    -0.019    28.472     8.750
   107   6 C        2.989     0.017    27.623     8.621
   108   6 C        2.919    -0.053    29.314     8.879
   109   6 C        2.775     0.164    24.447     8.098
   110   9 F        0.787    -0.217    11.407     3.990
   111   6 C        2.775     0.165    24.429     8.095
   112   9 F        0.787    -0.215    11.392     3.987
   113   6 C        2.920    -0.052    29.281     8.874
   114   6 C        2.988     0.020    27.561     8.612
   115   6 C        2.915    -0.029    28.719     8.788
   116   6 C        3.024     0.012    27.726     8.637
   117   6 C        3.019     0.038    27.127     8.544
   118   6 C        2.947     0.009    27.807     8.649
   119   6 C        1.939     0.131    27.874     8.526
   120   7 N        0.911    -0.266    26.897     7.501
   121   6 C        1.940     0.133    27.828     8.519
   122   7 N        0.911    -0.269    26.955     7.509
   123   1 H        0.925     0.079     1.989     2.206
   124   1 H        0.926     0.076     2.016     2.220
   125   1 H        0.925     0.061     2.192     2.315
   126   1 H        0.925     0.072     2.064     2.247
   127   1 H        0.925     0.072     2.061     2.245
   128   1 H        0.926     0.082     1.957     2.188
   129   1 H        0.926     0.067     2.115     2.274
   130   1 H        0.924     0.065     2.138     2.286
   131   1 H        0.924     0.063     2.159     2.298
   132   1 H        0.925     0.053     2.284     2.363
   133   1 H        0.925     0.047     2.355     2.400
   134   1 H        0.925     0.051     2.301     2.372
   135   1 H        0.926     0.043     2.406     2.425
   136   1 H        0.926     0.049     2.333     2.388
   137   1 H        0.924     0.050     2.320     2.382
   138   1 H        0.924     0.047     2.357     2.401
   139   1 H        0.925     0.049     2.330     2.387
   140   1 H        0.925     0.041     2.434     2.440
   141   1 H        0.925     0.042     2.416     2.431
   142   1 H        0.926     0.063     2.165     2.301
   143   1 H        0.926     0.047     2.357     2.401
   144   1 H        0.926     0.052     2.294     2.368
   145   1 H        0.925     0.071     2.076     2.253
   146   1 H        0.925     0.067     2.117     2.276
   147   1 H        0.925     0.065     2.143     2.289
   148   1 H        0.926     0.052     2.292     2.367
   149   1 H        0.926     0.043     2.409     2.427
   150   1 H        0.926     0.046     2.376     2.410
   151   1 H        0.926     0.050     2.325     2.384
   152   1 H        0.925     0.061     2.189     2.313
   153   1 H        0.925     0.068     2.105     2.269
   154   1 H        0.925     0.059     2.209     2.324
   155   1 H        0.926     0.043     2.406     2.426
   156   1 H        0.926     0.033     2.541     2.493
   157   1 H        0.926     0.053     2.285     2.364
   158   1 H        0.926     0.056     2.244     2.342
   159   1 H        0.925     0.071     2.078     2.254
   160   1 H        0.925     0.066     2.126     2.280
   161   1 H        0.925     0.064     2.149     2.293
   162   1 H        0.926     0.052     2.297     2.370
   163   1 H        0.926     0.045     2.380     2.412
   164   1 H        0.926     0.051     2.308     2.376
   165   1 H        0.926     0.056     2.245     2.343
   166   1 H        0.925     0.070     2.090     2.261
   167   1 H        0.925     0.065     2.140     2.288
   168   1 H        0.925     0.066     2.128     2.281
   169   1 H        0.926     0.063     2.161     2.299
   170   1 H        0.926     0.040     2.452     2.449
   171   1 H        0.925     0.080     1.982     2.201
   172   1 H        0.926     0.066     2.132     2.283
   173   1 H        0.926     0.085     1.932     2.174
   174   1 H        0.926     0.089     1.888     2.149
   175   1 H        0.926     0.070     2.087     2.259

 Mol. C6AA /au·bohr⁶  :     631630.075443
 Mol. C8AA /au·bohr⁸  :   18678823.168102
 Mol. α(0) /au        :       1276.288129


Wiberg/Mayer (AO) data.
largest (>0.10) Wiberg bond orders for each atom

 ---------------------------------------------------------------------------
     #   Z sym  total        # sym  WBO       # sym  WBO       # sym  WBO
 ---------------------------------------------------------------------------
     1   6 C    3.937 --     2 C    1.526    19 C    1.265   123 H    0.937
     2   6 C    3.948 --     1 C    1.526    13 C    1.134     3 C    1.051
     3   6 C    3.913 --     4 O    1.716     2 C    1.051     5 C    1.027
     4   8 O    2.090 --     3 C    1.716    43 S    0.104
     5   6 C    3.974 --     6 C    1.418    12 C    1.291     3 C    1.027
     6   6 C    3.980 --     5 C    1.418     7 C    1.397   124 H    0.962
     7   6 C    3.965 --     6 C    1.397     9 C    1.346     8 C    1.036
     8   6 C    3.988 --     7 C    1.036   125 H    0.984   126 H    0.963
                           127 H    0.961
     9   6 C    3.870 --    11 C    1.402     7 C    1.346    10 F    0.960
    10   9 F    1.088 --     9 C    0.960
    11   6 C    3.974 --     9 C    1.402    12 C    1.394   128 H    0.956
    12   6 C    3.981 --    11 C    1.394     5 C    1.291    13 C    1.088
    13   6 C    3.968 --    14 C    1.485     2 C    1.134    12 C    1.088
    14   6 C    3.957 --    13 C    1.485    17 C    1.099    15 C    1.096
    15   6 C    3.943 --    16 N    2.760    14 C    1.096
    16   7 N    2.964 --    15 C    2.760
    17   6 C    3.943 --    18 N    2.747    14 C    1.099
    18   7 N    2.960 --    17 C    2.747
    19   6 C    3.938 --    20 C    1.423     1 C    1.265    43 S    1.098
    20   6 C    3.956 --    19 C    1.423    21 C    1.307   129 H    0.957
                            43 S    0.104
    21   6 C    3.964 --    20 C    1.307    22 C    1.233    42 C    1.224
    22   6 C    3.944 --    32 C    1.404    21 C    1.233    23 C    1.074
    23   6 C    3.947 --    30 C    1.510    24 S    1.126    22 C    1.074
    24  16 S    2.603 --    25 C    1.158    23 C    1.126
    25   6 C    3.939 --    28 C    1.538    24 S    1.158    26 C    1.027
    26   6 C    3.987 --    25 C    1.027    27 C    0.992   131 H    0.968
                           130 H    0.964
    27   6 C    3.990 --    26 C    0.992   133 H    0.988   134 H    0.987
                           132 H    0.983
    28   6 C    3.905 --    25 C    1.538    30 C    1.222    29 Cl   0.977
    29  17 Cl   1.126 --    28 C    0.977
    30   6 C    3.897 --    23 C    1.510    28 C    1.222    31 Cl   0.978
    31  17 Cl   1.135 --    30 C    0.978
    32   6 C    3.940 --    22 C    1.404    33 C    1.219    46 S    1.096
    33   6 C    3.960 --    44 C    1.271    34 C    1.256    32 C    1.219
    34   6 C    3.945 --    42 C    1.360    33 C    1.256    35 C    1.106
    35   6 C    3.944 --    36 C    1.526    41 S    1.129    34 C    1.106
    36   6 C    3.973 --    35 C    1.526    37 C    1.295   135 H    0.962
    37   6 C    3.979 --    38 C    1.572    36 C    1.295   136 H    0.962
    38   6 C    3.928 --    37 C    1.572    41 S    1.167    39 C    1.026
    39   6 C    3.995 --    38 C    1.026    40 C    0.999   138 H    0.970
                           137 H    0.965
    40   6 C    3.992 --    39 C    0.999   140 H    0.988   139 H    0.986
                           141 H    0.986
    41  16 S    2.606 --    38 C    1.167    35 C    1.129
    42   6 C    3.954 --    34 C    1.360    21 C    1.224    43 S    1.134
    43  16 S    2.672 --    42 C    1.134    19 C    1.098     4 O    0.104
                            20 C    0.104
    44   6 C    3.927 --    45 C    1.477    33 C    1.271   142 H    0.948
    45   6 C    3.920 --    44 C    1.477    47 C    1.207    46 S    1.090
    46  16 S    2.524 --    32 C    1.096    45 C    1.090
    47   6 C    3.890 --    48 C    1.380    45 C    1.207    88 S    1.078
    48   6 C    3.935 --    47 C    1.380    66 C    1.226    49 N    1.099
    49   7 N    3.475 --    48 C    1.099    58 C    1.063    50 C    1.024
    50   6 C    3.960 --    51 C    1.376    57 C    1.356    49 N    1.024
    51   6 C    3.981 --    52 C    1.450    50 C    1.376   143 H    0.966
                            56 C    0.101
    52   6 C    3.988 --    51 C    1.450    53 C    1.387   144 H    0.964
    53   6 C    3.954 --    52 C    1.387    56 C    1.368    54 S    1.052
    54  16 S    2.256 --    53 C    1.052    55 C    1.008
    55   6 C    3.972 --    54 S    1.008   146 H    0.980   147 H    0.980
                           145 H    0.977
    56   6 C    3.989 --    57 C    1.476    53 C    1.368   148 H    0.967
                            51 C    0.101
    57   6 C    3.983 --    56 C    1.476    50 C    1.356   149 H    0.967
    58   6 C    3.959 --    65 C    1.361    59 C    1.338    49 N    1.063
    59   6 C    3.979 --    60 C    1.486    58 C    1.338   150 H    0.966
    60   6 C    3.988 --    59 C    1.486    61 C    1.359   151 H    0.967
    61   6 C    3.948 --    64 C    1.386    60 C    1.359    62 S    1.053
    62  16 S    2.252 --    61 C    1.053    63 C    1.009
    63   6 C    3.974 --    62 S    1.009   154 H    0.981   152 H    0.981
                           153 H    0.977
    64   6 C    3.988 --    65 C    1.452    61 C    1.386   155 H    0.965
    65   6 C    3.981 --    64 C    1.452    58 C    1.361   156 H    0.966
    66   6 C    3.914 --    87 C    1.365    48 C    1.226    67 S    1.111
    67  16 S    2.583 --    66 C    1.111    68 C    1.097
    68   6 C    3.916 --    69 C    1.317    89 C    1.233    67 S    1.097
    69   6 C    3.924 --    68 C    1.317    87 C    1.236    70 N    1.137
    70   7 N    3.516 --    69 C    1.137    79 C    1.047    71 C    1.046
    71   6 C    3.956 --    78 C    1.367    72 C    1.342    70 N    1.046
    72   6 C    3.979 --    73 C    1.478    71 C    1.342   157 H    0.965
    73   6 C    3.986 --    72 C    1.478    74 C    1.363   158 H    0.966
    74   6 C    3.946 --    77 C    1.381    73 C    1.363    75 S    1.060
    75  16 S    2.263 --    74 C    1.060    76 C    1.009
    76   6 C    3.972 --    75 S    1.009   160 H    0.980   161 H    0.980
                           159 H    0.976
    77   6 C    3.986 --    78 C    1.457    74 C    1.381   162 H    0.963
    78   6 C    3.971 --    77 C    1.457    71 C    1.367   163 H    0.966
    79   6 C    3.960 --    86 C    1.360    80 C    1.358    70 N    1.047
    80   6 C    3.977 --    81 C    1.468    79 C    1.358   164 H    0.965
    81   6 C    3.988 --    80 C    1.468    82 C    1.375   165 H    0.967
    82   6 C    3.955 --    85 C    1.376    81 C    1.375    83 S    1.050
    83  16 S    2.242 --    82 C    1.050    84 C    1.004
    84   6 C    3.968 --    83 S    1.004   167 H    0.982   168 H    0.978
                           166 H    0.973
    85   6 C    3.986 --    86 C    1.467    82 C    1.376   169 H    0.959
    86   6 C    3.984 --    85 C    1.467    79 C    1.360   170 H    0.966
    87   6 C    3.929 --    66 C    1.365    69 C    1.236    88 S    1.104
    88  16 S    2.531 --    87 C    1.104    47 C    1.078
    89   6 C    3.941 --    68 C    1.233   100 C    1.217    90 C    1.210
    90   6 C    3.968 --    94 N    1.378    89 C    1.210    91 C    1.152
    91   6 C    3.963 --    92 N    1.395    95 C    1.197    90 C    1.152
    92   7 N    3.063 --    93 S    1.412    91 C    1.395    94 N    0.151
    93  16 S    3.150 --    94 N    1.426    92 N    1.412
    94   7 N    3.048 --    93 S    1.426    90 C    1.378    92 N    0.151
    95   6 C    3.945 --   101 C    1.278    96 C    1.209    91 C    1.197
    96   6 C    3.962 --    97 N    1.393    95 C    1.209   100 C    1.145
    97   7 N    3.067 --    98 S    1.419    96 C    1.393    99 N    0.147
    98  16 S    3.133 --    97 N    1.419    99 N    1.418
    99   7 N    3.076 --    98 S    1.418   100 C    1.381    97 N    0.147
   100   6 C    3.967 --    99 N    1.381    89 C    1.217    96 C    1.145
   101   6 C    3.940 --   102 C    1.477    95 C    1.278   171 H    0.942
   102   6 C    3.937 --   101 C    1.477   117 C    1.156   103 C    1.063
   103   6 C    3.910 --   104 O    1.693   102 C    1.063   105 C    1.019
   104   8 O    1.982 --   103 C    1.693
   105   6 C    3.978 --   106 C    1.527   116 C    1.204   103 C    1.019
   106   6 C    3.974 --   105 C    1.527   107 C    1.266   172 H    0.962
   107   6 C    3.981 --   108 C    1.289   106 C    1.266   114 C    1.243
   108   6 C    3.975 --   109 C    1.494   107 C    1.289   173 H    0.961
                           113 C    0.107
   109   6 C    3.874 --   108 C    1.494   111 C    1.251   110 F    0.966
   110   9 F    1.096 --   109 C    0.966
   111   6 C    3.877 --   113 C    1.495   109 C    1.251   112 F    0.967
   112   9 F    1.098 --   111 C    0.967
   113   6 C    3.973 --   111 C    1.495   114 C    1.287   174 H    0.960
                           108 C    0.107
   114   6 C    3.983 --   113 C    1.287   115 C    1.271   107 C    1.243
   115   6 C    3.967 --   116 C    1.508   114 C    1.271   175 H    0.957
   116   6 C    3.981 --   115 C    1.508   105 C    1.204   117 C    1.082
   117   6 C    3.971 --   118 C    1.468   102 C    1.156   116 C    1.082
   118   6 C    3.932 --   117 C    1.468   121 C    1.104   119 C    1.100
   119   6 C    3.943 --   120 N    2.752   118 C    1.100
   120   7 N    2.955 --   119 C    2.752
   121   6 C    3.942 --   122 N    2.751   118 C    1.104
   122   7 N    2.957 --   121 C    2.751
   123   1 H    0.993 --     1 C    0.937
   124   1 H    0.994 --     6 C    0.962
   125   1 H    0.996 --     8 C    0.984
   126   1 H    0.992 --     8 C    0.963
   127   1 H    0.992 --     8 C    0.961
   128   1 H    0.992 --    11 C    0.956
   129   1 H    0.995 --    20 C    0.957
   130   1 H    0.995 --    26 C    0.964
   131   1 H    0.995 --    26 C    0.968
   132   1 H    0.996 --    27 C    0.983
   133   1 H    0.998 --    27 C    0.988
   134   1 H    0.997 --    27 C    0.987
   135   1 H    0.998 --    36 C    0.962
   136   1 H    0.997 --    37 C    0.962
   137   1 H    0.996 --    39 C    0.965
   138   1 H    0.997 --    39 C    0.970
   139   1 H    0.998 --    40 C    0.986
   140   1 H    0.998 --    40 C    0.988
   141   1 H    0.997 --    40 C    0.986
   142   1 H    0.995 --    44 C    0.948
   143   1 H    0.998 --    51 C    0.966
   144   1 H    0.997 --    52 C    0.964
   145   1 H    0.995 --    55 C    0.977
   146   1 H    0.995 --    55 C    0.980
   147   1 H    0.996 --    55 C    0.980
   148   1 H    0.997 --    56 C    0.967
   149   1 H    0.998 --    57 C    0.967
   150   1 H    0.997 --    59 C    0.966
   151   1 H    0.997 --    60 C    0.967
   152   1 H    0.996 --    63 C    0.981
   153   1 H    0.995 --    63 C    0.977
   154   1 H    0.996 --    63 C    0.981
   155   1 H    0.998 --    64 C    0.965
   156   1 H    0.999 --    65 C    0.966
   157   1 H    0.997 --    72 C    0.965
   158   1 H    0.996 --    73 C    0.966
   159   1 H    0.995 --    76 C    0.976
   160   1 H    0.995 --    76 C    0.980
   161   1 H    0.995 --    76 C    0.980
   162   1 H    0.997 --    77 C    0.963
   163   1 H    0.998 --    78 C    0.966
   164   1 H    0.997 --    80 C    0.965
   165   1 H    0.996 --    81 C    0.967
   166   1 H    0.994 --    84 C    0.973
   167   1 H    0.995 --    84 C    0.982
   168   1 H    0.995 --    84 C    0.978
   169   1 H    0.995 --    85 C    0.959
   170   1 H    0.998 --    86 C    0.966
   171   1 H    0.990 --   101 C    0.942
   172   1 H    0.995 --   106 C    0.962
   173   1 H    0.992 --   108 C    0.961
   174   1 H    0.992 --   113 C    0.960
   175   1 H    0.994 --   115 C    0.957
 ---------------------------------------------------------------------------

Topologies differ in bond orders
Writing corrected topology to xtbtopo.mol

molecular dipole:
                 x           y           z       tot (Debye)
 q only:        2.579       2.932       1.312
   full:        2.002       3.099       1.338       9.975
molecular quadrupole (traceless):
                xx          xy          yy          xz          yz          zz
 q only:      -49.068      16.888     144.231    -180.862     -86.151     -95.163
  q+dip:      -63.297      26.749     148.242    -214.047     -69.268     -84.945
   full:      -62.124      27.581     147.818    -220.402     -67.750     -85.693


           -------------------------------------------------
          | TOTAL ENERGY             -325.883332533687 Eh   |
          | GRADIENT NORM               0.023418981560 Eh/α |
          | HOMO-LUMO GAP               0.255103178486 eV   |
           -------------------------------------------------

------------------------------------------------------------------------
 * finished run on 2022/02/10 at 20:17:25.190     
------------------------------------------------------------------------
 total:
 * wall-time:     0 d,  0 h,  0 min,  0.986 sec
 *  cpu-time:     0 d,  0 h,  0 min,  7.767 sec
 * ratio c/w:     7.876 speedup
 SCF:
 * wall-time:     0 d,  0 h,  0 min,  0.897 sec
 *  cpu-time:     0 d,  0 h,  0 min,  7.137 sec
 * ratio c/w:     7.956 speedup

