      -----------------------------------------------------------      
     |                   =====================                   |     
     |                           x T B                           |     
     |                   =====================                   |     
     |                         S. Grimme                         |     
     |          Mulliken Center for Theoretical Chemistry        |     
     |                    University of Bonn                     |     
      -----------------------------------------------------------      

   * xtb version 6.4.1 (unknown) compiled by 'oda6@login1.crc.pitt.edu' on 2021-06-25

   xtb is free software: you can redistribute it and/or modify it under
   the terms of the GNU Lesser General Public License as published by
   the Free Software Foundation, either version 3 of the License, or
   (at your option) any later version.
   
   xtb is distributed in the hope that it will be useful,
   but WITHOUT ANY WARRANTY; without even the implied warranty of
   MERCHANTABILITY or FITNESS FOR A PARTICULAR PURPOSE.  See the
   GNU Lesser General Public License for more details.
   
   Cite this work as:
   * C. Bannwarth, E. Caldeweyher, S. Ehlert, A. Hansen, P. Pracht,
     J. Seibert, S. Spicher, S. Grimme, WIREs Comput. Mol. Sci., 2020, 11,
     e01493. DOI: 10.1002/wcms.1493
   
   for GFN2-xTB:
   * C. Bannwarth, S. Ehlert and S. Grimme., J. Chem. Theory Comput., 2019,
     15, 1652-1671. DOI: 10.1021/acs.jctc.8b01176
   for GFN1-xTB:
   * S. Grimme, C. Bannwarth, P. Shushkov, J. Chem. Theory Comput., 2017,
     13, 1989-2009. DOI: 10.1021/acs.jctc.7b00118
   for GFN0-xTB:
   * P. Pracht, E. Caldeweyher, S. Ehlert, S. Grimme, ChemRxiv, 2019, preprint.
     DOI: 10.26434/chemrxiv.8326202.v1
   for GFN-FF:
   * S. Spicher and S. Grimme, Angew. Chem. Int. Ed., 2020, 59, 15665-15673.
     DOI: 10.1002/anie.202004239
   
   for DFT-D4:
   * E. Caldeweyher, C. Bannwarth and S. Grimme, J. Chem. Phys., 2017,
     147, 034112. DOI: 10.1063/1.4993215
   * E. Caldeweyher, S. Ehlert, A. Hansen, H. Neugebauer, S. Spicher,
     C. Bannwarth and S. Grimme, J. Chem. Phys., 2019, 150, 154122.
     DOI: 10.1063/1.5090222
   * E. Caldeweyher, J.-M. Mewes, S. Ehlert and S. Grimme, Phys. Chem. Chem. Phys.
     2020, 22, 8499-8512. DOI: 10.1039/D0CP00502A
   
   for sTDA-xTB:
   * S. Grimme and C. Bannwarth, J. Chem. Phys., 2016, 145, 054103.
     DOI: 10.1063/1.4959605
   
   in the mass-spec context:
   * V. Asgeirsson, C. Bauer and S. Grimme, Chem. Sci., 2017, 8, 4879.
     DOI: 10.1039/c7sc00601b
   * J. Koopman and S. Grimme, ACS Omega 2019, 4, 12, 15120-15133.
     DOI: 10.1021/acsomega.9b02011
   
   for metadynamics refer to:
   * S. Grimme, J. Chem. Theory Comput., 2019, 155, 2847-2862
     DOI: 10.1021/acs.jctc.9b00143
   
   for SPH calculations refer to:
   * S. Spicher and S. Grimme, J. Chem. Theory Comput., 2021, 17, 1701-1714
     DOI: 10.1021/acs.jctc.0c01306
   
   with help from (in alphabetical order)
   P. Atkinson, C. Bannwarth, F. Bohle, G. Brandenburg, E. Caldeweyher
   M. Checinski, S. Dohm, S. Ehlert, S. Ehrlich, I. Gerasimov, J. Koopman
   C. Lavigne, S. Lehtola, F. März, M. Müller, F. Musil, H. Neugebauer
   J. Pisarek, C. Plett, P. Pracht, J. Seibert, P. Shushkov, S. Spicher
   M. Stahn, M. Steiner, T. Strunk, J. Stückrath, T. Rose, and J. Unsleber
   
 * started run on 2022/02/11 at 23:26:45.652     

           -------------------------------------------------
          |                Calculation Setup                |
           -------------------------------------------------

          program call               : /ihome/ghutchison/oda6/xtb/xtb-641/bin/xtb ../../GFN2_output/33_158_130_28_9.mol --sp --alpb hexane
          hostname                   : smp-n25
          coordinate file            : ../../GFN2_output/33_158_130_28_9.mol
          omp threads                :                     8
          number of atoms            :                   228
          number of electrons        :                   718
          charge                     :                     0
          spin                       :                   0.0
          first test random number   :      0.68863648573593

   ID    Z sym.   atoms
    1    6 C      1-3, 5-7, 9, 11-15, 17, 19-26, 28, 29, 31-37, 39, 40, 42,
                  44, 45, 47, 48, 50-53, 55-61, 63-66, 68, 69, 71-74, 76-82,
                  84-87, 89, 90, 92-106, 108, 109, 111-125, 127-129, 131-136,
                  138-144, 146
    2    8 O      4, 130
    3   17 Cl     8, 10
    4    7 N      16, 18, 49, 70, 91, 110, 145, 147
    5   16 S      27, 30, 38, 41, 43, 46, 54, 62, 67, 75, 83, 88, 107, 126
    6    9 F      137
    7    1 H      148-228

           -------------------------------------------------
          |                 G F N 2 - x T B                 |
           -------------------------------------------------

        Reference                      10.1021/acs.jctc.8b01176
      * Hamiltonian:
        H0-scaling (s, p, d)           1.850000    2.230000    2.230000
        zeta-weighting                 0.500000
      * Dispersion:
        s8                             2.700000
        a1                             0.520000
        a2                             5.000000
        s9                             5.000000
      * Repulsion:
        kExp                           1.500000    1.000000
        rExp                           1.000000
      * Coulomb:
        alpha                          2.000000
        third order                    shell-resolved
        anisotropic                    true
        a3                             3.000000
        a5                             4.000000
        cn-shift                       1.200000
        cn-exp                         4.000000
        max-rad                        5.000000

      * Solvation model:               ALPB
        Solvent                        hexane
        Parameter file                 internal GFN2-xTB/ALPB
        Dielectric constant                1.8800E+00
        Reference state                gsolv [1 M gas/solution]
        Free energy shift                  4.8134E-03 Eh       3.0204E+00 kcal/mol
        Temperature                        2.9815E+02 K
        Density                            6.6000E-01 kg/L
        Solvent mass                       8.6180E+01 g/mol
        Interaction kernel             P16
        Born radius scaling (c1)           1.1040E+00
        Born radii integrator          GBOBC
        Born offset                        0.0000E+00 a0       0.0000E+00 AA
        H-bond correction              false
        Ion screening                  false
        Surface tension                    1.0000E-05 Eh       1.5569E+01 dyn/cm
        Grid points                               230 per atom

          ...................................................
          :                      SETUP                      :
          :.................................................:
          :  # basis functions                 765          :
          :  # atomic orbitals                 749          :
          :  # shells                          391          :
          :  # electrons                       718          :
          :  max. iterations                   250          :
          :  Hamiltonian                  GFN2-xTB          :
          :  restarted?                      false          :
          :  GBSA solvation                   true          :
          :  PC potential                    false          :
          :  electronic temp.          300.0000000     K    :
          :  accuracy                    1.0000000          :
          :  -> integral cutoff          0.2500000E+02      :
          :  -> integral neglect         0.1000000E-07      :
          :  -> SCF convergence          0.1000000E-05 Eh   :
          :  -> wf. convergence          0.1000000E-03 e    :
          :  Broyden damping             0.4000000          :
          ...................................................

 iter      E             dE          RMSdq      gap      omega  full diag
   1   -395.0870432 -0.395087E+03  0.465E+00    0.79       0.0  T
   2   -395.3151673 -0.228124E+00  0.268E+00    0.68       1.0  T
   3   -395.1016434  0.213524E+00  0.128E+00    0.11       1.0  T
   4   -395.3605391 -0.258896E+00  0.512E-01    0.62       1.0  T
   5   -395.3939886 -0.334495E-01  0.187E-01    0.36       1.0  T
   6   -395.3959377 -0.194904E-02  0.841E-02    0.31       1.0  T
   7   -395.3965093 -0.571623E-03  0.395E-02    0.28       1.0  T
   8   -395.3966145 -0.105171E-03  0.251E-02    0.30       1.0  T
   9   -395.3966594 -0.449652E-04  0.155E-02    0.30       1.0  T
  10   -395.3966717 -0.122757E-04  0.963E-03    0.30       1.0  T
  11   -395.3966774 -0.571266E-05  0.656E-03    0.30       1.0  T
  12   -395.3966799 -0.244661E-05  0.440E-03    0.30       1.5  T
  13   -395.3966815 -0.163578E-05  0.227E-03    0.30       2.9  T
  14   -395.3966819 -0.424761E-06  0.132E-03    0.30       5.0  T
  15   -395.3966821 -0.119861E-06  0.751E-04    0.30       8.8  T
  16   -395.3966821 -0.322325E-07  0.387E-04    0.30      17.1  T

   *** convergence criteria satisfied after 16 iterations ***

         #    Occupation            Energy/Eh            Energy/eV
      -------------------------------------------------------------
         1        2.0000           -1.0807655             -29.4091
       ...           ...                  ...                  ...
       353        2.0000           -0.3713509             -10.1050
       354        2.0000           -0.3662364              -9.9658
       355        2.0000           -0.3636734              -9.8961
       356        2.0000           -0.3608373              -9.8189
       357        2.0000           -0.3579979              -9.7416
       358        2.0000           -0.3543405              -9.6421
       359        1.9940           -0.3496488              -9.5144 (HOMO)
       360        0.0060           -0.3386130              -9.2141 (LUMO)
       361        0.0000           -0.3307852              -9.0011
       362                         -0.3253486              -8.8532
       363                         -0.3124375              -8.5019
       364                         -0.2976176              -8.0986
       ...                                ...                  ...
       749                          1.1617462              31.6127
      -------------------------------------------------------------
                  HL-Gap            0.0110358 Eh            0.3003 eV
             Fermi-level           -0.3441276 Eh           -9.3642 eV

 SCC (total)                   0 d,  0 h,  0 min,  3.025 sec
 SCC setup                      ...        0 min,  0.011 sec (  0.369%)
 Dispersion                     ...        0 min,  0.015 sec (  0.500%)
 classical contributions        ...        0 min,  0.001 sec (  0.019%)
 integral evaluation            ...        0 min,  0.069 sec (  2.288%)
 iterations                     ...        0 min,  2.736 sec ( 90.448%)
 molecular gradient             ...        0 min,  0.185 sec (  6.130%)
 printout                       ...        0 min,  0.007 sec (  0.242%)

         :::::::::::::::::::::::::::::::::::::::::::::::::::::
         ::                     SUMMARY                     ::
         :::::::::::::::::::::::::::::::::::::::::::::::::::::
         :: total energy            -389.201425724935 Eh    ::
         :: total w/o Gsasa/hb      -389.069186404651 Eh    ::
         :: gradient norm              0.021538751850 Eh/a0 ::
         :: HOMO-LUMO gap              0.300298947044 eV    ::
         ::.................................................::
         :: SCC energy              -395.396682087876 Eh    ::
         :: -> isotropic ES            0.160802774872 Eh    ::
         :: -> anisotropic ES          0.017830441341 Eh    ::
         :: -> anisotropic XC          0.228182683422 Eh    ::
         :: -> dispersion             -0.428720549940 Eh    ::
         :: -> Gsolv                  -0.158288045256 Eh    ::
         ::    -> Gelec               -0.026048724973 Eh    ::
         ::    -> Gsasa               -0.137052676103 Eh    ::
         ::    -> Ghb                  0.000000000000 Eh    ::
         ::    -> Gshift               0.004813355820 Eh    ::
         :: repulsion energy           6.179187185137 Eh    ::
         :: add. restraining           0.000000000000 Eh    ::
         :: total charge               0.000000000181 e     ::
         :::::::::::::::::::::::::::::::::::::::::::::::::::::

           -------------------------------------------------
          |                Property Printout                |
           -------------------------------------------------

    * Orbital Energies and Occupations

         #    Occupation            Energy/Eh            Energy/eV
      -------------------------------------------------------------
         1        2.0000           -1.0807655             -29.4091
       ...           ...                  ...                  ...
       347        2.0000           -0.3939446             -10.7198
       348        2.0000           -0.3881239             -10.5614
       349        2.0000           -0.3869445             -10.5293
       350        2.0000           -0.3859924             -10.5034
       351        2.0000           -0.3787592             -10.3066
       352        2.0000           -0.3727478             -10.1430
       353        2.0000           -0.3713509             -10.1050
       354        2.0000           -0.3662364              -9.9658
       355        2.0000           -0.3636734              -9.8961
       356        2.0000           -0.3608373              -9.8189
       357        2.0000           -0.3579979              -9.7416
       358        2.0000           -0.3543405              -9.6421
       359        1.9940           -0.3496488              -9.5144 (HOMO)
       360        0.0060           -0.3386130              -9.2141 (LUMO)
       361        0.0000           -0.3307852              -9.0011
       362                         -0.3253486              -8.8532
       363                         -0.3124375              -8.5019
       364                         -0.2976176              -8.0986
       365                         -0.2905851              -7.9072
       366                         -0.2804908              -7.6325
       367                         -0.2743507              -7.4655
       368                         -0.2672039              -7.2710
       369                         -0.2569815              -6.9928
       370                         -0.2526221              -6.8742
       ...                                ...                  ...
       749                          1.1617462              31.6127
      -------------------------------------------------------------
                  HL-Gap            0.0110358 Eh            0.3003 eV
             Fermi-level           -0.3441276 Eh           -9.3642 eV

     #   Z          covCN         q      C6AA      α(0)
     1   6 C        2.940    -0.006    28.169     8.705
     2   6 C        3.007    -0.034    28.835     8.808
     3   6 C        2.866     0.237    23.046     7.869
     4   8 O        0.856    -0.417    22.025     6.292
     5   6 C        3.046    -0.016    28.359     8.734
     6   6 C        2.951    -0.023    28.590     8.770
     7   6 C        2.922     0.098    25.831     8.335
     8  17 Cl       0.995    -0.130   103.236    15.544
     9   6 C        2.920     0.101    25.771     8.325
    10  17 Cl       1.000    -0.128   103.143    15.538
    11   6 C        2.956    -0.035    28.880     8.815
    12   6 C        3.031     0.013    27.696     8.632
    13   6 C        3.021     0.038    27.116     8.542
    14   6 C        2.947     0.015    27.680     8.629
    15   6 C        1.939     0.132    27.868     8.525
    16   7 N        0.911    -0.256    26.643     7.465
    17   6 C        1.940     0.133    27.830     8.519
    18   7 N        0.911    -0.255    26.631     7.464
    19   6 C        2.981     0.041    27.073     8.535
    20   6 C        3.066    -0.029    28.648     8.777
    21   6 C        3.136    -0.001    27.816     8.633
    22   6 C        3.016     0.000    27.996     8.679
    23   6 C        2.988     0.018    27.590     8.616
    24   6 C        3.106    -0.048    29.046     8.831
    25   6 C        3.124    -0.059    29.276     8.860
    26   6 C        2.983     0.060    26.652     8.468
    27  16 S        2.110    -0.131   146.555    20.375
    28   6 C        3.793    -0.001    20.607     6.464
    29   6 C        3.792    -0.108    22.577     6.767
    30  16 S        2.576    -0.051   143.155    20.137
    31   6 C        3.005     0.025    27.441     8.593
    32   6 C        3.142     0.003    27.716     8.615
    33   6 C        3.011    -0.002    28.055     8.688
    34   6 C        2.990     0.019    27.577     8.614
    35   6 C        3.111    -0.050    29.070     8.833
    36   6 C        3.109    -0.062    29.400     8.884
    37   6 C        2.983     0.062    26.605     8.461
    38  16 S        2.144    -0.163   147.952    20.472
    39   6 C        3.793    -0.001    20.612     6.465
    40   6 C        3.778    -0.107    22.560     6.767
    41  16 S        2.466    -0.044   142.855    20.116
    42   6 C        3.008     0.032    27.266     8.565
    43  16 S        2.287    -0.043   142.817    20.114
    44   6 C        3.070    -0.052    29.224     8.864
    45   6 C        3.011     0.034    27.211     8.557
    46  16 S        2.465    -0.074   144.126    20.206
    47   6 C        3.039    -0.009    28.207     8.711
    48   6 C        3.047     0.051    26.814     8.493
    49   7 N        2.747    -0.066    22.511     7.047
    50   6 C        2.927     0.059    26.667     8.469
    51   6 C        2.929    -0.046    29.130     8.851
    52   6 C        2.943    -0.043    29.067     8.842
    53   6 C        2.966     0.048    26.930     8.512
    54  16 S        2.033    -0.186   148.933    20.540
    55   6 C        3.745    -0.050    21.534     6.620
    56   6 C        2.983    -0.037    28.905     8.819
    57   6 C        2.922    -0.044    29.086     8.844
    58   6 C        2.923     0.058    26.700     8.474
    59   6 C        2.922    -0.046    29.135     8.852
    60   6 C        2.989    -0.040    28.983     8.831
    61   6 C        2.966     0.045    26.984     8.521
    62  16 S        2.037    -0.196   149.386    20.571
    63   6 C        3.745    -0.044    21.435     6.604
    64   6 C        2.941    -0.044    29.098     8.847
    65   6 C        2.924    -0.043    29.064     8.841
    66   6 C        3.173    -0.004    27.736     8.602
    67  16 S        2.285    -0.047   143.016    20.128
    68   6 C        3.036     0.010    27.764     8.643
    69   6 C        3.071     0.045    26.916     8.507
    70   7 N        2.766    -0.080    22.804     7.092
    71   6 C        2.921     0.062    26.605     8.459
    72   6 C        2.924    -0.054    29.330     8.881
    73   6 C        2.942    -0.046    29.132     8.852
    74   6 C        2.965     0.044    27.018     8.526
    75  16 S        2.031    -0.198   149.494    20.579
    76   6 C        3.744    -0.049    21.519     6.617
    77   6 C        2.982    -0.039    28.970     8.829
    78   6 C        2.923    -0.049    29.224     8.865
    79   6 C        2.924     0.062    26.604     8.459
    80   6 C        2.925    -0.050    29.247     8.869
    81   6 C        2.941    -0.045    29.111     8.849
    82   6 C        2.966     0.044    27.005     8.524
    83  16 S        2.032    -0.195   149.359    20.569
    84   6 C        3.744    -0.049    21.516     6.617
    85   6 C        2.984    -0.038    28.927     8.822
    86   6 C        2.922    -0.045    29.127     8.850
    87   6 C        3.175     0.006    27.486     8.562
    88  16 S        2.236    -0.048   143.037    20.129
    89   6 C        3.022     0.007    27.836     8.654
    90   6 C        3.061     0.050    26.815     8.492
    91   7 N        2.749    -0.070    22.599     7.060
    92   6 C        2.934     0.062    26.615     8.461
    93   6 C        2.922    -0.048    29.185     8.859
    94   6 C        2.926    -0.040    28.985     8.829
    95   6 C        2.966     0.010    27.786     8.646
    96   6 C        3.758    -0.111    22.666     6.788
    97   6 C        2.925    -0.041    29.008     8.832
    98   6 C        2.921    -0.052    29.288     8.875
    99   6 C        2.934     0.061    26.637     8.464
   100   6 C        2.920    -0.042    29.048     8.838
   101   6 C        2.926    -0.035    28.870     8.812
   102   6 C        2.966     0.016    27.646     8.624
   103   6 C        3.758    -0.111    22.677     6.789
   104   6 C        2.925    -0.039    28.979     8.828
   105   6 C        2.922    -0.048    29.195     8.861
   106   6 C        3.165     0.000    27.675     8.597
   107  16 S        2.304    -0.015   141.667    20.033
   108   6 C        2.985     0.009    27.805     8.650
   109   6 C        3.037     0.061    26.589     8.458
   110   7 N        2.748    -0.038    21.978     6.963
   111   6 C        2.926     0.057    26.731     8.479
   112   6 C        2.920    -0.038    28.945     8.823
   113   6 C        2.926    -0.036    28.891     8.815
   114   6 C        2.966     0.015    27.666     8.628
   115   6 C        3.758    -0.113    22.714     6.795
   116   6 C        2.925    -0.041    29.015     8.833
   117   6 C        2.919    -0.049    29.205     8.862
   118   6 C        2.933     0.059    26.667     8.469
   119   6 C        2.922    -0.041    29.016     8.833
   120   6 C        2.925    -0.036    28.904     8.817
   121   6 C        2.965     0.019    27.583     8.615
   122   6 C        3.758    -0.114    22.725     6.796
   123   6 C        2.926    -0.037    28.920     8.819
   124   6 C        2.920    -0.041    29.015     8.833
   125   6 C        3.149    -0.002    27.794     8.624
   126  16 S        2.276    -0.063   143.652    20.172
   127   6 C        2.922    -0.016    28.414     8.741
   128   6 C        3.010    -0.043    29.050     8.841
   129   6 C        2.871     0.230    23.191     7.894
   130   8 O        0.957    -0.411    21.851     6.270
   131   6 C        3.038    -0.020    28.472     8.752
   132   6 C        2.913    -0.018    28.456     8.747
   133   6 C        2.987     0.014    27.684     8.631
   134   6 C        2.922    -0.030    28.749     8.793
   135   6 C        2.913    -0.043    29.080     8.843
   136   6 C        2.782     0.178    24.175     8.053
   137   9 F        0.787    -0.240    11.652     4.032
   138   6 C        2.917    -0.052    29.283     8.874
   139   6 C        2.991     0.022    27.513     8.604
   140   6 C        2.915    -0.032    28.789     8.799
   141   6 C        3.028     0.006    27.851     8.656
   142   6 C        3.019     0.031    27.278     8.567
   143   6 C        2.947    -0.002    28.084     8.692
   144   6 C        1.947     0.131    27.878     8.527
   145   7 N        0.911    -0.280    27.226     7.547
   146   6 C        1.945     0.127    27.964     8.540
   147   7 N        0.911    -0.286    27.368     7.566
   148   1 H        0.925     0.078     2.004     2.214
   149   1 H        0.926     0.097     1.817     2.108
   150   1 H        0.926     0.094     1.840     2.121
   151   1 H        0.926     0.077     2.008     2.216
   152   1 H        0.926     0.069     2.097     2.265
   153   1 H        0.926     0.054     2.272     2.357
   154   1 H        0.925     0.062     2.176     2.307
   155   1 H        0.925     0.062     2.177     2.307
   156   1 H        0.925     0.056     2.246     2.344
   157   1 H        0.925     0.056     2.251     2.346
   158   1 H        0.925     0.056     2.247     2.344
   159   1 H        0.926     0.058     2.227     2.334
   160   1 H        0.926     0.048     2.342     2.393
   161   1 H        0.925     0.058     2.228     2.334
   162   1 H        0.925     0.064     2.151     2.293
   163   1 H        0.925     0.050     2.324     2.384
   164   1 H        0.925     0.051     2.304     2.373
   165   1 H        0.925     0.054     2.274     2.358
   166   1 H        0.926     0.061     2.183     2.311
   167   1 H        0.926     0.040     2.446     2.446
   168   1 H        0.926     0.046     2.371     2.408
   169   1 H        0.925     0.062     2.177     2.307
   170   1 H        0.925     0.068     2.107     2.270
   171   1 H        0.925     0.059     2.210     2.325
   172   1 H        0.926     0.050     2.320     2.382
   173   1 H        0.926     0.041     2.432     2.439
   174   1 H        0.926     0.038     2.469     2.457
   175   1 H        0.926     0.046     2.376     2.410
   176   1 H        0.925     0.065     2.136     2.285
   177   1 H        0.925     0.065     2.144     2.290
   178   1 H        0.925     0.062     2.170     2.304
   179   1 H        0.926     0.045     2.385     2.415
   180   1 H        0.926     0.044     2.392     2.419
   181   1 H        0.926     0.031     2.570     2.507
   182   1 H        0.926     0.041     2.437     2.441
   183   1 H        0.925     0.068     2.112     2.272
   184   1 H        0.925     0.058     2.220     2.330
   185   1 H        0.925     0.062     2.180     2.309
   186   1 H        0.926     0.047     2.359     2.402
   187   1 H        0.926     0.046     2.369     2.407
   188   1 H        0.926     0.031     2.574     2.509
   189   1 H        0.926     0.041     2.439     2.442
   190   1 H        0.925     0.067     2.114     2.274
   191   1 H        0.925     0.059     2.205     2.322
   192   1 H        0.925     0.060     2.204     2.321
   193   1 H        0.926     0.050     2.325     2.385
   194   1 H        0.926     0.045     2.380     2.412
   195   1 H        0.926     0.041     2.440     2.442
   196   1 H        0.926     0.041     2.440     2.443
   197   1 H        0.925     0.051     2.313     2.378
   198   1 H        0.925     0.048     2.351     2.398
   199   1 H        0.925     0.043     2.408     2.427
   200   1 H        0.926     0.034     2.536     2.490
   201   1 H        0.926     0.024     2.674     2.557
   202   1 H        0.926     0.040     2.449     2.447
   203   1 H        0.926     0.041     2.437     2.441
   204   1 H        0.925     0.046     2.375     2.410
   205   1 H        0.925     0.044     2.393     2.419
   206   1 H        0.924     0.055     2.264     2.353
   207   1 H        0.926     0.035     2.511     2.478
   208   1 H        0.925     0.027     2.632     2.537
   209   1 H        0.926     0.056     2.248     2.345
   210   1 H        0.926     0.049     2.329     2.386
   211   1 H        0.925     0.047     2.363     2.404
   212   1 H        0.924     0.053     2.282     2.362
   213   1 H        0.925     0.054     2.274     2.358
   214   1 H        0.926     0.039     2.462     2.454
   215   1 H        0.926     0.032     2.554     2.499
   216   1 H        0.926     0.036     2.497     2.471
   217   1 H        0.926     0.040     2.451     2.448
   218   1 H        0.925     0.057     2.237     2.339
   219   1 H        0.925     0.053     2.287     2.365
   220   1 H        0.925     0.050     2.316     2.380
   221   1 H        0.926     0.046     2.367     2.406
   222   1 H        0.926     0.043     2.404     2.425
   223   1 H        0.925     0.068     2.112     2.273
   224   1 H        0.926     0.063     2.159     2.298
   225   1 H        0.926     0.062     2.180     2.309
   226   1 H        0.926     0.069     2.093     2.262
   227   1 H        0.926     0.073     2.054     2.241
   228   1 H        0.926     0.063     2.168     2.302

 Mol. C6AA /au·bohr⁶  :     980937.062227
 Mol. C8AA /au·bohr⁸  :   28616902.824155
 Mol. α(0) /au        :       1597.927494


Wiberg/Mayer (AO) data.
largest (>0.10) Wiberg bond orders for each atom

 ---------------------------------------------------------------------------
     #   Z sym  total        # sym  WBO       # sym  WBO       # sym  WBO
 ---------------------------------------------------------------------------
     1   6 C    3.930 --     2 C    1.508    19 C    1.262   148 H    0.945
     2   6 C    3.948 --     1 C    1.508    13 C    1.143     3 C    1.048
     3   6 C    3.912 --     4 O    1.719     2 C    1.048     5 C    1.021
     4   8 O    2.013 --     3 C    1.719
     5   6 C    3.976 --     6 C    1.419    12 C    1.287     3 C    1.021
     6   6 C    3.973 --     5 C    1.419     7 C    1.386   149 H    0.958
     7   6 C    3.908 --     6 C    1.386     9 C    1.346     8 Cl   1.005
     8  17 Cl   1.151 --     7 C    1.005
     9   6 C    3.916 --    11 C    1.390     7 C    1.346    10 Cl   1.009
    10  17 Cl   1.158 --     9 C    1.009
    11   6 C    3.968 --    12 C    1.404     9 C    1.390   150 H    0.953
    12   6 C    3.981 --    11 C    1.404     5 C    1.287    13 C    1.084
    13   6 C    3.967 --    14 C    1.481     2 C    1.143    12 C    1.084
    14   6 C    3.942 --    13 C    1.481    17 C    1.098    15 C    1.098
    15   6 C    3.944 --    16 N    2.756    14 C    1.098
    16   7 N    2.957 --    15 C    2.756
    17   6 C    3.943 --    18 N    2.760    14 C    1.098
    18   7 N    2.962 --    17 C    2.760
    19   6 C    3.935 --    20 C    1.445     1 C    1.262    43 S    1.075
    20   6 C    3.942 --    19 C    1.445    21 C    1.297   151 H    0.950
    21   6 C    3.969 --    20 C    1.297    42 C    1.235    22 C    1.218
    22   6 C    3.945 --    31 C    1.366    21 C    1.218    23 C    1.137
    23   6 C    3.932 --    24 C    1.491    22 C    1.137    30 S    1.098
    24   6 C    3.970 --    23 C    1.491    25 C    1.327   152 H    0.949
    25   6 C    3.970 --    26 C    1.498    24 C    1.327   153 H    0.962
    26   6 C    3.902 --    25 C    1.498    30 S    1.152    27 S    1.099
    27  16 S    2.298 --    26 C    1.099    28 C    0.972
    28   6 C    3.967 --    29 C    1.026    27 S    0.972   155 H    0.971
                           154 H    0.970
    29   6 C    3.990 --    28 C    1.026   157 H    0.985   158 H    0.985
                           156 H    0.978
    30  16 S    2.602 --    26 C    1.152    23 C    1.098
    31   6 C    3.942 --    22 C    1.366    32 C    1.252    46 S    1.098
    32   6 C    3.958 --    33 C    1.262    31 C    1.252    44 C    1.229
    33   6 C    3.952 --    42 C    1.361    32 C    1.262    34 C    1.100
    34   6 C    3.942 --    35 C    1.532    41 S    1.110    33 C    1.100
    35   6 C    3.971 --    34 C    1.532    36 C    1.293   159 H    0.956
    36   6 C    3.975 --    37 C    1.530    35 C    1.293   160 H    0.960
    37   6 C    3.917 --    36 C    1.530    41 S    1.151    38 S    1.081
    38  16 S    2.287 --    37 C    1.081    39 C    0.975
    39   6 C    3.969 --    40 C    1.026    38 S    0.975   161 H    0.970
                           162 H    0.969
    40   6 C    3.992 --    39 C    1.026   165 H    0.986   163 H    0.984
                           164 H    0.978
    41  16 S    2.568 --    37 C    1.151    34 C    1.110
    42   6 C    3.943 --    33 C    1.361    21 C    1.235    43 S    1.119
    43  16 S    2.511 --    42 C    1.119    19 C    1.075
    44   6 C    3.956 --    45 C    1.567    32 C    1.229   166 H    0.953
    45   6 C    3.915 --    44 C    1.567    47 C    1.120    46 S    1.075
    46  16 S    2.528 --    31 C    1.098    45 C    1.075
    47   6 C    3.888 --    48 C    1.420    45 C    1.120    88 S    1.088
    48   6 C    3.950 --    47 C    1.420    66 C    1.214    49 N    1.100
    49   7 N    3.491 --    48 C    1.100    50 C    1.052    58 C    1.039
    50   6 C    3.962 --    51 C    1.365    57 C    1.349    49 N    1.052
    51   6 C    3.984 --    52 C    1.442    50 C    1.365   167 H    0.966
    52   6 C    3.988 --    51 C    1.442    53 C    1.392   168 H    0.964
    53   6 C    3.952 --    52 C    1.392    56 C    1.361    54 S    1.047
    54  16 S    2.249 --    53 C    1.047    55 C    1.009
    55   6 C    3.973 --    54 S    1.009   171 H    0.982   170 H    0.977
                           169 H    0.977
    56   6 C    3.988 --    57 C    1.481    53 C    1.361   172 H    0.966
    57   6 C    3.983 --    56 C    1.481    50 C    1.349   173 H    0.966
    58   6 C    3.963 --    65 C    1.373    59 C    1.358    49 N    1.039
    59   6 C    3.986 --    60 C    1.472    58 C    1.358   174 H    0.967
    60   6 C    3.989 --    59 C    1.472    61 C    1.369   175 H    0.967
                            65 C    0.101
    61   6 C    3.957 --    64 C    1.386    60 C    1.369    62 S    1.047
    62  16 S    2.253 --    61 C    1.047    63 C    1.009
    63   6 C    3.971 --    62 S    1.009   178 H    0.980   176 H    0.977
                           177 H    0.975
    64   6 C    3.988 --    65 C    1.451    61 C    1.386   179 H    0.964
    65   6 C    3.986 --    64 C    1.451    58 C    1.373   180 H    0.967
                            60 C    0.101
    66   6 C    3.922 --    87 C    1.355    48 C    1.214    67 S    1.115
    67  16 S    2.608 --    66 C    1.115    68 C    1.103
    68   6 C    3.931 --    69 C    1.413    89 C    1.203    67 S    1.103
    69   6 C    3.929 --    68 C    1.413    87 C    1.261    70 N    1.006
    70   7 N    3.457 --    71 C    1.066    79 C    1.055    69 C    1.006
    71   6 C    3.962 --    72 C    1.371    78 C    1.336    70 N    1.066
    72   6 C    3.982 --    73 C    1.442    71 C    1.371   181 H    0.965
    73   6 C    3.989 --    72 C    1.442    74 C    1.397   182 H    0.965
    74   6 C    3.952 --    73 C    1.397    77 C    1.361    75 S    1.038
    75  16 S    2.232 --    74 C    1.038    76 C    1.009
    76   6 C    3.975 --    75 S    1.009   184 H    0.982   185 H    0.981
                           183 H    0.978
    77   6 C    3.988 --    78 C    1.485    74 C    1.361   186 H    0.967
    78   6 C    3.986 --    77 C    1.485    71 C    1.336   187 H    0.960
    79   6 C    3.962 --    80 C    1.370    86 C    1.347    70 N    1.055
    80   6 C    3.984 --    81 C    1.447    79 C    1.370   188 H    0.966
                            85 C    0.101
    81   6 C    3.989 --    80 C    1.447    82 C    1.392   189 H    0.965
    82   6 C    3.952 --    81 C    1.392    85 C    1.364    83 S    1.040
    83  16 S    2.240 --    82 C    1.040    84 C    1.010
    84   6 C    3.975 --    83 S    1.010   191 H    0.982   192 H    0.981
                           190 H    0.978
    85   6 C    3.988 --    86 C    1.478    82 C    1.364   193 H    0.966
                            80 C    0.101
    86   6 C    3.986 --    85 C    1.478    79 C    1.347   194 H    0.965
    87   6 C    3.936 --    66 C    1.355    69 C    1.261    88 S    1.110
    88  16 S    2.517 --    87 C    1.110    47 C    1.088
    89   6 C    3.905 --    90 C    1.387    68 C    1.203   126 S    1.091
    90   6 C    3.949 --    89 C    1.387   106 C    1.236    91 N    1.076
    91   7 N    3.488 --    90 C    1.076    92 C    1.061    99 C    1.039
    92   6 C    3.963 --    98 C    1.364    93 C    1.347    91 N    1.061
    93   6 C    3.981 --    94 C    1.472    92 C    1.347   195 H    0.964
                            97 C    0.101
    94   6 C    3.990 --    93 C    1.472    95 C    1.391   196 H    0.968
                            98 C    0.102
    95   6 C    3.974 --    97 C    1.408    94 C    1.391    96 C    1.026
    96   6 C    3.995 --    95 C    1.026   199 H    0.986   198 H    0.973
                           197 H    0.972
    97   6 C    3.990 --    98 C    1.452    95 C    1.408   200 H    0.968
                            93 C    0.101
    98   6 C    3.983 --    97 C    1.452    92 C    1.364   201 H    0.967
                            94 C    0.102
    99   6 C    3.962 --   100 C    1.370   105 C    1.366    91 N    1.039
   100   6 C    3.983 --   101 C    1.459    99 C    1.370   202 H    0.966
                           104 C    0.104
   101   6 C    3.990 --   100 C    1.459   102 C    1.401   203 H    0.968
                           105 C    0.103
   102   6 C    3.975 --   104 C    1.402   101 C    1.401   103 C    1.027
   103   6 C    3.996 --   102 C    1.027   204 H    0.982   205 H    0.981
                           206 H    0.966
   104   6 C    3.991 --   105 C    1.456   102 C    1.402   207 H    0.969
                           100 C    0.104
   105   6 C    3.983 --   104 C    1.456    99 C    1.366   208 H    0.968
                           101 C    0.103
   106   6 C    3.942 --   125 C    1.338    90 C    1.236   107 S    1.136
   107  16 S    2.677 --   106 C    1.136   108 C    1.073   130 O    0.126
   108   6 C    3.920 --   127 C    1.379   109 C    1.244   107 S    1.073
   109   6 C    3.948 --   125 C    1.267   108 C    1.244   110 N    1.178
   110   7 N    3.542 --   109 C    1.178   118 C    1.030   111 C    1.029
   111   6 C    3.958 --   112 C    1.369   117 C    1.368   110 N    1.029
   112   6 C    3.980 --   113 C    1.454   111 C    1.369   209 H    0.965
   113   6 C    3.990 --   112 C    1.454   114 C    1.405   210 H    0.968
                           117 C    0.106
   114   6 C    3.979 --   113 C    1.405   116 C    1.398   115 C    1.028
   115   6 C    3.995 --   114 C    1.028   211 H    0.985   213 H    0.975
                           212 H    0.967
   116   6 C    3.989 --   117 C    1.460   114 C    1.398   214 H    0.968
   117   6 C    3.985 --   116 C    1.460   111 C    1.368   215 H    0.968
                           113 C    0.106
   118   6 C    3.958 --   119 C    1.370   124 C    1.366   110 N    1.030
   119   6 C    3.981 --   120 C    1.451   118 C    1.370   216 H    0.967
                           123 C    0.103
   120   6 C    3.989 --   119 C    1.451   121 C    1.406   217 H    0.968
                           124 C    0.102
   121   6 C    3.970 --   120 C    1.406   123 C    1.391   122 C    1.030
   122   6 C    3.994 --   121 C    1.030   220 H    0.983   219 H    0.973
                           218 H    0.966
   123   6 C    3.989 --   124 C    1.465   121 C    1.391   221 H    0.968
                           119 C    0.103
   124   6 C    3.973 --   123 C    1.465   118 C    1.366   222 H    0.967
                           120 C    0.102
   125   6 C    3.933 --   106 C    1.338   109 C    1.267   126 S    1.095
   126  16 S    2.588 --   125 C    1.095    89 C    1.091
   127   6 C    3.951 --   128 C    1.420   108 C    1.379   223 H    0.930
   128   6 C    3.949 --   127 C    1.420   142 C    1.173   129 C    1.085
   129   6 C    3.906 --   130 O    1.670   128 C    1.085   131 C    1.025
   130   8 O    2.062 --   129 C    1.670   107 S    0.126
   131   6 C    3.976 --   132 C    1.528   141 C    1.200   129 C    1.025
   132   6 C    3.973 --   131 C    1.528   133 C    1.266   224 H    0.963
   133   6 C    3.980 --   134 C    1.290   132 C    1.266   139 C    1.244
   134   6 C    3.979 --   135 C    1.543   133 C    1.290   225 H    0.966
                           138 C    0.111
   135   6 C    3.975 --   134 C    1.543   136 C    1.297   226 H    0.965
   136   6 C    3.870 --   138 C    1.491   135 C    1.297   137 F    0.949
   137   9 F    1.073 --   136 C    0.949
   138   6 C    3.975 --   136 C    1.491   139 C    1.292   227 H    0.962
                           134 C    0.111
   139   6 C    3.984 --   138 C    1.292   140 C    1.266   133 C    1.244
   140   6 C    3.966 --   141 C    1.513   139 C    1.266   228 H    0.957
   141   6 C    3.984 --   140 C    1.513   131 C    1.200   142 C    1.081
   142   6 C    3.971 --   143 C    1.443   128 C    1.173   141 C    1.081
   143   6 C    3.937 --   142 C    1.443   146 C    1.112   144 C    1.106
   144   6 C    3.940 --   145 N    2.743   143 C    1.106
   145   7 N    2.952 --   144 C    2.743
   146   6 C    3.942 --   147 N    2.724   143 C    1.112
   147   7 N    2.955 --   146 C    2.724
   148   1 H    0.992 --     1 C    0.945
   149   1 H    0.990 --     6 C    0.958
   150   1 H    0.991 --    11 C    0.953
   151   1 H    0.993 --    20 C    0.950
   152   1 H    0.995 --    24 C    0.949
   153   1 H    0.996 --    25 C    0.962
   154   1 H    0.995 --    28 C    0.970
   155   1 H    0.995 --    28 C    0.971
   156   1 H    0.996 --    29 C    0.978
   157   1 H    0.997 --    29 C    0.985
   158   1 H    0.997 --    29 C    0.985
   159   1 H    0.997 --    35 C    0.956
   160   1 H    0.997 --    36 C    0.960
   161   1 H    0.997 --    39 C    0.970
   162   1 H    0.996 --    39 C    0.969
   163   1 H    0.998 --    40 C    0.984
   164   1 H    0.997 --    40 C    0.978
   165   1 H    0.997 --    40 C    0.986
   166   1 H    0.995 --    44 C    0.953
   167   1 H    0.998 --    51 C    0.966
   168   1 H    0.997 --    52 C    0.964
   169   1 H    0.996 --    55 C    0.977
   170   1 H    0.995 --    55 C    0.977
   171   1 H    0.996 --    55 C    0.982
   172   1 H    0.997 --    56 C    0.966
   173   1 H    0.998 --    57 C    0.966
   174   1 H    0.998 --    59 C    0.967
   175   1 H    0.997 --    60 C    0.967
   176   1 H    0.995 --    63 C    0.977
   177   1 H    0.995 --    63 C    0.975
   178   1 H    0.995 --    63 C    0.980
   179   1 H    0.998 --    64 C    0.964
   180   1 H    0.998 --    65 C    0.967
   181   1 H    0.999 --    72 C    0.965
   182   1 H    0.998 --    73 C    0.965
   183   1 H    0.995 --    76 C    0.978
   184   1 H    0.996 --    76 C    0.982
   185   1 H    0.996 --    76 C    0.981
   186   1 H    0.997 --    77 C    0.967
   187   1 H    0.997 --    78 C    0.960
   188   1 H    0.999 --    80 C    0.966
   189   1 H    0.998 --    81 C    0.965
   190   1 H    0.995 --    84 C    0.978
   191   1 H    0.996 --    84 C    0.982
   192   1 H    0.996 --    84 C    0.981
   193   1 H    0.997 --    85 C    0.966
   194   1 H    0.998 --    86 C    0.965
   195   1 H    0.998 --    93 C    0.964
   196   1 H    0.998 --    94 C    0.968
   197   1 H    0.996 --    96 C    0.972
   198   1 H    0.996 --    96 C    0.973
   199   1 H    0.998 --    96 C    0.986
   200   1 H    0.998 --    97 C    0.968
   201   1 H    0.999 --    98 C    0.967
   202   1 H    0.998 --   100 C    0.966
   203   1 H    0.998 --   101 C    0.968
   204   1 H    0.997 --   103 C    0.982
   205   1 H    0.997 --   103 C    0.981
   206   1 H    0.995 --   103 C    0.966
   207   1 H    0.998 --   104 C    0.969
   208   1 H    0.999 --   105 C    0.968
   209   1 H    0.996 --   112 C    0.965
   210   1 H    0.997 --   113 C    0.968
   211   1 H    0.997 --   115 C    0.985
   212   1 H    0.996 --   115 C    0.967
   213   1 H    0.996 --   115 C    0.975
   214   1 H    0.998 --   116 C    0.968
   215   1 H    0.999 --   117 C    0.968
   216   1 H    0.998 --   119 C    0.967
   217   1 H    0.998 --   120 C    0.968
   218   1 H    0.995 --   122 C    0.966
   219   1 H    0.996 --   122 C    0.973
   220   1 H    0.997 --   122 C    0.983
   221   1 H    0.997 --   123 C    0.968
   222   1 H    0.998 --   124 C    0.967
   223   1 H    0.994 --   127 C    0.930
   224   1 H    0.995 --   132 C    0.963
   225   1 H    0.996 --   134 C    0.966
   226   1 H    0.994 --   135 C    0.965
   227   1 H    0.994 --   138 C    0.962
   228   1 H    0.995 --   140 C    0.957
 ---------------------------------------------------------------------------

Topologies differ in bond orders
Writing corrected topology to xtbtopo.mol

molecular dipole:
                 x           y           z       tot (Debye)
 q only:        0.026       0.448      -1.279
   full:        1.319       1.636      -0.989       5.905
molecular quadrupole (traceless):
                xx          xy          yy          xz          yz          zz
 q only:      126.392     -28.271      87.653      45.541    -179.954    -214.044
  q+dip:      109.359     -30.300      97.917      66.412    -163.408    -207.275
   full:      116.276     -40.951      95.355      66.785    -160.889    -211.631


           -------------------------------------------------
          | TOTAL ENERGY             -389.201425724935 Eh   |
          | GRADIENT NORM               0.021538751850 Eh/α |
          | HOMO-LUMO GAP               0.300298947044 eV   |
           -------------------------------------------------

------------------------------------------------------------------------
 * finished run on 2022/02/11 at 23:26:48.829     
------------------------------------------------------------------------
 total:
 * wall-time:     0 d,  0 h,  0 min,  3.177 sec
 *  cpu-time:     0 d,  0 h,  0 min, 21.990 sec
 * ratio c/w:     6.921 speedup
 SCF:
 * wall-time:     0 d,  0 h,  0 min,  3.028 sec
 *  cpu-time:     0 d,  0 h,  0 min, 21.052 sec
 * ratio c/w:     6.953 speedup

