      -----------------------------------------------------------      
     |                   =====================                   |     
     |                           x T B                           |     
     |                   =====================                   |     
     |                         S. Grimme                         |     
     |          Mulliken Center for Theoretical Chemistry        |     
     |                    University of Bonn                     |     
      -----------------------------------------------------------      

   * xtb version 6.4.1 (unknown) compiled by 'oda6@login1.crc.pitt.edu' on 2021-06-25

   xtb is free software: you can redistribute it and/or modify it under
   the terms of the GNU Lesser General Public License as published by
   the Free Software Foundation, either version 3 of the License, or
   (at your option) any later version.
   
   xtb is distributed in the hope that it will be useful,
   but WITHOUT ANY WARRANTY; without even the implied warranty of
   MERCHANTABILITY or FITNESS FOR A PARTICULAR PURPOSE.  See the
   GNU Lesser General Public License for more details.
   
   Cite this work as:
   * C. Bannwarth, E. Caldeweyher, S. Ehlert, A. Hansen, P. Pracht,
     J. Seibert, S. Spicher, S. Grimme, WIREs Comput. Mol. Sci., 2020, 11,
     e01493. DOI: 10.1002/wcms.1493
   
   for GFN2-xTB:
   * C. Bannwarth, S. Ehlert and S. Grimme., J. Chem. Theory Comput., 2019,
     15, 1652-1671. DOI: 10.1021/acs.jctc.8b01176
   for GFN1-xTB:
   * S. Grimme, C. Bannwarth, P. Shushkov, J. Chem. Theory Comput., 2017,
     13, 1989-2009. DOI: 10.1021/acs.jctc.7b00118
   for GFN0-xTB:
   * P. Pracht, E. Caldeweyher, S. Ehlert, S. Grimme, ChemRxiv, 2019, preprint.
     DOI: 10.26434/chemrxiv.8326202.v1
   for GFN-FF:
   * S. Spicher and S. Grimme, Angew. Chem. Int. Ed., 2020, 59, 15665-15673.
     DOI: 10.1002/anie.202004239
   
   for DFT-D4:
   * E. Caldeweyher, C. Bannwarth and S. Grimme, J. Chem. Phys., 2017,
     147, 034112. DOI: 10.1063/1.4993215
   * E. Caldeweyher, S. Ehlert, A. Hansen, H. Neugebauer, S. Spicher,
     C. Bannwarth and S. Grimme, J. Chem. Phys., 2019, 150, 154122.
     DOI: 10.1063/1.5090222
   * E. Caldeweyher, J.-M. Mewes, S. Ehlert and S. Grimme, Phys. Chem. Chem. Phys.
     2020, 22, 8499-8512. DOI: 10.1039/D0CP00502A
   
   for sTDA-xTB:
   * S. Grimme and C. Bannwarth, J. Chem. Phys., 2016, 145, 054103.
     DOI: 10.1063/1.4959605
   
   in the mass-spec context:
   * V. Asgeirsson, C. Bauer and S. Grimme, Chem. Sci., 2017, 8, 4879.
     DOI: 10.1039/c7sc00601b
   * J. Koopman and S. Grimme, ACS Omega 2019, 4, 12, 15120-15133.
     DOI: 10.1021/acsomega.9b02011
   
   for metadynamics refer to:
   * S. Grimme, J. Chem. Theory Comput., 2019, 155, 2847-2862
     DOI: 10.1021/acs.jctc.9b00143
   
   for SPH calculations refer to:
   * S. Spicher and S. Grimme, J. Chem. Theory Comput., 2021, 17, 1701-1714
     DOI: 10.1021/acs.jctc.0c01306
   
   with help from (in alphabetical order)
   P. Atkinson, C. Bannwarth, F. Bohle, G. Brandenburg, E. Caldeweyher
   M. Checinski, S. Dohm, S. Ehlert, S. Ehrlich, I. Gerasimov, J. Koopman
   C. Lavigne, S. Lehtola, F. März, M. Müller, F. Musil, H. Neugebauer
   J. Pisarek, C. Plett, P. Pracht, J. Seibert, P. Shushkov, S. Spicher
   M. Stahn, M. Steiner, T. Strunk, J. Stückrath, T. Rose, and J. Unsleber
   
 * started run on 2022/02/09 at 17:15:31.355     

           -------------------------------------------------
          |                Calculation Setup                |
           -------------------------------------------------

          program call               : /ihome/ghutchison/oda6/xtb/xtb-641/bin/xtb ../../GFN2_output/37_130_130_57_37.mol --sp --alpb hexane
          hostname                   : smp-n26
          coordinate file            : ../../GFN2_output/37_130_130_57_37.mol
          omp threads                :                     8
          number of atoms            :                   208
          number of electrons        :                   656
          charge                     :                     0
          spin                       :                   0.0
          first test random number   :      0.90264398871210

   ID    Z sym.   atoms
    1    6 C      1-3, 5-7, 9-15, 17, 19, 20, 22-25, 27-33, 35-38, 40, 41,
                  43-46, 48-54, 56-59, 61, 62, 64-67, 69-75, 77-80, 82, 83,
                  85-88, 90-96, 98-101, 103, 104, 107, 108, 110-113, 116-118,
                  120-122, 124-130, 132
    2    8 O      4, 8, 119, 123
    3    7 N      16, 18, 21, 42, 63, 84, 105, 106, 109, 131, 133
    4   16 S      26, 34, 39, 47, 55, 60, 68, 76, 81, 89, 97, 102
    5   17 Cl     114, 115
    6    1 H      134-208

           -------------------------------------------------
          |                 G F N 2 - x T B                 |
           -------------------------------------------------

        Reference                      10.1021/acs.jctc.8b01176
      * Hamiltonian:
        H0-scaling (s, p, d)           1.850000    2.230000    2.230000
        zeta-weighting                 0.500000
      * Dispersion:
        s8                             2.700000
        a1                             0.520000
        a2                             5.000000
        s9                             5.000000
      * Repulsion:
        kExp                           1.500000    1.000000
        rExp                           1.000000
      * Coulomb:
        alpha                          2.000000
        third order                    shell-resolved
        anisotropic                    true
        a3                             3.000000
        a5                             4.000000
        cn-shift                       1.200000
        cn-exp                         4.000000
        max-rad                        5.000000

      * Solvation model:               ALPB
        Solvent                        hexane
        Parameter file                 internal GFN2-xTB/ALPB
        Dielectric constant                1.8800E+00
        Reference state                gsolv [1 M gas/solution]
        Free energy shift                  4.8134E-03 Eh       3.0204E+00 kcal/mol
        Temperature                        2.9815E+02 K
        Density                            6.6000E-01 kg/L
        Solvent mass                       8.6180E+01 g/mol
        Interaction kernel             P16
        Born radius scaling (c1)           1.1040E+00
        Born radii integrator          GBOBC
        Born offset                        0.0000E+00 a0       0.0000E+00 AA
        H-bond correction              false
        Ion screening                  false
        Surface tension                    1.0000E-05 Eh       1.5569E+01 dyn/cm
        Grid points                               230 per atom

          ...................................................
          :                      SETUP                      :
          :.................................................:
          :  # basis functions                 691          :
          :  # atomic orbitals                 677          :
          :  # shells                          355          :
          :  # electrons                       656          :
          :  max. iterations                   250          :
          :  Hamiltonian                  GFN2-xTB          :
          :  restarted?                      false          :
          :  GBSA solvation                   true          :
          :  PC potential                    false          :
          :  electronic temp.          300.0000000     K    :
          :  accuracy                    1.0000000          :
          :  -> integral cutoff          0.2500000E+02      :
          :  -> integral neglect         0.1000000E-07      :
          :  -> SCF convergence          0.1000000E-05 Eh   :
          :  -> wf. convergence          0.1000000E-03 e    :
          :  Broyden damping             0.4000000          :
          ...................................................

 iter      E             dE          RMSdq      gap      omega  full diag
   1   -362.6513840 -0.362651E+03  0.481E+00    0.76       0.0  T
   2   -362.9352633 -0.283879E+00  0.275E+00    0.83       1.0  T
   3   -362.7724507  0.162813E+00  0.132E+00    0.33       1.0  T
   4   -362.9765898 -0.204139E+00  0.551E-01    0.44       1.0  T
   5   -363.0127149 -0.361251E-01  0.188E-01    0.38       1.0  T
   6   -363.0136988 -0.983932E-03  0.813E-02    0.42       1.0  T
   7   -363.0143134 -0.614566E-03  0.344E-02    0.42       1.0  T
   8   -363.0144058 -0.924041E-04  0.190E-02    0.42       1.0  T
   9   -363.0144213 -0.155209E-04  0.103E-02    0.42       1.0  T
  10   -363.0144274 -0.612977E-05  0.515E-03    0.42       1.3  T
  11   -363.0144291 -0.166402E-05  0.340E-03    0.42       2.0  T
  12   -363.0144295 -0.421326E-06  0.237E-03    0.42       2.9  T
  13   -363.0144299 -0.414002E-06  0.141E-03    0.42       4.9  T
  14   -363.0144301 -0.147290E-06  0.850E-04    0.42       8.2  T
  15   -363.0144301 -0.450155E-07  0.514E-04    0.42      13.5  T

   *** convergence criteria satisfied after 15 iterations ***

         #    Occupation            Energy/Eh            Energy/eV
      -------------------------------------------------------------
         1        2.0000           -1.0778932             -29.3310
       ...           ...                  ...                  ...
       322        2.0000           -0.3681527             -10.0179
       323        2.0000           -0.3666982              -9.9784
       324        2.0000           -0.3649122              -9.9298
       325        2.0000           -0.3611389              -9.8271
       326        2.0000           -0.3539367              -9.6311
       327        2.0000           -0.3523501              -9.5879
       328        1.9994           -0.3471841              -9.4474 (HOMO)
       329        0.0006           -0.3316609              -9.0250 (LUMO)
       330                         -0.3200443              -8.7088
       331                         -0.3159497              -8.5974
       332                         -0.3109154              -8.4604
       333                         -0.2903816              -7.9017
       ...                                ...                  ...
       677                          1.1607961              31.5869
      -------------------------------------------------------------
                  HL-Gap            0.0155232 Eh            0.4224 eV
             Fermi-level           -0.3394200 Eh           -9.2361 eV

 SCC (total)                   0 d,  0 h,  0 min,  0.943 sec
 SCC setup                      ...        0 min,  0.009 sec (  0.983%)
 Dispersion                     ...        0 min,  0.011 sec (  1.163%)
 classical contributions        ...        0 min,  0.000 sec (  0.050%)
 integral evaluation            ...        0 min,  0.045 sec (  4.788%)
 iterations                     ...        0 min,  0.719 sec ( 76.240%)
 molecular gradient             ...        0 min,  0.154 sec ( 16.332%)
 printout                       ...        0 min,  0.004 sec (  0.433%)

         :::::::::::::::::::::::::::::::::::::::::::::::::::::
         ::                     SUMMARY                     ::
         :::::::::::::::::::::::::::::::::::::::::::::::::::::
         :: total energy            -357.503249615966 Eh    ::
         :: total w/o Gsasa/hb      -357.394113508594 Eh    ::
         :: gradient norm              0.021730284129 Eh/a0 ::
         :: HOMO-LUMO gap              0.422406764605 eV    ::
         ::.................................................::
         :: SCC energy              -363.014430104678 Eh    ::
         :: -> isotropic ES            0.192366655207 Eh    ::
         :: -> anisotropic ES          0.014898479466 Eh    ::
         :: -> anisotropic XC          0.223264934507 Eh    ::
         :: -> dispersion             -0.415284955321 Eh    ::
         :: -> Gsolv                  -0.140205132944 Eh    ::
         ::    -> Gelec               -0.031069025572 Eh    ::
         ::    -> Gsasa               -0.113949463191 Eh    ::
         ::    -> Ghb                  0.000000000000 Eh    ::
         ::    -> Gshift               0.004813355820 Eh    ::
         :: repulsion energy           5.489839172837 Eh    ::
         :: add. restraining           0.000000000000 Eh    ::
         :: total charge               0.000000000007 e     ::
         :::::::::::::::::::::::::::::::::::::::::::::::::::::

           -------------------------------------------------
          |                Property Printout                |
           -------------------------------------------------

    * Orbital Energies and Occupations

         #    Occupation            Energy/Eh            Energy/eV
      -------------------------------------------------------------
         1        2.0000           -1.0778932             -29.3310
       ...           ...                  ...                  ...
       316        2.0000           -0.3867688             -10.5245
       317        2.0000           -0.3864113             -10.5148
       318        2.0000           -0.3849452             -10.4749
       319        2.0000           -0.3799674             -10.3394
       320        2.0000           -0.3736268             -10.1669
       321        2.0000           -0.3701064             -10.0711
       322        2.0000           -0.3681527             -10.0179
       323        2.0000           -0.3666982              -9.9784
       324        2.0000           -0.3649122              -9.9298
       325        2.0000           -0.3611389              -9.8271
       326        2.0000           -0.3539367              -9.6311
       327        2.0000           -0.3523501              -9.5879
       328        1.9994           -0.3471841              -9.4474 (HOMO)
       329        0.0006           -0.3316609              -9.0250 (LUMO)
       330                         -0.3200443              -8.7088
       331                         -0.3159497              -8.5974
       332                         -0.3109154              -8.4604
       333                         -0.2903816              -7.9017
       334                         -0.2812940              -7.6544
       335                         -0.2632335              -7.1629
       336                         -0.2536778              -6.9029
       337                         -0.2523323              -6.8663
       338                         -0.2508485              -6.8259
       339                         -0.2487169              -6.7679
       ...                                ...                  ...
       677                          1.1607961              31.5869
      -------------------------------------------------------------
                  HL-Gap            0.0155232 Eh            0.4224 eV
             Fermi-level           -0.3394200 Eh           -9.2361 eV

     #   Z          covCN         q      C6AA      α(0)
     1   6 C        2.970    -0.014    28.348     8.733
     2   6 C        3.015    -0.044    29.061     8.843
     3   6 C        2.874     0.232    23.142     7.886
     4   8 O        0.856    -0.416    22.011     6.290
     5   6 C        3.046    -0.019    28.448     8.748
     6   6 C        2.914    -0.039    28.973     8.826
     7   6 C        2.867     0.159    24.552     8.122
     8   8 O        1.706    -0.266    18.409     5.793
     9   6 C        3.645     0.030    20.411     6.494
    10   6 C        2.919    -0.057    29.415     8.894
    11   6 C        2.914    -0.026    28.649     8.777
    12   6 C        3.038    -0.006    28.140     8.701
    13   6 C        3.024     0.035    27.200     8.555
    14   6 C        2.948    -0.009    28.234     8.715
    15   6 C        1.932     0.129    27.921     8.533
    16   7 N        0.911    -0.289    27.460     7.579
    17   6 C        1.934     0.132    27.871     8.526
    18   7 N        0.911    -0.300    27.731     7.616
    19   6 C        2.987     0.007    27.867     8.659
    20   6 C        3.033     0.062    26.587     8.458
    21   7 N        2.747    -0.051    22.226     7.002
    22   6 C        2.940     0.058    26.692     8.473
    23   6 C        2.922    -0.037    28.927     8.820
    24   6 C        2.972    -0.035    28.879     8.815
    25   6 C        2.967     0.055    26.763     8.486
    26  16 S        2.029    -0.189   149.059    20.549
    27   6 C        3.744    -0.054    21.622     6.633
    28   6 C        2.951    -0.035    28.882     8.815
    29   6 C        2.922    -0.037    28.921     8.819
    30   6 C        2.924     0.060    26.653     8.466
    31   6 C        2.922    -0.046    29.139     8.852
    32   6 C        2.944    -0.044    29.086     8.845
    33   6 C        2.966     0.045    26.980     8.520
    34  16 S        2.036    -0.167   148.116    20.484
    35   6 C        3.745    -0.052    21.588     6.628
    36   6 C        2.984    -0.039    28.968     8.829
    37   6 C        2.924    -0.043    29.069     8.842
    38   6 C        3.178     0.004    27.508     8.563
    39  16 S        2.486    -0.067   143.824    20.184
    40   6 C        3.064     0.006    27.822     8.650
    41   6 C        3.056     0.047    26.888     8.504
    42   7 N        2.747    -0.067    22.546     7.052
    43   6 C        2.918     0.060    26.663     8.468
    44   6 C        2.923    -0.046    29.137     8.852
    45   6 C        2.983    -0.038    28.935     8.824
    46   6 C        2.965     0.046    26.974     8.519
    47  16 S        2.033    -0.186   148.945    20.541
    48   6 C        3.744    -0.048    21.515     6.617
    49   6 C        2.942    -0.045    29.106     8.848
    50   6 C        2.924    -0.051    29.274     8.873
    51   6 C        2.931     0.059    26.676     8.470
    52   6 C        2.923    -0.046    29.154     8.855
    53   6 C        2.943    -0.044    29.104     8.848
    54   6 C        2.966     0.046    26.968     8.518
    55  16 S        2.033    -0.193   149.272    20.563
    56   6 C        3.745    -0.049    21.522     6.618
    57   6 C        2.983    -0.038    28.938     8.824
    58   6 C        2.927    -0.044    29.089     8.845
    59   6 C        3.187     0.015    27.207     8.510
    60  16 S        2.303    -0.047   143.021    20.128
    61   6 C        3.057    -0.002    28.010     8.679
    62   6 C        3.049     0.050    26.843     8.497
    63   7 N        2.747    -0.063    22.469     7.040
    64   6 C        2.934     0.057    26.730     8.479
    65   6 C        2.923    -0.045    29.122     8.850
    66   6 C        2.943    -0.045    29.120     8.850
    67   6 C        2.966     0.049    26.890     8.506
    68  16 S        2.036    -0.178   148.606    20.517
    69   6 C        3.744    -0.052    21.578     6.626
    70   6 C        2.985    -0.036    28.888     8.816
    71   6 C        2.925    -0.041    29.028     8.836
    72   6 C        2.919     0.059    26.669     8.469
    73   6 C        2.926    -0.047    29.179     8.859
    74   6 C        2.943    -0.044    29.082     8.845
    75   6 C        2.965     0.046    26.957     8.516
    76  16 S        2.032    -0.188   149.048    20.548
    77   6 C        3.744    -0.050    21.539     6.620
    78   6 C        2.982    -0.040    28.986     8.831
    79   6 C        2.921    -0.050    29.231     8.866
    80   6 C        3.185     0.004    27.475     8.553
    81  16 S        2.260    -0.031   142.320    20.079
    82   6 C        3.005     0.001    27.984     8.678
    83   6 C        3.055     0.055    26.720     8.477
    84   7 N        2.749    -0.055    22.305     7.014
    85   6 C        2.924     0.055    26.767     8.484
    86   6 C        2.924    -0.043    29.079     8.843
    87   6 C        2.943    -0.044    29.086     8.845
    88   6 C        2.965     0.044    27.005     8.524
    89  16 S        2.034    -0.192   149.197    20.558
    90   6 C        3.744    -0.049    21.524     6.618
    91   6 C        2.985    -0.043    29.053     8.842
    92   6 C        2.922    -0.049    29.205     8.862
    93   6 C        2.929     0.063    26.599     8.458
    94   6 C        2.922    -0.042    29.040     8.837
    95   6 C        2.972    -0.035    28.869     8.813
    96   6 C        2.967     0.048    26.919     8.510
    97  16 S        2.026    -0.199   149.502    20.579
    98   6 C        3.744    -0.045    21.456     6.608
    99   6 C        2.948    -0.040    28.984     8.830
   100   6 C        2.927    -0.043    29.069     8.842
   101   6 C        3.177     0.005    27.505     8.564
   102  16 S        2.481    -0.067   143.843    20.186
   103   6 C        3.034     0.004    27.904     8.664
   104   6 C        3.178     0.059    26.275     8.369
   105   7 N        1.987    -0.251    27.343     7.755
   106   7 N        3.276     0.248    17.232     6.165
   107   6 C        3.746    -0.023    21.060     6.546
   108   6 C        3.754    -0.115    22.754     6.802
   109   7 N        1.996    -0.267    27.727     7.810
   110   6 C        3.154     0.063    26.300     8.387
   111   6 C        2.994    -0.002    28.060     8.689
   112   6 C        2.932     0.084    26.119     8.382
   113   6 C        2.937     0.075    26.321     8.414
   114  17 Cl       1.037    -0.145   103.702    15.580
   115  17 Cl       1.041    -0.126   103.112    15.535
   116   6 C        2.906     0.002    27.986     8.674
   117   6 C        3.010    -0.018    28.446     8.749
   118   6 C        2.872     0.241    22.981     7.858
   119   8 O        0.856    -0.397    21.621     6.234
   120   6 C        3.040    -0.013    28.290     8.724
   121   6 C        2.913    -0.037    28.911     8.817
   122   6 C        2.866     0.159    24.569     8.125
   123   8 O        1.706    -0.265    18.390     5.790
   124   6 C        3.644     0.029    20.424     6.496
   125   6 C        2.918    -0.058    29.436     8.897
   126   6 C        2.913    -0.026    28.644     8.776
   127   6 C        3.037     0.002    27.938     8.670
   128   6 C        3.019     0.050    26.861     8.502
   129   6 C        2.948     0.016    27.642     8.623
   130   6 C        1.931     0.135    27.786     8.513
   131   7 N        0.911    -0.275    27.108     7.530
   132   6 C        1.932     0.134    27.807     8.516
   133   7 N        0.911    -0.278    27.176     7.540
   134   1 H        0.925     0.077     2.009     2.217
   135   1 H        0.926     0.071     2.079     2.255
   136   1 H        0.924     0.058     2.227     2.334
   137   1 H        0.925     0.075     2.033     2.230
   138   1 H        0.924     0.053     2.283     2.363
   139   1 H        0.926     0.061     2.187     2.313
   140   1 H        0.926     0.058     2.221     2.331
   141   1 H        0.926     0.047     2.356     2.400
   142   1 H        0.926     0.058     2.223     2.332
   143   1 H        0.925     0.073     2.057     2.243
   144   1 H        0.925     0.068     2.111     2.272
   145   1 H        0.925     0.063     2.170     2.303
   146   1 H        0.926     0.064     2.151     2.294
   147   1 H        0.926     0.045     2.384     2.414
   148   1 H        0.926     0.043     2.411     2.428
   149   1 H        0.926     0.051     2.310     2.377
   150   1 H        0.925     0.067     2.119     2.276
   151   1 H        0.925     0.074     2.042     2.235
   152   1 H        0.925     0.064     2.150     2.293
   153   1 H        0.926     0.053     2.279     2.361
   154   1 H        0.926     0.047     2.360     2.402
   155   1 H        0.926     0.043     2.409     2.427
   156   1 H        0.926     0.048     2.349     2.397
   157   1 H        0.925     0.060     2.201     2.320
   158   1 H        0.925     0.069     2.095     2.263
   159   1 H        0.925     0.060     2.197     2.318
   160   1 H        0.926     0.042     2.419     2.432
   161   1 H        0.926     0.034     2.534     2.490
   162   1 H        0.926     0.046     2.377     2.411
   163   1 H        0.926     0.046     2.366     2.406
   164   1 H        0.925     0.060     2.205     2.322
   165   1 H        0.925     0.068     2.106     2.270
   166   1 H        0.925     0.063     2.170     2.303
   167   1 H        0.926     0.052     2.291     2.367
   168   1 H        0.926     0.037     2.483     2.464
   169   1 H        0.926     0.043     2.413     2.429
   170   1 H        0.926     0.047     2.356     2.400
   171   1 H        0.925     0.070     2.083     2.257
   172   1 H        0.925     0.063     2.161     2.299
   173   1 H        0.925     0.061     2.187     2.312
   174   1 H        0.926     0.055     2.255     2.348
   175   1 H        0.926     0.037     2.483     2.464
   176   1 H        0.926     0.042     2.427     2.436
   177   1 H        0.926     0.044     2.392     2.419
   178   1 H        0.925     0.070     2.089     2.260
   179   1 H        0.925     0.066     2.131     2.283
   180   1 H        0.925     0.060     2.198     2.318
   181   1 H        0.926     0.046     2.375     2.410
   182   1 H        0.926     0.035     2.512     2.479
   183   1 H        0.926     0.049     2.333     2.388
   184   1 H        0.926     0.053     2.287     2.365
   185   1 H        0.925     0.081     1.966     2.193
   186   1 H        0.925     0.061     2.190     2.314
   187   1 H        0.925     0.065     2.139     2.287
   188   1 H        0.926     0.041     2.434     2.439
   189   1 H        0.926     0.040     2.445     2.445
   190   1 H        0.926     0.047     2.352     2.398
   191   1 H        0.926     0.058     2.219     2.329
   192   1 H        0.925     0.068     2.113     2.273
   193   1 H        0.925     0.063     2.162     2.300
   194   1 H        0.925     0.056     2.247     2.344
   195   1 H        0.926     0.045     2.380     2.412
   196   1 H        0.926     0.040     2.449     2.447
   197   1 H        0.924     0.092     1.863     2.134
   198   1 H        0.924     0.086     1.915     2.164
   199   1 H        0.925     0.064     2.154     2.295
   200   1 H        0.925     0.068     2.107     2.270
   201   1 H        0.925     0.057     2.237     2.339
   202   1 H        0.925     0.091     1.871     2.139
   203   1 H        0.926     0.078     1.999     2.211
   204   1 H        0.924     0.055     2.258     2.350
   205   1 H        0.924     0.055     2.258     2.350
   206   1 H        0.925     0.077     2.009     2.217
   207   1 H        0.926     0.063     2.166     2.301
   208   1 H        0.926     0.064     2.148     2.292

 Mol. C6AA /au·bohr⁶  :     792340.195325
 Mol. C8AA /au·bohr⁸  :   22842192.969414
 Mol. α(0) /au        :       1430.261508


Wiberg/Mayer (AO) data.
largest (>0.10) Wiberg bond orders for each atom

 ---------------------------------------------------------------------------
     #   Z sym  total        # sym  WBO       # sym  WBO       # sym  WBO
 ---------------------------------------------------------------------------
     1   6 C    3.947 --     2 C    1.470    19 C    1.317   134 H    0.949
     2   6 C    3.955 --     1 C    1.470    13 C    1.167     3 C    1.037
     3   6 C    3.918 --     4 O    1.739     2 C    1.037     5 C    1.012
     4   8 O    2.005 --     3 C    1.739
     5   6 C    3.977 --     6 C    1.463    12 C    1.271     3 C    1.012
     6   6 C    3.979 --     5 C    1.463     7 C    1.312   135 H    0.962
     7   6 C    3.919 --    10 C    1.360     6 C    1.312     8 O    1.093
     8   8 O    2.243 --     7 C    1.093     9 C    0.971
     9   6 C    3.930 --   137 H    0.978   138 H    0.975   136 H    0.975
                             8 O    0.971
    10   6 C    3.975 --    11 C    1.437     7 C    1.360   139 H    0.964
    11   6 C    3.977 --    10 C    1.437    12 C    1.399   140 H    0.963
    12   6 C    3.983 --    11 C    1.399     5 C    1.271    13 C    1.092
    13   6 C    3.974 --    14 C    1.413     2 C    1.167    12 C    1.092
    14   6 C    3.955 --    13 C    1.413    17 C    1.120    15 C    1.116
    15   6 C    3.942 --    16 N    2.738    14 C    1.116
    16   7 N    2.951 --    15 C    2.738
    17   6 C    3.941 --    18 N    2.726    14 C    1.120
    18   7 N    2.954 --    17 C    2.726
    19   6 C    3.917 --     1 C    1.317    20 C    1.307    60 S    1.060
    20   6 C    3.947 --    19 C    1.307    38 C    1.236    21 N    1.151
    21   7 N    3.536 --    20 C    1.151    30 C    1.068    22 C    1.000
    22   6 C    3.958 --    29 C    1.379    23 C    1.371    21 N    1.000
    23   6 C    3.983 --    24 C    1.466    22 C    1.371   141 H    0.966
                            28 C    0.101
    24   6 C    3.988 --    23 C    1.466    25 C    1.380   142 H    0.967
                            29 C    0.101
    25   6 C    3.959 --    28 C    1.391    24 C    1.380    26 S    1.044
    26  16 S    2.219 --    25 C    1.044    27 C    1.000
    27   6 C    3.967 --    26 S    1.000   145 H    0.982   144 H    0.978
                           143 H    0.971
    28   6 C    3.987 --    29 C    1.451    25 C    1.391   146 H    0.961
                            23 C    0.101
    29   6 C    3.985 --    28 C    1.451    22 C    1.379   147 H    0.962
                            24 C    0.101
    30   6 C    3.960 --    31 C    1.358    37 C    1.331    21 N    1.068
    31   6 C    3.984 --    32 C    1.450    30 C    1.358   148 H    0.965
    32   6 C    3.987 --    31 C    1.450    33 C    1.386   149 H    0.964
    33   6 C    3.951 --    32 C    1.386    36 C    1.352    34 S    1.060
    34  16 S    2.268 --    33 C    1.060    35 C    1.008
    35   6 C    3.970 --    34 S    1.008   152 H    0.981   150 H    0.977
                           151 H    0.976
    36   6 C    3.988 --    37 C    1.493    33 C    1.352   153 H    0.966
    37   6 C    3.984 --    36 C    1.493    30 C    1.331   154 H    0.964
    38   6 C    3.928 --    59 C    1.365    20 C    1.236    39 S    1.101
    39  16 S    2.557 --    38 C    1.101    40 C    1.085
    40   6 C    3.898 --    41 C    1.412    61 C    1.161    39 S    1.085
    41   6 C    3.949 --    40 C    1.412    59 C    1.220    42 N    1.078
    42   7 N    3.493 --    41 C    1.078    43 C    1.063    51 C    1.052
    43   6 C    3.962 --    50 C    1.368    44 C    1.343    42 N    1.063
    44   6 C    3.985 --    45 C    1.481    43 C    1.343   155 H    0.962
    45   6 C    3.990 --    44 C    1.481    46 C    1.359   156 H    0.967
                            50 C    0.100
    46   6 C    3.951 --    49 C    1.389    45 C    1.359    47 S    1.046
    47  16 S    2.246 --    46 C    1.046    48 C    1.009
    48   6 C    3.974 --    47 S    1.009   159 H    0.981   157 H    0.981
                           158 H    0.977
    49   6 C    3.989 --    50 C    1.446    46 C    1.389   160 H    0.965
    50   6 C    3.984 --    49 C    1.446    43 C    1.368   161 H    0.966
                            45 C    0.100
    51   6 C    3.961 --    52 C    1.368    58 C    1.344    42 N    1.052
    52   6 C    3.982 --    53 C    1.452    51 C    1.368   162 H    0.964
                            57 C    0.100
    53   6 C    3.988 --    52 C    1.452    54 C    1.386   163 H    0.965
    54   6 C    3.950 --    53 C    1.386    57 C    1.370    55 S    1.044
    55  16 S    2.239 --    54 C    1.044    56 C    1.008
    56   6 C    3.973 --    55 S    1.008   164 H    0.982   166 H    0.981
                           165 H    0.978
    57   6 C    3.989 --    58 C    1.472    54 C    1.370   167 H    0.965
                            52 C    0.100
    58   6 C    3.985 --    57 C    1.472    51 C    1.344   168 H    0.962
    59   6 C    3.935 --    38 C    1.365    41 C    1.220    60 S    1.125
    60  16 S    2.525 --    59 C    1.125    19 C    1.060
    61   6 C    3.902 --    62 C    1.413    40 C    1.161   102 S    1.075
    62   6 C    3.945 --    61 C    1.413    80 C    1.205    63 N    1.097
    63   7 N    3.498 --    62 C    1.097    72 C    1.063    64 C    1.038
    64   6 C    3.959 --    65 C    1.373    71 C    1.348    63 N    1.038
    65   6 C    3.981 --    66 C    1.451    64 C    1.373   169 H    0.965
                            70 C    0.100
    66   6 C    3.987 --    65 C    1.451    67 C    1.384   170 H    0.964
    67   6 C    3.951 --    66 C    1.384    70 C    1.367    68 S    1.053
    68  16 S    2.253 --    67 C    1.053    69 C    1.008
    69   6 C    3.973 --    68 S    1.008   173 H    0.981   172 H    0.981
                           171 H    0.977
    70   6 C    3.988 --    71 C    1.474    67 C    1.367   174 H    0.966
                            65 C    0.100
    71   6 C    3.985 --    70 C    1.474    64 C    1.348   175 H    0.962
    72   6 C    3.962 --    73 C    1.360    79 C    1.351    63 N    1.063
    73   6 C    3.983 --    74 C    1.457    72 C    1.360   176 H    0.963
                            78 C    0.101
    74   6 C    3.989 --    73 C    1.457    75 C    1.380   177 H    0.964
    75   6 C    3.950 --    74 C    1.380    78 C    1.368    76 S    1.048
    76  16 S    2.249 --    75 C    1.048    77 C    1.009
    77   6 C    3.972 --    76 S    1.009   180 H    0.981   179 H    0.978
                           178 H    0.977
    78   6 C    3.989 --    79 C    1.471    75 C    1.368   181 H    0.968
                            73 C    0.101
    79   6 C    3.984 --    78 C    1.471    72 C    1.351   182 H    0.966
    80   6 C    3.931 --   101 C    1.384    62 C    1.205    81 S    1.119
    81  16 S    2.558 --    80 C    1.119    82 C    1.099
    82   6 C    3.902 --    83 C    1.410   103 C    1.117    81 S    1.099
    83   6 C    3.950 --    82 C    1.410   101 C    1.210    84 N    1.109
    84   7 N    3.505 --    83 C    1.109    93 C    1.052    85 C    1.040
    85   6 C    3.962 --    86 C    1.378    92 C    1.352    84 N    1.040
    86   6 C    3.983 --    87 C    1.447    85 C    1.378   183 H    0.965
    87   6 C    3.987 --    86 C    1.447    88 C    1.388   184 H    0.963
    88   6 C    3.959 --    87 C    1.388    91 C    1.362    89 S    1.052
    89  16 S    2.259 --    88 C    1.052    90 C    1.006
    90   6 C    3.967 --    89 S    1.006   186 H    0.982   187 H    0.976
                           185 H    0.972
    91   6 C    3.990 --    92 C    1.480    88 C    1.362   188 H    0.968
    92   6 C    3.987 --    91 C    1.480    85 C    1.352   189 H    0.967
    93   6 C    3.961 --   100 C    1.360    94 C    1.355    84 N    1.052
    94   6 C    3.980 --    95 C    1.474    93 C    1.355   190 H    0.966
    95   6 C    3.987 --    94 C    1.474    96 C    1.373   191 H    0.964
    96   6 C    3.948 --    99 C    1.391    95 C    1.373    97 S    1.034
    97  16 S    2.231 --    96 C    1.034    98 C    1.004
    98   6 C    3.972 --    97 S    1.004   194 H    0.983   193 H    0.981
                           192 H    0.978
    99   6 C    3.988 --   100 C    1.450    96 C    1.391   195 H    0.965
   100   6 C    3.983 --    99 C    1.450    93 C    1.360   196 H    0.966
   101   6 C    3.929 --    80 C    1.384    83 C    1.210   102 S    1.108
   102  16 S    2.555 --   101 C    1.108    61 C    1.075
   103   6 C    3.933 --   113 C    1.377   104 C    1.211    82 C    1.117
   104   6 C    3.972 --   105 N    1.337   110 C    1.212   103 C    1.211
   105   7 N    2.989 --   104 C    1.337   106 N    1.310   109 N    0.203
   106   7 N    3.764 --   105 N    1.310   109 N    1.283   107 C    0.975
   107   6 C    3.949 --   108 C    1.002   106 N    0.975   197 H    0.967
                           198 H    0.954
   108   6 C    3.982 --   107 C    1.002   201 H    0.986   199 H    0.984
                           200 H    0.981
   109   7 N    2.982 --   110 C    1.349   106 N    1.283   105 N    0.203
   110   6 C    3.975 --   109 N    1.349   104 C    1.212   111 C    1.192
   111   6 C    3.965 --   112 C    1.353   110 C    1.192   116 C    1.187
   112   6 C    3.906 --   111 C    1.353   113 C    1.329   115 Cl   1.003
   113   6 C    3.906 --   103 C    1.377   112 C    1.329   114 Cl   0.987
   114  17 Cl   1.131 --   113 C    0.987
   115  17 Cl   1.162 --   112 C    1.003
   116   6 C    3.944 --   117 C    1.587   111 C    1.187   202 H    0.941
   117   6 C    3.942 --   116 C    1.587   128 C    1.128   118 C    1.009
   118   6 C    3.918 --   119 O    1.764   120 C    1.019   117 C    1.009
   119   8 O    2.039 --   118 C    1.764
   120   6 C    3.975 --   121 C    1.461   127 C    1.263   118 C    1.019
   121   6 C    3.980 --   120 C    1.461   122 C    1.316   203 H    0.962
   122   6 C    3.918 --   125 C    1.354   121 C    1.316   123 O    1.095
   123   8 O    2.245 --   122 C    1.095   124 C    0.971
   124   6 C    3.930 --   206 H    0.978   204 H    0.975   205 H    0.975
                           123 O    0.971
   125   6 C    3.974 --   126 C    1.442   122 C    1.354   207 H    0.963
   126   6 C    3.977 --   125 C    1.442   127 C    1.396   208 H    0.962
   127   6 C    3.980 --   126 C    1.396   120 C    1.263   128 C    1.099
   128   6 C    3.971 --   129 C    1.468   117 C    1.128   127 C    1.099
   129   6 C    3.960 --   128 C    1.468   130 C    1.108   132 C    1.098
   130   6 C    3.943 --   131 N    2.749   129 C    1.108
   131   7 N    2.958 --   130 C    2.749
   132   6 C    3.942 --   133 N    2.758   129 C    1.098
   133   7 N    2.967 --   132 C    2.758
   134   1 H    0.991 --     1 C    0.949
   135   1 H    0.994 --     6 C    0.962
   136   1 H    0.995 --     9 C    0.975
   137   1 H    0.994 --     9 C    0.978
   138   1 H    0.996 --     9 C    0.975
   139   1 H    0.996 --    10 C    0.964
   140   1 H    0.996 --    11 C    0.963
   141   1 H    0.997 --    23 C    0.966
   142   1 H    0.996 --    24 C    0.967
   143   1 H    0.994 --    27 C    0.971
   144   1 H    0.995 --    27 C    0.978
   145   1 H    0.996 --    27 C    0.982
   146   1 H    0.995 --    28 C    0.961
   147   1 H    0.998 --    29 C    0.962
   148   1 H    0.998 --    31 C    0.965
   149   1 H    0.997 --    32 C    0.964
   150   1 H    0.995 --    35 C    0.977
   151   1 H    0.994 --    35 C    0.976
   152   1 H    0.995 --    35 C    0.981
   153   1 H    0.997 --    36 C    0.966
   154   1 H    0.997 --    37 C    0.964
   155   1 H    0.998 --    44 C    0.962
   156   1 H    0.997 --    45 C    0.967
   157   1 H    0.996 --    48 C    0.981
   158   1 H    0.995 --    48 C    0.977
   159   1 H    0.996 --    48 C    0.981
   160   1 H    0.998 --    49 C    0.965
   161   1 H    0.999 --    50 C    0.966
   162   1 H    0.998 --    52 C    0.964
   163   1 H    0.997 --    53 C    0.965
   164   1 H    0.996 --    56 C    0.982
   165   1 H    0.995 --    56 C    0.978
   166   1 H    0.996 --    56 C    0.981
   167   1 H    0.997 --    57 C    0.965
   168   1 H    0.998 --    58 C    0.962
   169   1 H    0.998 --    65 C    0.965
   170   1 H    0.997 --    66 C    0.964
   171   1 H    0.995 --    69 C    0.977
   172   1 H    0.996 --    69 C    0.981
   173   1 H    0.996 --    69 C    0.981
   174   1 H    0.996 --    70 C    0.966
   175   1 H    0.998 --    71 C    0.962
   176   1 H    0.998 --    73 C    0.963
   177   1 H    0.998 --    74 C    0.964
   178   1 H    0.995 --    77 C    0.977
   179   1 H    0.995 --    77 C    0.978
   180   1 H    0.996 --    77 C    0.981
   181   1 H    0.997 --    78 C    0.968
   182   1 H    0.998 --    79 C    0.966
   183   1 H    0.997 --    86 C    0.965
   184   1 H    0.997 --    87 C    0.963
   185   1 H    0.993 --    90 C    0.972
   186   1 H    0.996 --    90 C    0.982
   187   1 H    0.996 --    90 C    0.976
   188   1 H    0.998 --    91 C    0.968
   189   1 H    0.998 --    92 C    0.967
   190   1 H    0.997 --    94 C    0.966
   191   1 H    0.996 --    95 C    0.964
   192   1 H    0.995 --    98 C    0.978
   193   1 H    0.996 --    98 C    0.981
   194   1 H    0.996 --    98 C    0.983
   195   1 H    0.997 --    99 C    0.965
   196   1 H    0.998 --   100 C    0.966
   197   1 H    0.991 --   107 C    0.967
   198   1 H    0.988 --   107 C    0.954
   199   1 H    0.996 --   108 C    0.984
   200   1 H    0.994 --   108 C    0.981
   201   1 H    0.997 --   108 C    0.986
   202   1 H    0.989 --   116 C    0.941
   203   1 H    0.993 --   121 C    0.962
   204   1 H    0.996 --   124 C    0.975
   205   1 H    0.996 --   124 C    0.975
   206   1 H    0.994 --   124 C    0.978
   207   1 H    0.996 --   125 C    0.963
   208   1 H    0.995 --   126 C    0.962
 ---------------------------------------------------------------------------

Topologies differ in bond orders
Writing corrected topology to xtbtopo.mol

molecular dipole:
                 x           y           z       tot (Debye)
 q only:        0.795      -4.404      -1.160
   full:        0.593      -3.421      -0.648       8.978
molecular quadrupole (traceless):
                xx          xy          yy          xz          yz          zz
 q only:       12.089      19.295     -37.907      12.703      64.592      25.818
  q+dip:      -14.769      22.901     -30.468      15.919      55.667      45.237
   full:      -15.802      20.596     -31.592      20.002      59.103      47.395


           -------------------------------------------------
          | TOTAL ENERGY             -357.503249615966 Eh   |
          | GRADIENT NORM               0.021730284129 Eh/α |
          | HOMO-LUMO GAP               0.422406764605 eV   |
           -------------------------------------------------

------------------------------------------------------------------------
 * finished run on 2022/02/09 at 17:15:32.420     
------------------------------------------------------------------------
 total:
 * wall-time:     0 d,  0 h,  0 min,  1.064 sec
 *  cpu-time:     0 d,  0 h,  0 min,  8.324 sec
 * ratio c/w:     7.822 speedup
 SCF:
 * wall-time:     0 d,  0 h,  0 min,  0.946 sec
 *  cpu-time:     0 d,  0 h,  0 min,  7.512 sec
 * ratio c/w:     7.938 speedup

