      -----------------------------------------------------------      
     |                   =====================                   |     
     |                           x T B                           |     
     |                   =====================                   |     
     |                         S. Grimme                         |     
     |          Mulliken Center for Theoretical Chemistry        |     
     |                    University of Bonn                     |     
      -----------------------------------------------------------      

   * xtb version 6.4.1 (unknown) compiled by 'oda6@login1.crc.pitt.edu' on 2021-06-25

   xtb is free software: you can redistribute it and/or modify it under
   the terms of the GNU Lesser General Public License as published by
   the Free Software Foundation, either version 3 of the License, or
   (at your option) any later version.
   
   xtb is distributed in the hope that it will be useful,
   but WITHOUT ANY WARRANTY; without even the implied warranty of
   MERCHANTABILITY or FITNESS FOR A PARTICULAR PURPOSE.  See the
   GNU Lesser General Public License for more details.
   
   Cite this work as:
   * C. Bannwarth, E. Caldeweyher, S. Ehlert, A. Hansen, P. Pracht,
     J. Seibert, S. Spicher, S. Grimme, WIREs Comput. Mol. Sci., 2020, 11,
     e01493. DOI: 10.1002/wcms.1493
   
   for GFN2-xTB:
   * C. Bannwarth, S. Ehlert and S. Grimme., J. Chem. Theory Comput., 2019,
     15, 1652-1671. DOI: 10.1021/acs.jctc.8b01176
   for GFN1-xTB:
   * S. Grimme, C. Bannwarth, P. Shushkov, J. Chem. Theory Comput., 2017,
     13, 1989-2009. DOI: 10.1021/acs.jctc.7b00118
   for GFN0-xTB:
   * P. Pracht, E. Caldeweyher, S. Ehlert, S. Grimme, ChemRxiv, 2019, preprint.
     DOI: 10.26434/chemrxiv.8326202.v1
   for GFN-FF:
   * S. Spicher and S. Grimme, Angew. Chem. Int. Ed., 2020, 59, 15665-15673.
     DOI: 10.1002/anie.202004239
   
   for DFT-D4:
   * E. Caldeweyher, C. Bannwarth and S. Grimme, J. Chem. Phys., 2017,
     147, 034112. DOI: 10.1063/1.4993215
   * E. Caldeweyher, S. Ehlert, A. Hansen, H. Neugebauer, S. Spicher,
     C. Bannwarth and S. Grimme, J. Chem. Phys., 2019, 150, 154122.
     DOI: 10.1063/1.5090222
   * E. Caldeweyher, J.-M. Mewes, S. Ehlert and S. Grimme, Phys. Chem. Chem. Phys.
     2020, 22, 8499-8512. DOI: 10.1039/D0CP00502A
   
   for sTDA-xTB:
   * S. Grimme and C. Bannwarth, J. Chem. Phys., 2016, 145, 054103.
     DOI: 10.1063/1.4959605
   
   in the mass-spec context:
   * V. Asgeirsson, C. Bauer and S. Grimme, Chem. Sci., 2017, 8, 4879.
     DOI: 10.1039/c7sc00601b
   * J. Koopman and S. Grimme, ACS Omega 2019, 4, 12, 15120-15133.
     DOI: 10.1021/acsomega.9b02011
   
   for metadynamics refer to:
   * S. Grimme, J. Chem. Theory Comput., 2019, 155, 2847-2862
     DOI: 10.1021/acs.jctc.9b00143
   
   for SPH calculations refer to:
   * S. Spicher and S. Grimme, J. Chem. Theory Comput., 2021, 17, 1701-1714
     DOI: 10.1021/acs.jctc.0c01306
   
   with help from (in alphabetical order)
   P. Atkinson, C. Bannwarth, F. Bohle, G. Brandenburg, E. Caldeweyher
   M. Checinski, S. Dohm, S. Ehlert, S. Ehrlich, I. Gerasimov, J. Koopman
   C. Lavigne, S. Lehtola, F. März, M. Müller, F. Musil, H. Neugebauer
   J. Pisarek, C. Plett, P. Pracht, J. Seibert, P. Shushkov, S. Spicher
   M. Stahn, M. Steiner, T. Strunk, J. Stückrath, T. Rose, and J. Unsleber
   
 * started run on 2022/02/08 at 03:22:18.334     

           -------------------------------------------------
          |                Calculation Setup                |
           -------------------------------------------------

          program call               : /ihome/ghutchison/oda6/xtb/xtb-641/bin/xtb ../../GFN2_output/38_130_130_153_38.mol --sp --alpb hexane
          hostname                   : smp-n26
          coordinate file            : ../../GFN2_output/38_130_130_153_38.mol
          omp threads                :                     8
          number of atoms            :                   218
          number of electrons        :                   680
          charge                     :                     0
          spin                       :                   0.0
          first test random number   :      0.44365159594937

   ID    Z sym.   atoms
    1    6 C      1-3, 5, 6, 8-15, 17, 19, 20, 22-25, 27-33, 35-38, 40, 41,
                  43-46, 48-54, 56-59, 61, 62, 64-67, 69-75, 77-80, 82, 83,
                  85-88, 90-96, 98-101, 103, 105-107, 109-112, 114-118,
                  120-123, 125, 126, 128-135, 137
    2    8 O      4, 7, 108, 119, 124, 127
    3    7 N      16, 18, 21, 42, 63, 84, 136, 138
    4   16 S      26, 34, 39, 47, 55, 60, 68, 76, 81, 89, 97, 102, 104, 113
    5    1 H      139-218

           -------------------------------------------------
          |                 G F N 2 - x T B                 |
           -------------------------------------------------

        Reference                      10.1021/acs.jctc.8b01176
      * Hamiltonian:
        H0-scaling (s, p, d)           1.850000    2.230000    2.230000
        zeta-weighting                 0.500000
      * Dispersion:
        s8                             2.700000
        a1                             0.520000
        a2                             5.000000
        s9                             5.000000
      * Repulsion:
        kExp                           1.500000    1.000000
        rExp                           1.000000
      * Coulomb:
        alpha                          2.000000
        third order                    shell-resolved
        anisotropic                    true
        a3                             3.000000
        a5                             4.000000
        cn-shift                       1.200000
        cn-exp                         4.000000
        max-rad                        5.000000

      * Solvation model:               ALPB
        Solvent                        hexane
        Parameter file                 internal GFN2-xTB/ALPB
        Dielectric constant                1.8800E+00
        Reference state                gsolv [1 M gas/solution]
        Free energy shift                  4.8134E-03 Eh       3.0204E+00 kcal/mol
        Temperature                        2.9815E+02 K
        Density                            6.6000E-01 kg/L
        Solvent mass                       8.6180E+01 g/mol
        Interaction kernel             P16
        Born radius scaling (c1)           1.1040E+00
        Born radii integrator          GBOBC
        Born offset                        0.0000E+00 a0       0.0000E+00 AA
        H-bond correction              false
        Ion screening                  false
        Surface tension                    1.0000E-05 Eh       1.5569E+01 dyn/cm
        Grid points                               230 per atom

          ...................................................
          :                      SETUP                      :
          :.................................................:
          :  # basis functions                 716          :
          :  # atomic orbitals                 702          :
          :  # shells                          370          :
          :  # electrons                       680          :
          :  max. iterations                   250          :
          :  Hamiltonian                  GFN2-xTB          :
          :  restarted?                      false          :
          :  GBSA solvation                   true          :
          :  PC potential                    false          :
          :  electronic temp.          300.0000000     K    :
          :  accuracy                    1.0000000          :
          :  -> integral cutoff          0.2500000E+02      :
          :  -> integral neglect         0.1000000E-07      :
          :  -> SCF convergence          0.1000000E-05 Eh   :
          :  -> wf. convergence          0.1000000E-03 e    :
          :  Broyden damping             0.4000000          :
          ...................................................

 iter      E             dE          RMSdq      gap      omega  full diag
   1   -375.0393304 -0.375039E+03  0.496E+00    0.63       0.0  T
   2   -375.3165944 -0.277264E+00  0.280E+00    0.53       1.0  T
   3   -375.1674065  0.149188E+00  0.133E+00    0.13       1.0  T
   4   -375.3636964 -0.196290E+00  0.517E-01    0.44       1.0  T
   5   -375.3911676 -0.274712E-01  0.197E-01    0.23       1.0  T
   6   -375.3928049 -0.163736E-02  0.836E-02    0.24       1.0  T
   7   -375.3933607 -0.555830E-03  0.359E-02    0.23       1.0  T
   8   -375.3934350 -0.742515E-04  0.210E-02    0.24       1.0  T
   9   -375.3934676 -0.325944E-04  0.106E-02    0.23       1.0  T
  10   -375.3934730 -0.545358E-05  0.493E-03    0.23       1.4  T
  11   -375.3934756 -0.257183E-05  0.214E-03    0.23       3.2  T
  12   -375.3934758 -0.199335E-06  0.123E-03    0.23       5.5  T
  13   -375.3934759 -0.768150E-07  0.492E-04    0.23      13.8  T
  14   -375.3934759 -0.115577E-07  0.233E-04    0.23      29.0  T

   *** convergence criteria satisfied after 14 iterations ***

         #    Occupation            Energy/Eh            Energy/eV
      -------------------------------------------------------------
         1        2.0000           -0.7507583             -20.4292
       ...           ...                  ...                  ...
       334        2.0000           -0.3687346             -10.0338
       335        2.0000           -0.3668710              -9.9831
       336        2.0000           -0.3623895              -9.8611
       337        2.0000           -0.3533521              -9.6152
       338        1.9998           -0.3505202              -9.5381
       339        1.9994           -0.3496497              -9.5145
       340        1.9790           -0.3462146              -9.4210 (HOMO)
       341        0.0218           -0.3376159              -9.1870 (LUMO)
       342        0.0000           -0.3295000              -8.9662
       343                         -0.3234575              -8.8017
       344                         -0.3138090              -8.5392
       345                         -0.3102431              -8.4421
       ...                                ...                  ...
       702                          1.1583640              31.5207
      -------------------------------------------------------------
                  HL-Gap            0.0085987 Eh            0.2340 eV
             Fermi-level           -0.3418972 Eh           -9.3035 eV

 SCC (total)                   0 d,  0 h,  0 min,  0.892 sec
 SCC setup                      ...        0 min,  0.009 sec (  0.969%)
 Dispersion                     ...        0 min,  0.010 sec (  1.161%)
 classical contributions        ...        0 min,  0.000 sec (  0.056%)
 integral evaluation            ...        0 min,  0.046 sec (  5.140%)
 iterations                     ...        0 min,  0.653 sec ( 73.204%)
 molecular gradient             ...        0 min,  0.169 sec ( 18.997%)
 printout                       ...        0 min,  0.004 sec (  0.465%)

         :::::::::::::::::::::::::::::::::::::::::::::::::::::
         ::                     SUMMARY                     ::
         :::::::::::::::::::::::::::::::::::::::::::::::::::::
         :: total energy            -369.632469912369 Eh    ::
         :: total w/o Gsasa/hb      -369.520682413225 Eh    ::
         :: gradient norm              0.026290445256 Eh/a0 ::
         :: HOMO-LUMO gap              0.233983483235 eV    ::
         ::.................................................::
         :: SCC energy              -375.393475900433 Eh    ::
         :: -> isotropic ES            0.235652866484 Eh    ::
         :: -> anisotropic ES          0.012814085703 Eh    ::
         :: -> anisotropic XC          0.217655267099 Eh    ::
         :: -> dispersion             -0.428473026524 Eh    ::
         :: -> Gsolv                  -0.146374585800 Eh    ::
         ::    -> Gelec               -0.034587086656 Eh    ::
         ::    -> Gsasa               -0.116600854964 Eh    ::
         ::    -> Ghb                  0.000000000000 Eh    ::
         ::    -> Gshift               0.004813355820 Eh    ::
         :: repulsion energy           5.735899086828 Eh    ::
         :: add. restraining           0.000000000000 Eh    ::
         :: total charge              -0.000000000000 e     ::
         :::::::::::::::::::::::::::::::::::::::::::::::::::::

           -------------------------------------------------
          |                Property Printout                |
           -------------------------------------------------

    * Orbital Energies and Occupations

         #    Occupation            Energy/Eh            Energy/eV
      -------------------------------------------------------------
         1        2.0000           -0.7507583             -20.4292
       ...           ...                  ...                  ...
       328        2.0000           -0.3864556             -10.5160
       329        2.0000           -0.3852778             -10.4839
       330        2.0000           -0.3829655             -10.4210
       331        2.0000           -0.3784935             -10.2993
       332        2.0000           -0.3741912             -10.1823
       333        2.0000           -0.3726538             -10.1404
       334        2.0000           -0.3687346             -10.0338
       335        2.0000           -0.3668710              -9.9831
       336        2.0000           -0.3623895              -9.8611
       337        2.0000           -0.3533521              -9.6152
       338        1.9998           -0.3505202              -9.5381
       339        1.9994           -0.3496497              -9.5145
       340        1.9790           -0.3462146              -9.4210 (HOMO)
       341        0.0218           -0.3376159              -9.1870 (LUMO)
       342        0.0000           -0.3295000              -8.9662
       343                         -0.3234575              -8.8017
       344                         -0.3138090              -8.5392
       345                         -0.3102431              -8.4421
       346                         -0.2911084              -7.9215
       347                         -0.2866113              -7.7991
       348                         -0.2658347              -7.2337
       349                         -0.2590666              -7.0496
       350                         -0.2480230              -6.7490
       351                         -0.2470706              -6.7231
       ...                                ...                  ...
       702                          1.1583640              31.5207
      -------------------------------------------------------------
                  HL-Gap            0.0085987 Eh            0.2340 eV
             Fermi-level           -0.3418972 Eh           -9.3035 eV

     #   Z          covCN         q      C6AA      α(0)
     1   6 C        2.918    -0.003    28.093     8.692
     2   6 C        3.010    -0.028    28.678     8.785
     3   6 C        2.866     0.241    22.989     7.859
     4   8 O        0.857    -0.409    21.866     6.269
     5   6 C        3.040    -0.042    29.010     8.834
     6   6 C        2.859     0.168    24.386     8.094
     7   8 O        1.706    -0.248    18.115     5.747
     8   6 C        3.646     0.031    20.375     6.487
     9   6 C        2.918    -0.061    29.514     8.909
    10   6 C        2.921    -0.018    28.470     8.750
    11   6 C        2.911    -0.033    28.820     8.803
    12   6 C        3.034     0.014    27.665     8.627
    13   6 C        3.014     0.040    27.085     8.537
    14   6 C        2.947     0.016    27.652     8.625
    15   6 C        1.941     0.137    27.745     8.506
    16   7 N        0.911    -0.252    26.560     7.454
    17   6 C        1.941     0.133    27.834     8.520
    18   7 N        0.911    -0.258    26.698     7.473
    19   6 C        3.007     0.006    27.861     8.658
    20   6 C        3.075     0.057    26.648     8.464
    21   7 N        2.749    -0.081    22.817     7.094
    22   6 C        2.931     0.058    26.703     8.475
    23   6 C        2.924    -0.042    29.046     8.838
    24   6 C        2.945    -0.046    29.146     8.854
    25   6 C        2.966     0.045    26.990     8.522
    26  16 S        2.034    -0.183   148.798    20.531
    27   6 C        3.745    -0.051    21.560     6.624
    28   6 C        2.982    -0.041    29.019     8.836
    29   6 C        2.920    -0.043    29.057     8.840
    30   6 C        2.922     0.063    26.597     8.457
    31   6 C        2.923    -0.052    29.300     8.877
    32   6 C        2.942    -0.042    29.043     8.839
    33   6 C        2.965     0.045    26.996     8.522
    34  16 S        2.035    -0.189   149.060    20.549
    35   6 C        3.745    -0.048    21.505     6.615
    36   6 C        2.987    -0.039    28.964     8.828
    37   6 C        2.923    -0.050    29.232     8.866
    38   6 C        3.183     0.004    27.485     8.557
    39  16 S        2.294    -0.053   143.243    20.144
    40   6 C        3.019     0.002    27.958     8.673
    41   6 C        3.069     0.055    26.705     8.473
    42   7 N        2.748    -0.081    22.824     7.095
    43   6 C        2.935     0.062    26.607     8.460
    44   6 C        2.921    -0.046    29.150     8.854
    45   6 C        2.984    -0.039    28.956     8.827
    46   6 C        2.966     0.045    26.981     8.520
    47  16 S        2.033    -0.192   149.202    20.558
    48   6 C        3.744    -0.050    21.540     6.621
    49   6 C        2.942    -0.045    29.113     8.849
    50   6 C        2.926    -0.051    29.259     8.871
    51   6 C        2.922     0.063    26.595     8.457
    52   6 C        2.922    -0.049    29.209     8.863
    53   6 C        2.975    -0.035    28.873     8.814
    54   6 C        2.967     0.045    26.989     8.521
    55  16 S        2.027    -0.208   149.906    20.607
    56   6 C        3.744    -0.051    21.563     6.624
    57   6 C        2.945    -0.041    29.015     8.835
    58   6 C        2.924    -0.047    29.171     8.857
    59   6 C        3.182     0.007    27.413     8.546
    60  16 S        2.252    -0.013   141.575    20.026
    61   6 C        3.041     0.010    27.755     8.641
    62   6 C        3.064     0.046    26.901     8.505
    63   7 N        2.756    -0.079    22.778     7.088
    64   6 C        2.920     0.065    26.536     8.447
    65   6 C        2.924    -0.051    29.255     8.870
    66   6 C        2.971    -0.036    28.900     8.818
    67   6 C        2.966     0.043    27.026     8.527
    68  16 S        2.024    -0.218   150.355    20.638
    69   6 C        3.744    -0.044    21.432     6.604
    70   6 C        2.948    -0.038    28.955     8.826
    71   6 C        2.924    -0.054    29.344     8.883
    72   6 C        2.920     0.064    26.573     8.453
    73   6 C        2.925    -0.048    29.189     8.860
    74   6 C        2.943    -0.044    29.101     8.847
    75   6 C        2.966     0.043    27.027     8.527
    76  16 S        2.027    -0.211   150.067    20.618
    77   6 C        3.744    -0.048    21.501     6.615
    78   6 C        2.976    -0.037    28.920     8.821
    79   6 C        2.925    -0.048    29.183     8.859
    80   6 C        3.184     0.004    27.480     8.555
    81  16 S        2.240    -0.005   141.255    20.003
    82   6 C        3.026     0.005    27.881     8.661
    83   6 C        3.071     0.054    26.720     8.476
    84   7 N        2.749    -0.083    22.847     7.099
    85   6 C        2.929     0.059    26.678     8.471
    86   6 C        2.926    -0.047    29.169     8.857
    87   6 C        2.943    -0.039    28.978     8.829
    88   6 C        2.966     0.047    26.935     8.513
    89  16 S        2.031    -0.194   149.288    20.564
    90   6 C        3.744    -0.048    21.505     6.615
    91   6 C        2.980    -0.039    28.968     8.829
    92   6 C        2.921    -0.045    29.120     8.849
    93   6 C        2.921     0.061    26.639     8.464
    94   6 C        2.923    -0.050    29.246     8.869
    95   6 C        2.982    -0.041    29.012     8.835
    96   6 C        2.966     0.042    27.049     8.531
    97  16 S        2.030    -0.206   149.822    20.601
    98   6 C        3.745    -0.046    21.464     6.609
    99   6 C        2.943    -0.045    29.117     8.850
   100   6 C        2.925    -0.053    29.306     8.878
   101   6 C        3.165     0.001    27.663     8.595
   102  16 S        2.254    -0.025   142.076    20.061
   103   6 C        3.011     0.025    27.427     8.591
   104  16 S        2.364     0.090   137.418    19.730
   105   6 C        2.981     0.036    27.195     8.554
   106   6 C        3.139    -0.028    28.450     8.729
   107   6 C        2.823     0.237    23.051     7.867
   108   8 O        0.857    -0.431    22.303     6.332
   109   6 C        3.163    -0.044    28.734     8.761
   110   6 C        2.980     0.044    27.011     8.525
   111   6 C        3.828    -0.056    21.562     6.607
   112   6 C        3.754    -0.101    22.480     6.761
   113  16 S        2.353     0.025   140.050    19.918
   114   6 C        2.978     0.043    27.026     8.528
   115   6 C        3.830    -0.060    21.629     6.617
   116   6 C        3.754    -0.103    22.526     6.768
   117   6 C        3.160    -0.046    28.801     8.773
   118   6 C        2.823     0.238    23.023     7.862
   119   8 O        0.857    -0.438    22.454     6.353
   120   6 C        3.137    -0.030    28.523     8.741
   121   6 C        2.920    -0.011    28.280     8.721
   122   6 C        3.011    -0.020    28.493     8.756
   123   6 C        2.871     0.242    22.963     7.855
   124   8 O        0.942    -0.394    21.511     6.220
   125   6 C        3.047    -0.040    28.938     8.823
   126   6 C        2.859     0.165    24.437     8.103
   127   8 O        1.706    -0.254    18.210     5.762
   128   6 C        3.646     0.030    20.398     6.491
   129   6 C        2.918    -0.062    29.537     8.912
   130   6 C        2.922    -0.019    28.495     8.754
   131   6 C        2.911    -0.036    28.898     8.815
   132   6 C        3.037     0.015    27.638     8.623
   133   6 C        3.026     0.044    26.995     8.522
   134   6 C        2.947     0.021    27.541     8.607
   135   6 C        1.937     0.137    27.750     8.507
   136   7 N        0.911    -0.254    26.604     7.460
   137   6 C        1.936     0.136    27.770     8.510
   138   7 N        0.911    -0.255    26.621     7.462
   139   1 H        0.925     0.073     2.053     2.241
   140   1 H        0.924     0.054     2.272     2.357
   141   1 H        0.924     0.061     2.191     2.315
   142   1 H        0.925     0.078     2.003     2.213
   143   1 H        0.926     0.062     2.180     2.309
   144   1 H        0.926     0.062     2.172     2.305
   145   1 H        0.926     0.066     2.131     2.283
   146   1 H        0.926     0.040     2.451     2.448
   147   1 H        0.926     0.053     2.286     2.364
   148   1 H        0.925     0.060     2.204     2.322
   149   1 H        0.925     0.071     2.070     2.250
   150   1 H        0.925     0.068     2.110     2.271
   151   1 H        0.926     0.052     2.298     2.370
   152   1 H        0.926     0.054     2.272     2.357
   153   1 H        0.926     0.033     2.545     2.495
   154   1 H        0.926     0.043     2.405     2.425
   155   1 H        0.925     0.058     2.220     2.330
   156   1 H        0.925     0.068     2.113     2.273
   157   1 H        0.925     0.067     2.116     2.275
   158   1 H        0.926     0.045     2.383     2.414
   159   1 H        0.926     0.038     2.479     2.462
   160   1 H        0.926     0.043     2.403     2.424
   161   1 H        0.926     0.048     2.348     2.396
   162   1 H        0.925     0.060     2.196     2.318
   163   1 H        0.925     0.062     2.173     2.305
   164   1 H        0.925     0.069     2.101     2.267
   165   1 H        0.926     0.044     2.402     2.424
   166   1 H        0.926     0.035     2.521     2.483
   167   1 H        0.926     0.051     2.309     2.376
   168   1 H        0.926     0.047     2.363     2.404
   169   1 H        0.925     0.066     2.133     2.284
   170   1 H        0.925     0.067     2.115     2.274
   171   1 H        0.925     0.059     2.212     2.326
   172   1 H        0.926     0.052     2.296     2.370
   173   1 H        0.926     0.042     2.424     2.435
   174   1 H        0.926     0.038     2.471     2.458
   175   1 H        0.926     0.043     2.403     2.424
   176   1 H        0.925     0.061     2.184     2.311
   177   1 H        0.925     0.065     2.136     2.286
   178   1 H        0.925     0.052     2.294     2.368
   179   1 H        0.926     0.042     2.420     2.433
   180   1 H        0.926     0.035     2.523     2.484
   181   1 H        0.926     0.044     2.396     2.420
   182   1 H        0.926     0.041     2.441     2.443
   183   1 H        0.925     0.056     2.252     2.347
   184   1 H        0.925     0.066     2.133     2.284
   185   1 H        0.925     0.061     2.183     2.310
   186   1 H        0.926     0.060     2.196     2.318
   187   1 H        0.926     0.038     2.476     2.461
   188   1 H        0.926     0.045     2.387     2.416
   189   1 H        0.926     0.054     2.273     2.358
   190   1 H        0.925     0.064     2.158     2.297
   191   1 H        0.925     0.073     2.054     2.241
   192   1 H        0.925     0.066     2.133     2.284
   193   1 H        0.926     0.045     2.381     2.413
   194   1 H        0.926     0.038     2.481     2.463
   195   1 H        0.926     0.047     2.359     2.402
   196   1 H        0.926     0.058     2.219     2.329
   197   1 H        0.925     0.066     2.127     2.281
   198   1 H        0.925     0.059     2.213     2.327
   199   1 H        0.925     0.057     2.232     2.336
   200   1 H        0.926     0.041     2.429     2.437
   201   1 H        0.926     0.038     2.479     2.462
   202   1 H        0.924     0.081     1.971     2.196
   203   1 H        0.924     0.056     2.251     2.346
   204   1 H        0.925     0.052     2.293     2.368
   205   1 H        0.925     0.042     2.428     2.437
   206   1 H        0.925     0.052     2.300     2.372
   207   1 H        0.925     0.081     1.971     2.196
   208   1 H        0.924     0.065     2.145     2.290
   209   1 H        0.925     0.042     2.420     2.433
   210   1 H        0.925     0.046     2.372     2.408
   211   1 H        0.925     0.057     2.229     2.335
   212   1 H        0.925     0.103     1.754     2.071
   213   1 H        0.924     0.055     2.253     2.347
   214   1 H        0.924     0.054     2.273     2.358
   215   1 H        0.925     0.079     1.992     2.207
   216   1 H        0.926     0.061     2.188     2.313
   217   1 H        0.926     0.063     2.167     2.302
   218   1 H        0.926     0.065     2.146     2.291

 Mol. C6AA /au·bohr⁶  :     857810.597509
 Mol. C8AA /au·bohr⁸  :   24756201.772395
 Mol. α(0) /au        :       1489.722140


Wiberg/Mayer (AO) data.
largest (>0.10) Wiberg bond orders for each atom

 ---------------------------------------------------------------------------
     #   Z sym  total        # sym  WBO       # sym  WBO       # sym  WBO
 ---------------------------------------------------------------------------
     1   6 C    3.946 --     2 C    1.646    19 C    1.118   139 H    0.939
     2   6 C    3.968 --     1 C    1.646    13 C    1.115     3 C    1.005
     3   6 C    3.924 --     4 O    1.736     5 C    1.055     2 C    1.005
     4   8 O    2.040 --     3 C    1.736
     5   6 C    3.975 --     6 C    1.310    12 C    1.291     3 C    1.055
     6   6 C    3.934 --     9 C    1.327     5 C    1.310     7 O    1.119
     7   8 O    2.290 --     6 C    1.119     8 C    0.966
     8   6 C    3.926 --   142 H    0.976   140 H    0.975   141 H    0.973
                             7 O    0.966
     9   6 C    3.969 --    10 C    1.457     6 C    1.327   143 H    0.964
    10   6 C    3.980 --     9 C    1.457    11 C    1.410   144 H    0.968
    11   6 C    3.977 --    10 C    1.410    12 C    1.403   145 H    0.960
    12   6 C    3.982 --    11 C    1.403     5 C    1.291    13 C    1.088
    13   6 C    3.975 --    14 C    1.504     2 C    1.115    12 C    1.088
    14   6 C    3.966 --    13 C    1.504    17 C    1.095    15 C    1.094
    15   6 C    3.944 --    16 N    2.764    14 C    1.094
    16   7 N    2.970 --    15 C    2.764
    17   6 C    3.944 --    18 N    2.759    14 C    1.095
    18   7 N    2.965 --    17 C    2.759
    19   6 C    3.913 --    20 C    1.435     1 C    1.118    60 S    1.103
    20   6 C    3.951 --    19 C    1.435    38 C    1.215    21 N    1.073
    21   7 N    3.459 --    30 C    1.083    20 C    1.073    22 C    1.002
    22   6 C    3.964 --    23 C    1.387    29 C    1.372    21 N    1.002
    23   6 C    3.988 --    24 C    1.446    22 C    1.387   146 H    0.965
                            28 C    0.103
    24   6 C    3.988 --    23 C    1.446    25 C    1.388   147 H    0.959
    25   6 C    3.962 --    24 C    1.388    28 C    1.370    26 S    1.052
    26  16 S    2.258 --    25 C    1.052    27 C    1.007
    27   6 C    3.971 --    26 S    1.007   150 H    0.980   148 H    0.977
                           149 H    0.977
    28   6 C    3.989 --    29 C    1.469    25 C    1.370   151 H    0.967
                            23 C    0.103
    29   6 C    3.985 --    28 C    1.469    22 C    1.372   152 H    0.966
    30   6 C    3.961 --    31 C    1.357    37 C    1.333    21 N    1.083
    31   6 C    3.980 --    32 C    1.452    30 C    1.357   153 H    0.966
    32   6 C    3.988 --    31 C    1.452    33 C    1.386   154 H    0.964
    33   6 C    3.947 --    32 C    1.386    36 C    1.363    34 S    1.046
    34  16 S    2.243 --    33 C    1.046    35 C    1.009
    35   6 C    3.972 --    34 S    1.009   155 H    0.981   156 H    0.978
                           157 H    0.977
    36   6 C    3.988 --    37 C    1.482    33 C    1.363   158 H    0.967
    37   6 C    3.983 --    36 C    1.482    30 C    1.333   159 H    0.965
    38   6 C    3.932 --    59 C    1.376    20 C    1.215    39 S    1.112
    39  16 S    2.575 --    38 C    1.112    40 C    1.087
    40   6 C    3.914 --    41 C    1.433    61 C    1.159    39 S    1.087
    41   6 C    3.951 --    40 C    1.433    59 C    1.231    42 N    1.039
    42   7 N    3.448 --    43 C    1.060    51 C    1.055    41 C    1.039
    43   6 C    3.961 --    50 C    1.364    44 C    1.347    42 N    1.060
    44   6 C    3.983 --    45 C    1.480    43 C    1.347   160 H    0.964
    45   6 C    3.988 --    44 C    1.480    46 C    1.365   161 H    0.967
                            50 C    0.100
    46   6 C    3.950 --    49 C    1.389    45 C    1.365    47 S    1.043
    47  16 S    2.239 --    46 C    1.043    48 C    1.009
    48   6 C    3.974 --    47 S    1.009   162 H    0.981   163 H    0.981
                           164 H    0.978
    49   6 C    3.989 --    50 C    1.451    46 C    1.389   165 H    0.965
    50   6 C    3.982 --    49 C    1.451    43 C    1.364   166 H    0.966
                            45 C    0.100
    51   6 C    3.962 --    52 C    1.361    58 C    1.358    42 N    1.055
    52   6 C    3.983 --    53 C    1.462    51 C    1.361   167 H    0.959
    53   6 C    3.989 --    52 C    1.462    54 C    1.385   168 H    0.967
                            58 C    0.101
    54   6 C    3.951 --    53 C    1.385    57 C    1.385    55 S    1.028
    55  16 S    2.207 --    54 C    1.028    56 C    1.004
    56   6 C    3.968 --    55 S    1.004   171 H    0.983   169 H    0.979
                           170 H    0.974
    57   6 C    3.987 --    58 C    1.459    54 C    1.385   172 H    0.962
    58   6 C    3.984 --    57 C    1.459    51 C    1.358   173 H    0.966
                            53 C    0.101
    59   6 C    3.937 --    38 C    1.376    41 C    1.231    60 S    1.113
    60  16 S    2.558 --    59 C    1.113    19 C    1.103
    61   6 C    3.938 --    62 C    1.449    40 C    1.159   102 S    1.109
    62   6 C    3.943 --    61 C    1.449    80 C    1.247    63 N    1.004
    63   7 N    3.458 --    64 C    1.081    72 C    1.054    62 C    1.004
    64   6 C    3.962 --    71 C    1.357    65 C    1.340    63 N    1.081
    65   6 C    3.986 --    66 C    1.474    64 C    1.340   174 H    0.963
    66   6 C    3.989 --    65 C    1.474    67 C    1.379   175 H    0.966
    67   6 C    3.953 --    70 C    1.395    66 C    1.379    68 S    1.021
    68  16 S    2.180 --    67 C    1.021    69 C    1.000
    69   6 C    3.971 --    68 S    1.000   178 H    0.983   176 H    0.983
                           177 H    0.980
    70   6 C    3.990 --    71 C    1.455    67 C    1.395   179 H    0.967
    71   6 C    3.983 --    70 C    1.455    64 C    1.357   180 H    0.965
    72   6 C    3.964 --    73 C    1.363    79 C    1.359    63 N    1.054
    73   6 C    3.986 --    74 C    1.453    72 C    1.363   181 H    0.965
                            78 C    0.103
    74   6 C    3.988 --    73 C    1.453    75 C    1.390   182 H    0.965
    75   6 C    3.950 --    74 C    1.390    78 C    1.379    76 S    1.023
    76  16 S    2.220 --    75 C    1.023    77 C    1.007
    77   6 C    3.975 --    76 S    1.007   183 H    0.982   185 H    0.982
                           184 H    0.978
    78   6 C    3.988 --    79 C    1.466    75 C    1.379   186 H    0.963
                            73 C    0.103
    79   6 C    3.984 --    78 C    1.466    72 C    1.359   187 H    0.957
    80   6 C    3.940 --   101 C    1.366    62 C    1.247    81 S    1.116
    81  16 S    2.558 --    80 C    1.116    82 C    1.115
    82   6 C    3.913 --    83 C    1.465    81 S    1.115   103 C    1.080
    83   6 C    3.955 --    82 C    1.465   101 C    1.222    84 N    1.046
    84   7 N    3.463 --    93 C    1.074    83 C    1.046    85 C    1.046
    85   6 C    3.964 --    86 C    1.370    92 C    1.357    84 N    1.046
    86   6 C    3.985 --    87 C    1.451    85 C    1.370   188 H    0.967
                            91 C    0.100
    87   6 C    3.988 --    86 C    1.451    88 C    1.388   189 H    0.963
    88   6 C    3.954 --    87 C    1.388    91 C    1.369    89 S    1.039
    89  16 S    2.270 --    88 C    1.039    90 C    1.009
    90   6 C    3.970 --    89 S    1.009   192 H    0.980   190 H    0.977
                           191 H    0.976
    91   6 C    3.989 --    92 C    1.472    88 C    1.369   193 H    0.967
                            86 C    0.100
    92   6 C    3.987 --    91 C    1.472    85 C    1.357   194 H    0.967
    93   6 C    3.963 --   100 C    1.357    94 C    1.347    84 N    1.074
    94   6 C    3.983 --    95 C    1.472    93 C    1.347   195 H    0.958
    95   6 C    3.989 --    94 C    1.472    96 C    1.371   196 H    0.959
                           100 C    0.101
    96   6 C    3.947 --    99 C    1.388    95 C    1.371    97 S    1.032
    97  16 S    2.233 --    96 C    1.032    98 C    1.006
    98   6 C    3.972 --    97 S    1.006   199 H    0.982   198 H    0.982
                           197 H    0.978
    99   6 C    3.988 --   100 C    1.454    96 C    1.388   200 H    0.965
   100   6 C    3.983 --    99 C    1.454    93 C    1.357   201 H    0.966
                            95 C    0.101
   101   6 C    3.928 --    80 C    1.366    83 C    1.222   102 S    1.114
   102  16 S    2.556 --   101 C    1.114    61 C    1.109
   103   6 C    3.941 --   120 C    1.424   104 S    1.206    82 C    1.080
   104  16 S    2.818 --   103 C    1.206   105 C    1.137   124 O    0.123
   105   6 C    3.947 --   106 C    1.365   121 C    1.250   104 S    1.137
   106   6 C    3.964 --   105 C    1.365   120 C    1.259   107 C    1.046
   107   6 C    3.935 --   108 O    1.690   109 C    1.068   106 C    1.046
   108   8 O    2.009 --   107 C    1.690
   109   6 C    3.979 --   110 C    1.508   117 C    1.166   107 C    1.068
   110   6 C    3.945 --   109 C    1.508   113 S    1.177   111 C    1.039
   111   6 C    3.989 --   110 C    1.039   112 C    0.985   203 H    0.970
                           202 H    0.953
   112   6 C    3.989 --   205 H    0.988   204 H    0.986   111 C    0.985
                           206 H    0.983
   113  16 S    2.647 --   110 C    1.177   114 C    1.169
   114   6 C    3.945 --   117 C    1.511   113 S    1.169   115 C    1.039
   115   6 C    3.987 --   114 C    1.039   116 C    0.990   207 H    0.957
                           208 H    0.954
   116   6 C    3.990 --   115 C    0.990   209 H    0.988   210 H    0.986
                           211 H    0.983
   117   6 C    3.979 --   114 C    1.511   109 C    1.166   118 C    1.068
   118   6 C    3.934 --   119 O    1.694   117 C    1.068   120 C    1.039
   119   8 O    2.002 --   118 C    1.694
   120   6 C    3.969 --   103 C    1.424   106 C    1.259   118 C    1.039
   121   6 C    3.947 --   122 C    1.553   105 C    1.250   212 H    0.923
   122   6 C    3.967 --   121 C    1.553   133 C    1.120   123 C    1.039
   123   6 C    3.923 --   124 O    1.689   125 C    1.052   122 C    1.039
   124   8 O    2.099 --   123 C    1.689   104 S    0.123
   125   6 C    3.969 --   126 C    1.315   132 C    1.291   123 C    1.052
   126   6 C    3.933 --   129 C    1.332   125 C    1.315   127 O    1.109
   127   8 O    2.279 --   126 C    1.109   128 C    0.969
   128   6 C    3.929 --   215 H    0.978   213 H    0.975   214 H    0.975
                           127 O    0.969
   129   6 C    3.970 --   130 C    1.458   126 C    1.332   216 H    0.964
   130   6 C    3.979 --   129 C    1.458   131 C    1.410   217 H    0.968
   131   6 C    3.978 --   130 C    1.410   132 C    1.409   218 H    0.961
   132   6 C    3.979 --   131 C    1.409   125 C    1.291   133 C    1.082
   133   6 C    3.972 --   134 C    1.503   122 C    1.120   132 C    1.082
   134   6 C    3.963 --   133 C    1.503   135 C    1.096   137 C    1.092
   135   6 C    3.944 --   136 N    2.764   134 C    1.096
   136   7 N    2.967 --   135 C    2.764
   137   6 C    3.944 --   138 N    2.762   134 C    1.092
   138   7 N    2.972 --   137 C    2.762
   139   1 H    0.991 --     1 C    0.939
   140   1 H    0.997 --     8 C    0.975
   141   1 H    0.996 --     8 C    0.973
   142   1 H    0.994 --     8 C    0.976
   143   1 H    0.995 --     9 C    0.964
   144   1 H    0.996 --    10 C    0.968
   145   1 H    0.995 --    11 C    0.960
   146   1 H    0.998 --    23 C    0.965
   147   1 H    0.997 --    24 C    0.959
   148   1 H    0.996 --    27 C    0.977
   149   1 H    0.994 --    27 C    0.977
   150   1 H    0.995 --    27 C    0.980
   151   1 H    0.997 --    28 C    0.967
   152   1 H    0.997 --    29 C    0.966
   153   1 H    0.999 --    31 C    0.966
   154   1 H    0.998 --    32 C    0.964
   155   1 H    0.996 --    35 C    0.981
   156   1 H    0.995 --    35 C    0.978
   157   1 H    0.995 --    35 C    0.977
   158   1 H    0.997 --    36 C    0.967
   159   1 H    0.998 --    37 C    0.965
   160   1 H    0.998 --    44 C    0.964
   161   1 H    0.997 --    45 C    0.967
   162   1 H    0.996 --    48 C    0.981
   163   1 H    0.996 --    48 C    0.981
   164   1 H    0.995 --    48 C    0.978
   165   1 H    0.998 --    49 C    0.965
   166   1 H    0.999 --    50 C    0.966
   167   1 H    0.997 --    52 C    0.959
   168   1 H    0.997 --    53 C    0.967
   169   1 H    0.995 --    56 C    0.979
   170   1 H    0.995 --    56 C    0.974
   171   1 H    0.996 --    56 C    0.983
   172   1 H    0.997 --    57 C    0.962
   173   1 H    0.998 --    58 C    0.966
   174   1 H    0.998 --    65 C    0.963
   175   1 H    0.997 --    66 C    0.966
   176   1 H    0.996 --    69 C    0.983
   177   1 H    0.995 --    69 C    0.980
   178   1 H    0.997 --    69 C    0.983
   179   1 H    0.998 --    70 C    0.967
   180   1 H    0.999 --    71 C    0.965
   181   1 H    0.998 --    73 C    0.965
   182   1 H    0.998 --    74 C    0.965
   183   1 H    0.997 --    77 C    0.982
   184   1 H    0.995 --    77 C    0.978
   185   1 H    0.996 --    77 C    0.982
   186   1 H    0.996 --    78 C    0.963
   187   1 H    0.998 --    79 C    0.957
   188   1 H    0.998 --    86 C    0.967
   189   1 H    0.997 --    87 C    0.963
   190   1 H    0.996 --    90 C    0.977
   191   1 H    0.994 --    90 C    0.976
   192   1 H    0.995 --    90 C    0.980
   193   1 H    0.998 --    91 C    0.967
   194   1 H    0.998 --    92 C    0.967
   195   1 H    0.997 --    94 C    0.958
   196   1 H    0.996 --    95 C    0.959
   197   1 H    0.995 --    98 C    0.978
   198   1 H    0.996 --    98 C    0.982
   199   1 H    0.996 --    98 C    0.982
   200   1 H    0.998 --    99 C    0.965
   201   1 H    0.998 --   100 C    0.966
   202   1 H    0.993 --   111 C    0.953
   203   1 H    0.996 --   111 C    0.970
   204   1 H    0.997 --   112 C    0.986
   205   1 H    0.998 --   112 C    0.988
   206   1 H    0.996 --   112 C    0.983
   207   1 H    0.993 --   115 C    0.957
   208   1 H    0.993 --   115 C    0.954
   209   1 H    0.998 --   116 C    0.988
   210   1 H    0.998 --   116 C    0.986
   211   1 H    0.996 --   116 C    0.983
   212   1 H    0.988 --   121 C    0.923
   213   1 H    0.997 --   128 C    0.975
   214   1 H    0.997 --   128 C    0.975
   215   1 H    0.993 --   128 C    0.978
   216   1 H    0.996 --   129 C    0.964
   217   1 H    0.996 --   130 C    0.968
   218   1 H    0.995 --   131 C    0.961
 ---------------------------------------------------------------------------

Topologies differ in bond orders
Writing corrected topology to xtbtopo.mol

molecular dipole:
                 x           y           z       tot (Debye)
 q only:        1.567       1.335      -0.440
   full:        2.306       2.363      -0.228       8.412
molecular quadrupole (traceless):
                xx          xy          yy          xz          yz          zz
 q only:     -174.282     -16.414     103.164       4.954      49.521      71.118
  q+dip:     -213.178     -13.638     117.056       6.349      50.488      96.123
   full:     -217.030     -13.140     115.695       1.333      40.761     101.335


           -------------------------------------------------
          | TOTAL ENERGY             -369.632469912369 Eh   |
          | GRADIENT NORM               0.026290445256 Eh/α |
          | HOMO-LUMO GAP               0.233983483235 eV   |
           -------------------------------------------------

------------------------------------------------------------------------
 * finished run on 2022/02/08 at 03:22:19.343     
------------------------------------------------------------------------
 total:
 * wall-time:     0 d,  0 h,  0 min,  1.009 sec
 *  cpu-time:     0 d,  0 h,  0 min,  7.947 sec
 * ratio c/w:     7.873 speedup
 SCF:
 * wall-time:     0 d,  0 h,  0 min,  0.895 sec
 *  cpu-time:     0 d,  0 h,  0 min,  7.135 sec
 * ratio c/w:     7.969 speedup

