      -----------------------------------------------------------      
     |                   =====================                   |     
     |                           x T B                           |     
     |                   =====================                   |     
     |                         S. Grimme                         |     
     |          Mulliken Center for Theoretical Chemistry        |     
     |                    University of Bonn                     |     
      -----------------------------------------------------------      

   * xtb version 6.4.1 (unknown) compiled by 'oda6@login1.crc.pitt.edu' on 2021-06-25

   xtb is free software: you can redistribute it and/or modify it under
   the terms of the GNU Lesser General Public License as published by
   the Free Software Foundation, either version 3 of the License, or
   (at your option) any later version.
   
   xtb is distributed in the hope that it will be useful,
   but WITHOUT ANY WARRANTY; without even the implied warranty of
   MERCHANTABILITY or FITNESS FOR A PARTICULAR PURPOSE.  See the
   GNU Lesser General Public License for more details.
   
   Cite this work as:
   * C. Bannwarth, E. Caldeweyher, S. Ehlert, A. Hansen, P. Pracht,
     J. Seibert, S. Spicher, S. Grimme, WIREs Comput. Mol. Sci., 2020, 11,
     e01493. DOI: 10.1002/wcms.1493
   
   for GFN2-xTB:
   * C. Bannwarth, S. Ehlert and S. Grimme., J. Chem. Theory Comput., 2019,
     15, 1652-1671. DOI: 10.1021/acs.jctc.8b01176
   for GFN1-xTB:
   * S. Grimme, C. Bannwarth, P. Shushkov, J. Chem. Theory Comput., 2017,
     13, 1989-2009. DOI: 10.1021/acs.jctc.7b00118
   for GFN0-xTB:
   * P. Pracht, E. Caldeweyher, S. Ehlert, S. Grimme, ChemRxiv, 2019, preprint.
     DOI: 10.26434/chemrxiv.8326202.v1
   for GFN-FF:
   * S. Spicher and S. Grimme, Angew. Chem. Int. Ed., 2020, 59, 15665-15673.
     DOI: 10.1002/anie.202004239
   
   for DFT-D4:
   * E. Caldeweyher, C. Bannwarth and S. Grimme, J. Chem. Phys., 2017,
     147, 034112. DOI: 10.1063/1.4993215
   * E. Caldeweyher, S. Ehlert, A. Hansen, H. Neugebauer, S. Spicher,
     C. Bannwarth and S. Grimme, J. Chem. Phys., 2019, 150, 154122.
     DOI: 10.1063/1.5090222
   * E. Caldeweyher, J.-M. Mewes, S. Ehlert and S. Grimme, Phys. Chem. Chem. Phys.
     2020, 22, 8499-8512. DOI: 10.1039/D0CP00502A
   
   for sTDA-xTB:
   * S. Grimme and C. Bannwarth, J. Chem. Phys., 2016, 145, 054103.
     DOI: 10.1063/1.4959605
   
   in the mass-spec context:
   * V. Asgeirsson, C. Bauer and S. Grimme, Chem. Sci., 2017, 8, 4879.
     DOI: 10.1039/c7sc00601b
   * J. Koopman and S. Grimme, ACS Omega 2019, 4, 12, 15120-15133.
     DOI: 10.1021/acsomega.9b02011
   
   for metadynamics refer to:
   * S. Grimme, J. Chem. Theory Comput., 2019, 155, 2847-2862
     DOI: 10.1021/acs.jctc.9b00143
   
   for SPH calculations refer to:
   * S. Spicher and S. Grimme, J. Chem. Theory Comput., 2021, 17, 1701-1714
     DOI: 10.1021/acs.jctc.0c01306
   
   with help from (in alphabetical order)
   P. Atkinson, C. Bannwarth, F. Bohle, G. Brandenburg, E. Caldeweyher
   M. Checinski, S. Dohm, S. Ehlert, S. Ehrlich, I. Gerasimov, J. Koopman
   C. Lavigne, S. Lehtola, F. März, M. Müller, F. Musil, H. Neugebauer
   J. Pisarek, C. Plett, P. Pracht, J. Seibert, P. Shushkov, S. Spicher
   M. Stahn, M. Steiner, T. Strunk, J. Stückrath, T. Rose, and J. Unsleber
   
 * started run on 2022/02/06 at 01:20:56.112     

           -------------------------------------------------
          |                Calculation Setup                |
           -------------------------------------------------

          program call               : /ihome/ghutchison/oda6/xtb/xtb-641/bin/xtb ../../GFN2_output/39_130_17_50_39.mol --sp --alpb hexane
          hostname                   : smp-n57
          coordinate file            : ../../GFN2_output/39_130_17_50_39.mol
          omp threads                :                     8
          number of atoms            :                   179
          number of electrons        :                   542
          charge                     :                     0
          spin                       :                   0.0
          first test random number   :      0.66884366369420

   ID    Z sym.   atoms
    1    6 C      1-3, 5-13, 15, 17-25, 27-30, 32-38, 40-43, 45, 46, 48-51,
                  53-59, 61-64, 66, 68-70, 72-79, 81-83, 85-87, 89-91,
                  93-101, 103, 105-111
    2    8 O      4, 92
    3    7 N      14, 16, 26, 47, 102, 104
    4   16 S      31, 39, 44, 52, 60, 65, 67, 80, 84, 88
    5   32 Ge     71
    6    1 H      112-179

           -------------------------------------------------
          |                 G F N 2 - x T B                 |
           -------------------------------------------------

        Reference                      10.1021/acs.jctc.8b01176
      * Hamiltonian:
        H0-scaling (s, p, d)           1.850000    2.230000    2.230000
        zeta-weighting                 0.500000
      * Dispersion:
        s8                             2.700000
        a1                             0.520000
        a2                             5.000000
        s9                             5.000000
      * Repulsion:
        kExp                           1.500000    1.000000
        rExp                           1.000000
      * Coulomb:
        alpha                          2.000000
        third order                    shell-resolved
        anisotropic                    true
        a3                             3.000000
        a5                             4.000000
        cn-shift                       1.200000
        cn-exp                         4.000000
        max-rad                        5.000000

      * Solvation model:               ALPB
        Solvent                        hexane
        Parameter file                 internal GFN2-xTB/ALPB
        Dielectric constant                1.8800E+00
        Reference state                gsolv [1 M gas/solution]
        Free energy shift                  4.8134E-03 Eh       3.0204E+00 kcal/mol
        Temperature                        2.9815E+02 K
        Density                            6.6000E-01 kg/L
        Solvent mass                       8.6180E+01 g/mol
        Interaction kernel             P16
        Born radius scaling (c1)           1.1040E+00
        Born radii integrator          GBOBC
        Born offset                        0.0000E+00 a0       0.0000E+00 AA
        H-bond correction              false
        Ion screening                  false
        Surface tension                    1.0000E-05 Eh       1.5569E+01 dyn/cm
        Grid points                               230 per atom

          ...................................................
          :                      SETUP                      :
          :.................................................:
          :  # basis functions                 578          :
          :  # atomic orbitals                 567          :
          :  # shells                          301          :
          :  # electrons                       542          :
          :  max. iterations                   250          :
          :  Hamiltonian                  GFN2-xTB          :
          :  restarted?                      false          :
          :  GBSA solvation                   true          :
          :  PC potential                    false          :
          :  electronic temp.          300.0000000     K    :
          :  accuracy                    1.0000000          :
          :  -> integral cutoff          0.2500000E+02      :
          :  -> integral neglect         0.1000000E-07      :
          :  -> SCF convergence          0.1000000E-05 Eh   :
          :  -> wf. convergence          0.1000000E-03 e    :
          :  Broyden damping             0.4000000          :
          ...................................................

 iter      E             dE          RMSdq      gap      omega  full diag
   1   -295.8358575 -0.295836E+03  0.479E+00    0.78       0.0  T
   2   -295.8001659  0.356916E-01  0.308E+00    0.88       1.0  T
   3   -294.8379790  0.962187E+00  0.258E+00    0.70       1.0  T
   4   -296.1584788 -0.132050E+01  0.814E-01    0.61       1.0  T
   5   -296.3085343 -0.150056E+00  0.321E-01    0.65       1.0  T
   6   -296.3146664 -0.613209E-02  0.167E-01    0.63       1.0  T
   7   -296.3159836 -0.131725E-02  0.819E-02    0.68       1.0  T
   8   -296.3164567 -0.473006E-03  0.254E-02    0.66       1.0  T
   9   -296.3165107 -0.540770E-04  0.175E-02    0.67       1.0  T
  10   -296.3165162 -0.547948E-05  0.836E-03    0.67       1.0  T
  11   -296.3165200 -0.379966E-05  0.463E-03    0.67       1.6  T
  12   -296.3165214 -0.138607E-05  0.227E-03    0.67       3.3  T
  13   -296.3165217 -0.351438E-06  0.865E-04    0.67       8.6  T
  14   -296.3165218 -0.409674E-07  0.423E-04    0.67      17.7  T

   *** convergence criteria satisfied after 14 iterations ***

         #    Occupation            Energy/Eh            Energy/eV
      -------------------------------------------------------------
         1        2.0000           -0.7501373             -20.4123
       ...           ...                  ...                  ...
       265        2.0000           -0.3792485             -10.3199
       266        2.0000           -0.3713231             -10.1042
       267        2.0000           -0.3705541             -10.0833
       268        2.0000           -0.3703644             -10.0781
       269        2.0000           -0.3669959              -9.9865
       270        2.0000           -0.3627884              -9.8720
       271        2.0000           -0.3532595              -9.6127 (HOMO)
       272        0.0000           -0.3287764              -8.9465 (LUMO)
       273                         -0.3226979              -8.7811
       274                         -0.3168128              -8.6209
       275                         -0.3095072              -8.4221
       276                         -0.2936026              -7.9893
       ...                                ...                  ...
       567                          1.1599308              31.5633
      -------------------------------------------------------------
                  HL-Gap            0.0244831 Eh            0.6662 eV
             Fermi-level           -0.3410187 Eh           -9.2796 eV

 SCC (total)                   0 d,  0 h,  0 min,  0.622 sec
 SCC setup                      ...        0 min,  0.007 sec (  1.054%)
 Dispersion                     ...        0 min,  0.010 sec (  1.568%)
 classical contributions        ...        0 min,  0.000 sec (  0.054%)
 integral evaluation            ...        0 min,  0.032 sec (  5.180%)
 iterations                     ...        0 min,  0.470 sec ( 75.484%)
 molecular gradient             ...        0 min,  0.101 sec ( 16.202%)
 printout                       ...        0 min,  0.003 sec (  0.444%)

         :::::::::::::::::::::::::::::::::::::::::::::::::::::
         ::                     SUMMARY                     ::
         :::::::::::::::::::::::::::::::::::::::::::::::::::::
         :: total energy            -291.651140302912 Eh    ::
         :: total w/o Gsasa/hb      -291.547559677066 Eh    ::
         :: gradient norm              0.021572001883 Eh/a0 ::
         :: HOMO-LUMO gap              0.666219508182 eV    ::
         ::.................................................::
         :: SCC energy              -296.316521785446 Eh    ::
         :: -> isotropic ES            0.133692148487 Eh    ::
         :: -> anisotropic ES          0.015926957707 Eh    ::
         :: -> anisotropic XC          0.190897483162 Eh    ::
         :: -> dispersion             -0.308762357587 Eh    ::
         :: -> Gsolv                  -0.126886848059 Eh    ::
         ::    -> Gelec               -0.023306222213 Eh    ::
         ::    -> Gsasa               -0.108393981666 Eh    ::
         ::    -> Ghb                  0.000000000000 Eh    ::
         ::    -> Gshift               0.004813355820 Eh    ::
         :: repulsion energy           4.660587820292 Eh    ::
         :: add. restraining           0.000000000000 Eh    ::
         :: total charge              -0.000000000000 e     ::
         :::::::::::::::::::::::::::::::::::::::::::::::::::::

           -------------------------------------------------
          |                Property Printout                |
           -------------------------------------------------

    * Orbital Energies and Occupations

         #    Occupation            Energy/Eh            Energy/eV
      -------------------------------------------------------------
         1        2.0000           -0.7501373             -20.4123
       ...           ...                  ...                  ...
       259        2.0000           -0.4014686             -10.9245
       260        2.0000           -0.3970025             -10.8030
       261        2.0000           -0.3933822             -10.7045
       262        2.0000           -0.3903636             -10.6223
       263        2.0000           -0.3895650             -10.6006
       264        2.0000           -0.3871759             -10.5356
       265        2.0000           -0.3792485             -10.3199
       266        2.0000           -0.3713231             -10.1042
       267        2.0000           -0.3705541             -10.0833
       268        2.0000           -0.3703644             -10.0781
       269        2.0000           -0.3669959              -9.9865
       270        2.0000           -0.3627884              -9.8720
       271        2.0000           -0.3532595              -9.6127 (HOMO)
       272        0.0000           -0.3287764              -8.9465 (LUMO)
       273                         -0.3226979              -8.7811
       274                         -0.3168128              -8.6209
       275                         -0.3095072              -8.4221
       276                         -0.2936026              -7.9893
       277                         -0.2710443              -7.3755
       278                         -0.2580890              -7.0230
       279                         -0.2529018              -6.8818
       280                         -0.2496683              -6.7938
       281                         -0.2471579              -6.7255
       282                         -0.2461957              -6.6993
       ...                                ...                  ...
       567                          1.1599308              31.5633
      -------------------------------------------------------------
                  HL-Gap            0.0244831 Eh            0.6662 eV
             Fermi-level           -0.3410187 Eh           -9.2796 eV

     #   Z          covCN         q      C6AA      α(0)
     1   6 C        2.954    -0.014    28.364     8.735
     2   6 C        3.013    -0.049    29.199     8.864
     3   6 C        2.874     0.227    23.238     7.902
     4   8 O        0.856    -0.449    22.695     6.387
     5   6 C        3.062    -0.025    28.554     8.763
     6   6 C        2.904    -0.024    28.595     8.768
     7   6 C        3.259     0.009    26.672     8.346
     8   6 C        3.258     0.011    26.640     8.343
     9   6 C        2.905    -0.032    28.795     8.799
    10   6 C        3.051     0.001    27.958     8.672
    11   6 C        3.025     0.034    27.209     8.556
    12   6 C        2.948    -0.004    28.123     8.698
    13   6 C        1.942     0.128    27.950     8.538
    14   7 N        0.911    -0.285    27.352     7.564
    15   6 C        1.942     0.132    27.861     8.524
    16   7 N        0.911    -0.286    27.374     7.567
    17   6 C        4.162    -0.022    20.882     6.490
    18   6 C        4.013    -0.015    20.768     6.474
    19   6 C        2.995    -0.042    29.020     8.837
    20   6 C        2.995    -0.042    29.043     8.840
    21   6 C        4.013    -0.015    20.766     6.474
    22   6 C        3.915    -0.059    21.579     6.602
    23   6 C        4.162    -0.022    20.877     6.489
    24   6 C        2.990     0.013    27.718     8.636
    25   6 C        3.034     0.072    26.367     8.422
    26   7 N        2.749    -0.026    21.746     6.926
    27   6 C        2.953     0.060    26.651     8.467
    28   6 C        2.922    -0.033    28.833     8.806
    29   6 C        2.977    -0.034    28.848     8.810
    30   6 C        2.966     0.055    26.772     8.487
    31  16 S        2.031    -0.177   148.570    20.515
    32   6 C        3.744    -0.052    21.572     6.626
    33   6 C        2.948    -0.040    28.982     8.830
    34   6 C        2.921    -0.038    28.948     8.823
    35   6 C        2.921     0.061    26.637     8.464
    36   6 C        2.922    -0.044    29.094     8.845
    37   6 C        2.942    -0.044    29.096     8.847
    38   6 C        2.965     0.047    26.948     8.515
    39  16 S        2.038    -0.165   148.047    20.479
    40   6 C        3.745    -0.051    21.555     6.623
    41   6 C        2.987    -0.040    28.980     8.831
    42   6 C        2.923    -0.039    28.976     8.827
    43   6 C        3.176     0.004    27.539     8.569
    44  16 S        2.440    -0.069   143.909    20.190
    45   6 C        3.044     0.002    27.937     8.669
    46   6 C        3.055     0.045    26.929     8.510
    47   7 N        2.748    -0.064    22.472     7.041
    48   6 C        2.930     0.058    26.706     8.475
    49   6 C        2.923    -0.045    29.109     8.848
    50   6 C        2.943    -0.044    29.091     8.846
    51   6 C        2.966     0.049    26.896     8.507
    52  16 S        2.036    -0.182   148.761    20.528
    53   6 C        3.744    -0.052    21.572     6.626
    54   6 C        2.986    -0.038    28.925     8.822
    55   6 C        2.922    -0.043    29.056     8.840
    56   6 C        2.921     0.060    26.663     8.468
    57   6 C        2.923    -0.047    29.168     8.857
    58   6 C        2.983    -0.040    28.990     8.832
    59   6 C        2.965     0.044    27.010     8.525
    60  16 S        2.033    -0.181   148.741    20.527
    61   6 C        3.744    -0.051    21.562     6.624
    62   6 C        2.942    -0.044    29.099     8.847
    63   6 C        2.924    -0.049    29.229     8.866
    64   6 C        3.177     0.014    27.292     8.530
    65  16 S        2.272    -0.067   143.832    20.185
    66   6 C        3.049     0.021    27.487     8.599
    67  16 S        2.437    -0.050   143.145    20.137
    68   6 C        3.113     0.019    27.427     8.579
    69   6 C        3.112     0.021    27.387     8.573
    70   6 C        3.042    -0.074    29.805     8.954
    71  32 Ge       3.740     0.186   167.935    23.263
    72   6 C        3.704    -0.089    22.360     6.760
    73   6 C        3.763    -0.106    22.561     6.771
    74   6 C        3.705    -0.089    22.355     6.759
    75   6 C        3.767    -0.103    22.512     6.762
    76   6 C        3.053    -0.076    29.834     8.958
    77   6 C        3.084    -0.051    29.159     8.852
    78   6 C        3.084    -0.043    28.974     8.824
    79   6 C        3.029     0.018    27.581     8.614
    80  16 S        2.323    -0.024   142.032    20.058
    81   6 C        3.034     0.019    27.555     8.610
    82   6 C        3.100    -0.055    29.235     8.861
    83   6 C        3.141     0.046    26.740     8.462
    84  16 S        2.027    -0.210   150.025    20.615
    85   6 C        3.793     0.003    20.541     6.454
    86   6 C        3.781    -0.103    22.484     6.755
    87   6 C        2.998     0.019    27.567     8.613
    88  16 S        2.440     0.028   139.936    19.910
    89   6 C        2.918    -0.011    28.299     8.723
    90   6 C        3.007    -0.040    28.980     8.831
    91   6 C        2.875     0.231    23.160     7.889
    92   8 O        0.957    -0.403    21.688     6.246
    93   6 C        3.061    -0.021    28.462     8.749
    94   6 C        2.904    -0.022    28.553     8.762
    95   6 C        3.260     0.010    26.631     8.339
    96   6 C        3.256     0.012    26.638     8.346
    97   6 C        2.904    -0.034    28.847     8.807
    98   6 C        3.050     0.005    27.864     8.657
    99   6 C        3.024     0.036    27.177     8.551
   100   6 C        2.947     0.006    27.892     8.662
   101   6 C        1.943     0.133    27.825     8.518
   102   7 N        0.911    -0.271    27.000     7.515
   103   6 C        1.943     0.131    27.880     8.527
   104   7 N        0.911    -0.274    27.080     7.526
   105   6 C        4.162    -0.022    20.883     6.490
   106   6 C        4.013    -0.015    20.766     6.474
   107   6 C        2.995    -0.042    29.021     8.837
   108   6 C        2.995    -0.042    29.033     8.839
   109   6 C        4.013    -0.015    20.766     6.474
   110   6 C        3.915    -0.059    21.581     6.603
   111   6 C        4.160    -0.022    20.880     6.490
   112   1 H        0.925     0.062     2.174     2.305
   113   1 H        0.926     0.055     2.255     2.348
   114   1 H        0.926     0.054     2.264     2.353
   115   1 H        0.925     0.046     2.369     2.407
   116   1 H        0.925     0.039     2.465     2.455
   117   1 H        0.926     0.038     2.480     2.463
   118   1 H        0.926     0.037     2.491     2.468
   119   1 H        0.925     0.037     2.483     2.464
   120   1 H        0.925     0.039     2.458     2.452
   121   1 H        0.925     0.035     2.514     2.479
   122   1 H        0.925     0.043     2.407     2.426
   123   1 H        0.926     0.071     2.070     2.250
   124   1 H        0.926     0.059     2.207     2.323
   125   1 H        0.925     0.075     2.037     2.232
   126   1 H        0.925     0.064     2.148     2.292
   127   1 H        0.925     0.060     2.197     2.318
   128   1 H        0.926     0.054     2.271     2.357
   129   1 H        0.926     0.046     2.372     2.409
   130   1 H        0.926     0.043     2.408     2.427
   131   1 H        0.926     0.047     2.358     2.401
   132   1 H        0.925     0.064     2.147     2.292
   133   1 H        0.925     0.076     2.021     2.223
   134   1 H        0.925     0.062     2.174     2.306
   135   1 H        0.926     0.052     2.292     2.367
   136   1 H        0.926     0.052     2.296     2.370
   137   1 H        0.926     0.044     2.394     2.420
   138   1 H        0.926     0.049     2.337     2.391
   139   1 H        0.925     0.064     2.153     2.295
   140   1 H        0.925     0.070     2.085     2.258
   141   1 H        0.925     0.062     2.172     2.305
   142   1 H        0.926     0.051     2.310     2.377
   143   1 H        0.926     0.041     2.439     2.442
   144   1 H        0.926     0.044     2.398     2.422
   145   1 H        0.926     0.049     2.334     2.389
   146   1 H        0.925     0.069     2.095     2.263
   147   1 H        0.925     0.060     2.204     2.321
   148   1 H        0.925     0.061     2.191     2.315
   149   1 H        0.926     0.044     2.395     2.420
   150   1 H        0.926     0.034     2.529     2.487
   151   1 H        0.925     0.059     2.208     2.324
   152   1 H        0.925     0.055     2.253     2.347
   153   1 H        0.925     0.045     2.382     2.414
   154   1 H        0.925     0.041     2.431     2.438
   155   1 H        0.925     0.049     2.335     2.390
   156   1 H        0.925     0.054     2.275     2.359
   157   1 H        0.925     0.054     2.268     2.355
   158   1 H        0.925     0.043     2.406     2.426
   159   1 H        0.925     0.042     2.423     2.434
   160   1 H        0.925     0.046     2.376     2.410
   161   1 H        0.926     0.047     2.355     2.400
   162   1 H        0.926     0.053     2.282     2.362
   163   1 H        0.926     0.062     2.171     2.304
   164   1 H        0.925     0.070     2.085     2.258
   165   1 H        0.925     0.051     2.307     2.375
   166   1 H        0.925     0.053     2.282     2.362
   167   1 H        0.925     0.050     2.326     2.385
   168   1 H        0.925     0.040     2.444     2.445
   169   1 H        0.925     0.075     2.036     2.231
   170   1 H        0.926     0.061     2.191     2.314
   171   1 H        0.926     0.057     2.229     2.335
   172   1 H        0.925     0.045     2.378     2.412
   173   1 H        0.925     0.040     2.455     2.450
   174   1 H        0.926     0.038     2.471     2.458
   175   1 H        0.926     0.038     2.476     2.461
   176   1 H        0.925     0.039     2.458     2.452
   177   1 H        0.925     0.035     2.516     2.480
   178   1 H        0.925     0.040     2.443     2.444
   179   1 H        0.925     0.045     2.387     2.416

 Mol. C6AA /au·bohr⁶  :     560688.551849
 Mol. C8AA /au·bohr⁸  :   16414278.836208
 Mol. α(0) /au        :       1199.873435


Wiberg/Mayer (AO) data.
largest (>0.10) Wiberg bond orders for each atom

 ---------------------------------------------------------------------------
     #   Z sym  total        # sym  WBO       # sym  WBO       # sym  WBO
 ---------------------------------------------------------------------------
     1   6 C    3.948 --     2 C    1.424    24 C    1.356   112 H    0.947
     2   6 C    3.953 --     1 C    1.424    11 C    1.178     3 C    1.058
     3   6 C    3.923 --     4 O    1.688     2 C    1.058     5 C    1.019
     4   8 O    1.984 --     3 C    1.688
     5   6 C    3.974 --     6 C    1.387    10 C    1.313     3 C    1.019
     6   6 C    3.980 --     7 C    1.437     5 C    1.387   113 H    0.964
     7   6 C    3.956 --     6 C    1.437     8 C    1.331    23 C    0.992
     8   6 C    3.966 --     9 C    1.445     7 C    1.331    17 C    0.993
     9   6 C    3.977 --     8 C    1.445    10 C    1.370   114 H    0.959
    10   6 C    3.982 --     9 C    1.370     5 C    1.313    11 C    1.082
    11   6 C    3.971 --    12 C    1.439     2 C    1.178    10 C    1.082
    12   6 C    3.953 --    11 C    1.439    15 C    1.112    13 C    1.107
    13   6 C    3.942 --    14 N    2.740    12 C    1.107
    14   7 N    2.954 --    13 C    2.740
    15   6 C    3.941 --    16 N    2.735    12 C    1.112
    16   7 N    2.948 --    15 C    2.735
    17   6 C    3.985 --     8 C    0.993    23 C    0.975   115 H    0.961
                            18 C    0.951
    18   6 C    3.990 --    19 C    1.004    22 C    0.989   116 H    0.971
                            17 C    0.951
    19   6 C    3.982 --    20 C    1.923    18 C    1.004   117 H    0.971
    20   6 C    3.982 --    19 C    1.923    21 C    1.004   118 H    0.971
    21   6 C    3.989 --    20 C    1.004    22 C    0.989   119 H    0.971
                            23 C    0.951
    22   6 C    3.994 --    21 C    0.989    18 C    0.989   120 H    0.978
                           121 H    0.974
    23   6 C    3.984 --     7 C    0.992    17 C    0.975   122 H    0.962
                            21 C    0.951
    24   6 C    3.917 --     1 C    1.356    25 C    1.282    65 S    1.049
    25   6 C    3.949 --    24 C    1.282    43 C    1.234    26 N    1.181
    26   7 N    3.555 --    25 C    1.181    35 C    1.071    27 C    0.992
    27   6 C    3.957 --    34 C    1.382    28 C    1.368    26 N    0.992
    28   6 C    3.982 --    29 C    1.466    27 C    1.368   123 H    0.961
    29   6 C    3.987 --    28 C    1.466    30 C    1.376   124 H    0.966
                            34 C    0.102
    30   6 C    3.960 --    33 C    1.387    29 C    1.376    31 S    1.052
    31  16 S    2.241 --    30 C    1.052    32 C    1.003
    32   6 C    3.970 --    31 S    1.003   127 H    0.982   126 H    0.981
                           125 H    0.977
    33   6 C    3.988 --    34 C    1.450    30 C    1.387   128 H    0.964
    34   6 C    3.982 --    33 C    1.450    27 C    1.382   129 H    0.967
                            29 C    0.102
    35   6 C    3.961 --    36 C    1.355    42 C    1.332    26 N    1.071
    36   6 C    3.985 --    37 C    1.454    35 C    1.355   130 H    0.966
    37   6 C    3.989 --    36 C    1.454    38 C    1.381   131 H    0.964
    38   6 C    3.958 --    37 C    1.381    41 C    1.356    39 S    1.065
    39  16 S    2.275 --    38 C    1.065    40 C    1.009
    40   6 C    3.970 --    39 S    1.009   132 H    0.980   134 H    0.978
                           133 H    0.975
    41   6 C    3.989 --    42 C    1.487    38 C    1.356   135 H    0.966
    42   6 C    3.982 --    41 C    1.487    35 C    1.332   136 H    0.964
    43   6 C    3.924 --    64 C    1.362    25 C    1.234    44 S    1.099
    44  16 S    2.566 --    43 C    1.099    45 C    1.097
    45   6 C    3.905 --    46 C    1.373    66 C    1.197    44 S    1.097
    46   6 C    3.941 --    45 C    1.373    64 C    1.232    47 N    1.091
    47   7 N    3.490 --    46 C    1.091    56 C    1.065    48 C    1.038
    48   6 C    3.961 --    49 C    1.373    55 C    1.353    47 N    1.038
    49   6 C    3.981 --    50 C    1.452    48 C    1.373   137 H    0.966
                            54 C    0.102
    50   6 C    3.988 --    49 C    1.452    51 C    1.385   138 H    0.964
    51   6 C    3.952 --    50 C    1.385    54 C    1.367    52 S    1.052
    52  16 S    2.255 --    51 C    1.052    53 C    1.009
    53   6 C    3.973 --    52 S    1.009   141 H    0.981   139 H    0.981
                           140 H    0.977
    54   6 C    3.989 --    55 C    1.476    51 C    1.367   142 H    0.967
                            49 C    0.102
    55   6 C    3.984 --    54 C    1.476    48 C    1.353   143 H    0.966
    56   6 C    3.963 --    63 C    1.365    57 C    1.340    47 N    1.065
    57   6 C    3.982 --    58 C    1.482    56 C    1.340   144 H    0.965
    58   6 C    3.989 --    57 C    1.482    59 C    1.362   145 H    0.967
    59   6 C    3.954 --    62 C    1.390    58 C    1.362    60 S    1.046
    60  16 S    2.247 --    59 C    1.046    61 C    1.010
    61   6 C    3.975 --    60 S    1.010   148 H    0.981   147 H    0.980
                           146 H    0.977
    62   6 C    3.989 --    63 C    1.449    59 C    1.390   149 H    0.964
    63   6 C    3.985 --    62 C    1.449    56 C    1.365   150 H    0.966
    64   6 C    3.932 --    43 C    1.362    46 C    1.232    65 S    1.116
    65  16 S    2.488 --    64 C    1.116    24 C    1.049
    66   6 C    3.911 --    77 C    1.431    45 C    1.197    67 S    1.112
    67  16 S    2.568 --    68 C    1.137    66 C    1.112
    68   6 C    3.913 --    76 C    1.401    69 C    1.208    67 S    1.137
    69   6 C    3.921 --    70 C    1.383    68 C    1.208    80 S    1.161
    70   6 C    3.931 --    78 C    1.388    69 C    1.383    71 Ge   0.819
    71  32 Ge   3.527 --    72 C    0.833    74 C    0.832    70 C    0.819
                            76 C    0.817
    72   6 C    3.975 --    73 C    1.025   151 H    0.959   152 H    0.959
                            71 Ge   0.833
    73   6 C    3.994 --    72 C    1.025   154 H    0.984   153 H    0.984
                           155 H    0.981
    74   6 C    3.978 --    75 C    1.025   157 H    0.961   156 H    0.961
                            71 Ge   0.832
    75   6 C    3.995 --    74 C    1.025   159 H    0.983   158 H    0.983
                           160 H    0.981
    76   6 C    3.930 --    68 C    1.401    77 C    1.369    71 Ge   0.817
    77   6 C    3.961 --    66 C    1.431    76 C    1.369   161 H    0.955
    78   6 C    3.960 --    79 C    1.415    70 C    1.388   162 H    0.959
    79   6 C    3.915 --    78 C    1.415    81 C    1.207    80 S    1.116
    80  16 S    2.588 --    69 C    1.161    79 C    1.116
    81   6 C    3.940 --    82 C    1.379    79 C    1.207    88 S    1.171
    82   6 C    3.959 --    83 C    1.410    81 C    1.379   163 H    0.962
    83   6 C    3.942 --    82 C    1.410    87 C    1.312    84 S    1.020
    84  16 S    2.154 --    83 C    1.020    85 C    0.956
    85   6 C    3.966 --    86 C    1.028   165 H    0.971   164 H    0.968
                            84 S    0.956
    86   6 C    3.993 --    85 C    1.028   166 H    0.986   168 H    0.985
                           167 H    0.977
    87   6 C    3.930 --    89 C    1.317    83 C    1.312    88 S    1.108
    88  16 S    2.749 --    81 C    1.171    87 C    1.108    92 O    0.127
    89   6 C    3.946 --    90 C    1.481    87 C    1.317   169 H    0.936
    90   6 C    3.951 --    89 C    1.481    99 C    1.143    91 C    1.067
    91   6 C    3.908 --    92 O    1.680    90 C    1.067    93 C    1.032
    92   8 O    2.082 --    91 C    1.680    88 S    0.127
    93   6 C    3.969 --    94 C    1.379    98 C    1.308    91 C    1.032
    94   6 C    3.979 --    95 C    1.442    93 C    1.379   170 H    0.964
    95   6 C    3.955 --    94 C    1.442    96 C    1.325   111 C    0.992
    96   6 C    3.964 --    97 C    1.447    95 C    1.325   105 C    0.994
    97   6 C    3.976 --    96 C    1.447    98 C    1.367   171 H    0.958
    98   6 C    3.975 --    97 C    1.367    93 C    1.308    99 C    1.086
    99   6 C    3.966 --   100 C    1.471    90 C    1.143    98 C    1.086
   100   6 C    3.946 --    99 C    1.471   103 C    1.102   101 C    1.101
   101   6 C    3.941 --   102 N    2.752   100 C    1.101
   102   7 N    2.958 --   101 C    2.752
   103   6 C    3.942 --   104 N    2.743   100 C    1.102
   104   7 N    2.955 --   103 C    2.743
   105   6 C    3.984 --    96 C    0.994   111 C    0.975   172 H    0.961
                           106 C    0.951
   106   6 C    3.989 --   107 C    1.004   110 C    0.989   173 H    0.971
                           105 C    0.951
   107   6 C    3.982 --   108 C    1.923   106 C    1.004   174 H    0.971
   108   6 C    3.982 --   107 C    1.923   109 C    1.004   175 H    0.971
   109   6 C    3.988 --   108 C    1.004   110 C    0.989   176 H    0.971
                           111 C    0.950
   110   6 C    3.994 --   106 C    0.989   109 C    0.989   178 H    0.978
                           177 H    0.974
   111   6 C    3.984 --    95 C    0.992   105 C    0.975   179 H    0.961
                           109 C    0.950
   112   1 H    0.993 --     1 C    0.947
   113   1 H    0.996 --     6 C    0.964
   114   1 H    0.997 --     9 C    0.959
   115   1 H    0.996 --    17 C    0.961
   116   1 H    0.998 --    18 C    0.971
   117   1 H    0.998 --    19 C    0.971
   118   1 H    0.998 --    20 C    0.971
   119   1 H    0.998 --    21 C    0.971
   120   1 H    0.998 --    22 C    0.978
   121   1 H    0.999 --    22 C    0.974
   122   1 H    0.996 --    23 C    0.962
   123   1 H    0.995 --    28 C    0.961
   124   1 H    0.996 --    29 C    0.966
   125   1 H    0.994 --    32 C    0.977
   126   1 H    0.996 --    32 C    0.981
   127   1 H    0.996 --    32 C    0.982
   128   1 H    0.996 --    33 C    0.964
   129   1 H    0.998 --    34 C    0.967
   130   1 H    0.998 --    36 C    0.966
   131   1 H    0.997 --    37 C    0.964
   132   1 H    0.995 --    40 C    0.980
   133   1 H    0.994 --    40 C    0.975
   134   1 H    0.995 --    40 C    0.978
   135   1 H    0.997 --    41 C    0.966
   136   1 H    0.997 --    42 C    0.964
   137   1 H    0.998 --    49 C    0.966
   138   1 H    0.997 --    50 C    0.964
   139   1 H    0.996 --    53 C    0.981
   140   1 H    0.995 --    53 C    0.977
   141   1 H    0.995 --    53 C    0.981
   142   1 H    0.997 --    54 C    0.967
   143   1 H    0.998 --    55 C    0.966
   144   1 H    0.998 --    57 C    0.965
   145   1 H    0.997 --    58 C    0.967
   146   1 H    0.995 --    61 C    0.977
   147   1 H    0.996 --    61 C    0.980
   148   1 H    0.996 --    61 C    0.981
   149   1 H    0.998 --    62 C    0.964
   150   1 H    0.999 --    63 C    0.966
   151   1 H    0.996 --    72 C    0.959
   152   1 H    0.996 --    72 C    0.959
   153   1 H    0.998 --    73 C    0.984
   154   1 H    0.998 --    73 C    0.984
   155   1 H    0.993 --    73 C    0.981
   156   1 H    0.996 --    74 C    0.961
   157   1 H    0.996 --    74 C    0.961
   158   1 H    0.998 --    75 C    0.983
   159   1 H    0.998 --    75 C    0.983
   160   1 H    0.993 --    75 C    0.981
   161   1 H    0.997 --    77 C    0.955
   162   1 H    0.997 --    78 C    0.959
   163   1 H    0.995 --    82 C    0.962
   164   1 H    0.994 --    85 C    0.968
   165   1 H    0.997 --    85 C    0.971
   166   1 H    0.997 --    86 C    0.986
   167   1 H    0.997 --    86 C    0.977
   168   1 H    0.998 --    86 C    0.985
   169   1 H    0.993 --    89 C    0.936
   170   1 H    0.996 --    94 C    0.964
   171   1 H    0.996 --    97 C    0.958
   172   1 H    0.996 --   105 C    0.961
   173   1 H    0.998 --   106 C    0.971
   174   1 H    0.998 --   107 C    0.971
   175   1 H    0.998 --   108 C    0.971
   176   1 H    0.998 --   109 C    0.971
   177   1 H    0.999 --   110 C    0.974
   178   1 H    0.998 --   110 C    0.978
   179   1 H    0.996 --   111 C    0.961
 ---------------------------------------------------------------------------

Topologies differ in bond orders
Writing corrected topology to xtbtopo.mol

molecular dipole:
                 x           y           z       tot (Debye)
 q only:       -0.000       0.941      -1.243
   full:        0.669       0.559      -1.206       3.782
molecular quadrupole (traceless):
                xx          xy          yy          xz          yz          zz
 q only:       15.213      55.300     106.341      64.221    -128.532    -121.554
  q+dip:       25.142      64.562      88.491      65.770    -132.722    -113.633
   full:       32.591      64.636      81.871      74.019    -131.340    -114.462


           -------------------------------------------------
          | TOTAL ENERGY             -291.651140302912 Eh   |
          | GRADIENT NORM               0.021572001883 Eh/α |
          | HOMO-LUMO GAP               0.666219508182 eV   |
           -------------------------------------------------

------------------------------------------------------------------------
 * finished run on 2022/02/06 at 01:20:56.828     
------------------------------------------------------------------------
 total:
 * wall-time:     0 d,  0 h,  0 min,  0.717 sec
 *  cpu-time:     0 d,  0 h,  0 min,  5.632 sec
 * ratio c/w:     7.858 speedup
 SCF:
 * wall-time:     0 d,  0 h,  0 min,  0.625 sec
 *  cpu-time:     0 d,  0 h,  0 min,  4.993 sec
 * ratio c/w:     7.984 speedup

