      -----------------------------------------------------------      
     |                   =====================                   |     
     |                           x T B                           |     
     |                   =====================                   |     
     |                         S. Grimme                         |     
     |          Mulliken Center for Theoretical Chemistry        |     
     |                    University of Bonn                     |     
      -----------------------------------------------------------      

   * xtb version 6.4.1 (unknown) compiled by 'oda6@login1.crc.pitt.edu' on 2021-06-25

   xtb is free software: you can redistribute it and/or modify it under
   the terms of the GNU Lesser General Public License as published by
   the Free Software Foundation, either version 3 of the License, or
   (at your option) any later version.
   
   xtb is distributed in the hope that it will be useful,
   but WITHOUT ANY WARRANTY; without even the implied warranty of
   MERCHANTABILITY or FITNESS FOR A PARTICULAR PURPOSE.  See the
   GNU Lesser General Public License for more details.
   
   Cite this work as:
   * C. Bannwarth, E. Caldeweyher, S. Ehlert, A. Hansen, P. Pracht,
     J. Seibert, S. Spicher, S. Grimme, WIREs Comput. Mol. Sci., 2020, 11,
     e01493. DOI: 10.1002/wcms.1493
   
   for GFN2-xTB:
   * C. Bannwarth, S. Ehlert and S. Grimme., J. Chem. Theory Comput., 2019,
     15, 1652-1671. DOI: 10.1021/acs.jctc.8b01176
   for GFN1-xTB:
   * S. Grimme, C. Bannwarth, P. Shushkov, J. Chem. Theory Comput., 2017,
     13, 1989-2009. DOI: 10.1021/acs.jctc.7b00118
   for GFN0-xTB:
   * P. Pracht, E. Caldeweyher, S. Ehlert, S. Grimme, ChemRxiv, 2019, preprint.
     DOI: 10.26434/chemrxiv.8326202.v1
   for GFN-FF:
   * S. Spicher and S. Grimme, Angew. Chem. Int. Ed., 2020, 59, 15665-15673.
     DOI: 10.1002/anie.202004239
   
   for DFT-D4:
   * E. Caldeweyher, C. Bannwarth and S. Grimme, J. Chem. Phys., 2017,
     147, 034112. DOI: 10.1063/1.4993215
   * E. Caldeweyher, S. Ehlert, A. Hansen, H. Neugebauer, S. Spicher,
     C. Bannwarth and S. Grimme, J. Chem. Phys., 2019, 150, 154122.
     DOI: 10.1063/1.5090222
   * E. Caldeweyher, J.-M. Mewes, S. Ehlert and S. Grimme, Phys. Chem. Chem. Phys.
     2020, 22, 8499-8512. DOI: 10.1039/D0CP00502A
   
   for sTDA-xTB:
   * S. Grimme and C. Bannwarth, J. Chem. Phys., 2016, 145, 054103.
     DOI: 10.1063/1.4959605
   
   in the mass-spec context:
   * V. Asgeirsson, C. Bauer and S. Grimme, Chem. Sci., 2017, 8, 4879.
     DOI: 10.1039/c7sc00601b
   * J. Koopman and S. Grimme, ACS Omega 2019, 4, 12, 15120-15133.
     DOI: 10.1021/acsomega.9b02011
   
   for metadynamics refer to:
   * S. Grimme, J. Chem. Theory Comput., 2019, 155, 2847-2862
     DOI: 10.1021/acs.jctc.9b00143
   
   for SPH calculations refer to:
   * S. Spicher and S. Grimme, J. Chem. Theory Comput., 2021, 17, 1701-1714
     DOI: 10.1021/acs.jctc.0c01306
   
   with help from (in alphabetical order)
   P. Atkinson, C. Bannwarth, F. Bohle, G. Brandenburg, E. Caldeweyher
   M. Checinski, S. Dohm, S. Ehlert, S. Ehrlich, I. Gerasimov, J. Koopman
   C. Lavigne, S. Lehtola, F. März, M. Müller, F. Musil, H. Neugebauer
   J. Pisarek, C. Plett, P. Pracht, J. Seibert, P. Shushkov, S. Spicher
   M. Stahn, M. Steiner, T. Strunk, J. Stückrath, T. Rose, and J. Unsleber
   
 * started run on 2022/02/14 at 04:42:50.835     

           -------------------------------------------------
          |                Calculation Setup                |
           -------------------------------------------------

          program call               : /ihome/ghutchison/oda6/xtb/xtb-641/bin/xtb ../../GFN2_output/39_1_130_130_39.mol --sp --alpb hexane
          hostname                   : smp-n25
          coordinate file            : ../../GFN2_output/39_1_130_130_39.mol
          omp threads                :                     8
          number of atoms            :                   228
          number of electrons        :                   704
          charge                     :                     0
          spin                       :                   0.0
          first test random number   :      0.74258508445682

   ID    Z sym.   atoms
    1    6 C      1-3, 5-13, 15, 17-27, 30, 32-40, 42-45, 47-53, 55-58, 60,
                  61, 63-66, 68-74, 76-79, 81, 82, 84-87, 89-95, 97-100, 102,
                  103, 105-108, 110-116, 118-121, 123-125, 127-135, 137,
                  139-145
    2    8 O      4, 28, 31, 126
    3    7 N      14, 16, 29, 41, 62, 83, 104, 136, 138
    4   16 S      46, 54, 59, 67, 75, 80, 88, 96, 101, 109, 117, 122
    5    1 H      146-228

           -------------------------------------------------
          |                 G F N 2 - x T B                 |
           -------------------------------------------------

        Reference                      10.1021/acs.jctc.8b01176
      * Hamiltonian:
        H0-scaling (s, p, d)           1.850000    2.230000    2.230000
        zeta-weighting                 0.500000
      * Dispersion:
        s8                             2.700000
        a1                             0.520000
        a2                             5.000000
        s9                             5.000000
      * Repulsion:
        kExp                           1.500000    1.000000
        rExp                           1.000000
      * Coulomb:
        alpha                          2.000000
        third order                    shell-resolved
        anisotropic                    true
        a3                             3.000000
        a5                             4.000000
        cn-shift                       1.200000
        cn-exp                         4.000000
        max-rad                        5.000000

      * Solvation model:               ALPB
        Solvent                        hexane
        Parameter file                 internal GFN2-xTB/ALPB
        Dielectric constant                1.8800E+00
        Reference state                gsolv [1 M gas/solution]
        Free energy shift                  4.8134E-03 Eh       3.0204E+00 kcal/mol
        Temperature                        2.9815E+02 K
        Density                            6.6000E-01 kg/L
        Solvent mass                       8.6180E+01 g/mol
        Interaction kernel             P16
        Born radius scaling (c1)           1.1040E+00
        Born radii integrator          GBOBC
        Born offset                        0.0000E+00 a0       0.0000E+00 AA
        H-bond correction              false
        Ion screening                  false
        Surface tension                    1.0000E-05 Eh       1.5569E+01 dyn/cm
        Grid points                               230 per atom

          ...................................................
          :                      SETUP                      :
          :.................................................:
          :  # basis functions                 735          :
          :  # atomic orbitals                 723          :
          :  # shells                          385          :
          :  # electrons                       704          :
          :  max. iterations                   250          :
          :  Hamiltonian                  GFN2-xTB          :
          :  restarted?                      false          :
          :  GBSA solvation                   true          :
          :  PC potential                    false          :
          :  electronic temp.          300.0000000     K    :
          :  accuracy                    1.0000000          :
          :  -> integral cutoff          0.2500000E+02      :
          :  -> integral neglect         0.1000000E-07      :
          :  -> SCF convergence          0.1000000E-05 Eh   :
          :  -> wf. convergence          0.1000000E-03 e    :
          :  Broyden damping             0.4000000          :
          ...................................................

 iter      E             dE          RMSdq      gap      omega  full diag
   1   -386.6813610 -0.386681E+03  0.481E+00    0.82       0.0  T
   2   -386.9535471 -0.272186E+00  0.271E+00    0.74       1.0  T
   3   -386.8299558  0.123591E+00  0.118E+00    0.34       1.0  T
   4   -386.9778215 -0.147866E+00  0.514E-01    0.37       1.0  T
   5   -387.0095468 -0.317253E-01  0.170E-01    0.31       1.0  T
   6   -387.0101435 -0.596653E-03  0.714E-02    0.38       1.0  T
   7   -387.0106943 -0.550856E-03  0.290E-02    0.37       1.0  T
   8   -387.0107405 -0.461568E-04  0.170E-02    0.37       1.0  T
   9   -387.0107580 -0.174771E-04  0.866E-03    0.37       1.0  T
  10   -387.0107626 -0.462416E-05  0.385E-03    0.37       1.7  T
  11   -387.0107641 -0.148465E-05  0.177E-03    0.37       3.7  T
  12   -387.0107642 -0.914872E-07  0.992E-04    0.37       6.7  T
  13   -387.0107642 -0.677913E-07  0.426E-04    0.37      15.6  T

   *** convergence criteria satisfied after 13 iterations ***

         #    Occupation            Energy/Eh            Energy/eV
      -------------------------------------------------------------
         1        2.0000           -0.7505623             -20.4238
       ...           ...                  ...                  ...
       346        2.0000           -0.3718408             -10.1183
       347        2.0000           -0.3675544             -10.0017
       348        2.0000           -0.3672016              -9.9921
       349        2.0000           -0.3653974              -9.9430
       350        2.0000           -0.3595979              -9.7852
       351        2.0000           -0.3553811              -9.6704
       352        1.9985           -0.3501494              -9.5280 (HOMO)
       353        0.0015           -0.3365329              -9.1575 (LUMO)
       354                         -0.3271601              -8.9025
       355                         -0.3260953              -8.8735
       356                         -0.3159829              -8.5983
       357                         -0.3142991              -8.5525
       ...                                ...                  ...
       723                          1.1523103              31.3560
      -------------------------------------------------------------
                  HL-Gap            0.0136165 Eh            0.3705 eV
             Fermi-level           -0.3433392 Eh           -9.3427 eV

 SCC (total)                   0 d,  0 h,  0 min,  2.308 sec
 SCC setup                      ...        0 min,  0.011 sec (  0.477%)
 Dispersion                     ...        0 min,  0.014 sec (  0.617%)
 classical contributions        ...        0 min,  0.001 sec (  0.032%)
 integral evaluation            ...        0 min,  0.060 sec (  2.596%)
 iterations                     ...        0 min,  1.981 sec ( 85.841%)
 molecular gradient             ...        0 min,  0.234 sec ( 10.134%)
 printout                       ...        0 min,  0.007 sec (  0.300%)

         :::::::::::::::::::::::::::::::::::::::::::::::::::::
         ::                     SUMMARY                     ::
         :::::::::::::::::::::::::::::::::::::::::::::::::::::
         :: total energy            -380.851109197348 Eh    ::
         :: total w/o Gsasa/hb      -380.734830850079 Eh    ::
         :: gradient norm              0.028239767483 Eh/a0 ::
         :: HOMO-LUMO gap              0.370524710878 eV    ::
         ::.................................................::
         :: SCC energy              -387.010764220309 Eh    ::
         :: -> isotropic ES            0.217422469158 Eh    ::
         :: -> anisotropic ES          0.013820837002 Eh    ::
         :: -> anisotropic XC          0.237207662360 Eh    ::
         :: -> dispersion             -0.439594405806 Eh    ::
         :: -> Gsolv                  -0.150516026435 Eh    ::
         ::    -> Gelec               -0.034237679166 Eh    ::
         ::    -> Gsasa               -0.121091703089 Eh    ::
         ::    -> Ghb                  0.000000000000 Eh    ::
         ::    -> Gshift               0.004813355820 Eh    ::
         :: repulsion energy           6.136770324477 Eh    ::
         :: add. restraining           0.000000000000 Eh    ::
         :: total charge               0.000000000008 e     ::
         :::::::::::::::::::::::::::::::::::::::::::::::::::::

           -------------------------------------------------
          |                Property Printout                |
           -------------------------------------------------

    * Orbital Energies and Occupations

         #    Occupation            Energy/Eh            Energy/eV
      -------------------------------------------------------------
         1        2.0000           -0.7505623             -20.4238
       ...           ...                  ...                  ...
       340        2.0000           -0.3902703             -10.6198
       341        2.0000           -0.3872826             -10.5385
       342        2.0000           -0.3864835             -10.5168
       343        2.0000           -0.3805068             -10.3541
       344        2.0000           -0.3764974             -10.2450
       345        2.0000           -0.3726402             -10.1401
       346        2.0000           -0.3718408             -10.1183
       347        2.0000           -0.3675544             -10.0017
       348        2.0000           -0.3672016              -9.9921
       349        2.0000           -0.3653974              -9.9430
       350        2.0000           -0.3595979              -9.7852
       351        2.0000           -0.3553811              -9.6704
       352        1.9985           -0.3501494              -9.5280 (HOMO)
       353        0.0015           -0.3365329              -9.1575 (LUMO)
       354                         -0.3271601              -8.9025
       355                         -0.3260953              -8.8735
       356                         -0.3159829              -8.5983
       357                         -0.3142991              -8.5525
       358                         -0.2924242              -7.9573
       359                         -0.2733049              -7.4370
       360                         -0.2599984              -7.0749
       361                         -0.2567851              -6.9875
       362                         -0.2555952              -6.9551
       363                         -0.2542635              -6.9189
       ...                                ...                  ...
       723                          1.1523103              31.3560
      -------------------------------------------------------------
                  HL-Gap            0.0136165 Eh            0.3705 eV
             Fermi-level           -0.3433392 Eh           -9.3427 eV

     #   Z          covCN         q      C6AA      α(0)
     1   6 C        2.902    -0.003    28.107     8.693
     2   6 C        2.997    -0.025    28.624     8.776
     3   6 C        2.866     0.238    23.041     7.868
     4   8 O        0.856    -0.418    22.039     6.294
     5   6 C        3.056    -0.020    28.443     8.746
     6   6 C        2.904    -0.021    28.523     8.757
     7   6 C        3.262     0.018    26.431     8.304
     8   6 C        3.253     0.016    26.585     8.343
     9   6 C        2.904    -0.033    28.831     8.804
    10   6 C        3.042     0.008    27.791     8.647
    11   6 C        3.015     0.040    27.091     8.538
    12   6 C        2.947     0.015    27.680     8.629
    13   6 C        1.946     0.132    27.847     8.522
    14   7 N        0.911    -0.255    26.613     7.461
    15   6 C        1.947     0.136    27.766     8.509
    16   7 N        0.911    -0.256    26.641     7.465
    17   6 C        4.163    -0.022    20.887     6.491
    18   6 C        4.012    -0.015    20.760     6.473
    19   6 C        2.995    -0.042    29.027     8.838
    20   6 C        2.995    -0.039    28.967     8.829
    21   6 C        4.011    -0.016    20.785     6.477
    22   6 C        3.915    -0.060    21.585     6.603
    23   6 C        4.161    -0.021    20.861     6.487
    24   6 C        2.969     0.029    27.355     8.579
    25   6 C        2.925    -0.013    28.349     8.732
    26   6 C        2.973    -0.017    28.433     8.747
    27   6 C        2.758     0.291    22.062     7.692
    28   8 O        0.859    -0.438    22.449     6.352
    29   7 N        2.695    -0.166    24.599     7.366
    30   6 C        2.758     0.292    22.047     7.689
    31   8 O        0.859    -0.433    22.340     6.337
    32   6 C        2.973    -0.015    28.373     8.737
    33   6 C        2.929    -0.007    28.188     8.707
    34   6 C        3.000     0.027    27.392     8.585
    35   6 C        2.930    -0.033    28.829     8.805
    36   6 C        2.985     0.026    27.415     8.589
    37   6 C        2.929    -0.007    28.203     8.709
    38   6 C        2.996     0.017    27.631     8.623
    39   6 C        3.001     0.004    27.916     8.667
    40   6 C        3.071     0.049    26.836     8.494
    41   7 N        2.749    -0.076    22.720     7.079
    42   6 C        2.930     0.061    26.623     8.462
    43   6 C        2.921    -0.046    29.152     8.854
    44   6 C        2.946    -0.041    29.026     8.836
    45   6 C        2.965     0.047    26.946     8.514
    46  16 S        2.027    -0.195   149.340    20.568
    47   6 C        3.745    -0.042    21.404     6.600
    48   6 C        2.975    -0.033    28.826     8.807
    49   6 C        2.925    -0.040    29.003     8.832
    50   6 C        2.919     0.060    26.648     8.465
    51   6 C        2.922    -0.050    29.253     8.869
    52   6 C        2.985    -0.039    28.952     8.826
    53   6 C        2.965     0.044    27.017     8.526
    54  16 S        2.033    -0.192   149.203    20.559
    55   6 C        3.744    -0.050    21.537     6.620
    56   6 C        2.941    -0.046    29.147     8.855
    57   6 C        2.924    -0.054    29.337     8.882
    58   6 C        3.192     0.008    27.347     8.529
    59  16 S        2.328    -0.095   145.020    20.268
    60   6 C        3.050    -0.014    28.320     8.728
    61   6 C        3.035     0.056    26.706     8.476
    62   7 N        2.745    -0.086    22.925     7.111
    63   6 C        2.943     0.059    26.682     8.472
    64   6 C        2.924    -0.039    28.972     8.827
    65   6 C        2.944    -0.044    29.097     8.847
    66   6 C        2.966     0.054    26.776     8.488
    67  16 S        2.039    -0.162   147.889    20.468
    68   6 C        3.744    -0.054    21.625     6.634
    69   6 C        2.990    -0.037    28.904     8.819
    70   6 C        2.921    -0.038    28.939     8.822
    71   6 C        2.928     0.059    26.675     8.470
    72   6 C        2.922    -0.049    29.223     8.865
    73   6 C        2.943    -0.046    29.138     8.853
    74   6 C        2.965     0.048    26.914     8.510
    75  16 S        2.034    -0.179   148.632    20.519
    76   6 C        3.744    -0.050    21.541     6.621
    77   6 C        2.984    -0.037    28.919     8.821
    78   6 C        2.925    -0.043    29.075     8.843
    79   6 C        3.181    -0.002    27.649     8.584
    80  16 S        2.293    -0.050   143.124    20.135
    81   6 C        3.058     0.007    27.811     8.648
    82   6 C        3.058     0.047    26.901     8.506
    83   7 N        2.748    -0.070    22.600     7.061
    84   6 C        2.925     0.060    26.658     8.467
    85   6 C        2.922    -0.043    29.075     8.842
    86   6 C        2.976    -0.037    28.919     8.821
    87   6 C        2.965     0.047    26.934     8.513
    88  16 S        2.025    -0.220   150.438    20.643
    89   6 C        3.744    -0.046    21.473     6.610
    90   6 C        2.944    -0.043    29.070     8.843
    91   6 C        2.924    -0.046    29.134     8.851
    92   6 C        2.924     0.059    26.682     8.471
    93   6 C        2.925    -0.046    29.144     8.853
    94   6 C        2.984    -0.037    28.918     8.821
    95   6 C        2.966     0.046    26.960     8.517
    96  16 S        2.034    -0.188   149.022    20.546
    97   6 C        3.744    -0.051    21.554     6.623
    98   6 C        2.943    -0.045    29.113     8.849
    99   6 C        2.924    -0.049    29.228     8.866
   100   6 C        3.182     0.016    27.218     8.516
   101  16 S        2.280    -0.038   142.633    20.101
   102   6 C        2.989     0.004    27.934     8.670
   103   6 C        3.033     0.060    26.630     8.464
   104   7 N        2.746    -0.054    22.289     7.012
   105   6 C        2.924     0.059    26.675     8.470
   106   6 C        2.923    -0.042    29.037     8.837
   107   6 C        2.979    -0.039    28.968     8.829
   108   6 C        2.966     0.047    26.948     8.515
   109  16 S        2.033    -0.170   148.227    20.491
   110   6 C        3.744    -0.052    21.587     6.628
   111   6 C        2.947    -0.041    29.022     8.836
   112   6 C        2.923    -0.046    29.131     8.851
   113   6 C        2.933     0.057    26.719     8.477
   114   6 C        2.922    -0.039    28.973     8.827
   115   6 C        2.982    -0.037    28.911     8.820
   116   6 C        2.966     0.053    26.809     8.493
   117  16 S        2.035    -0.171   148.283    20.495
   118   6 C        3.744    -0.051    21.555     6.623
   119   6 C        2.946    -0.038    28.949     8.825
   120   6 C        2.933    -0.036    28.902     8.817
   121   6 C        3.175     0.002    27.594     8.579
   122  16 S        2.347    -0.076   144.236    20.213
   123   6 C        2.957    -0.013    28.331     8.730
   124   6 C        3.010    -0.046    29.120     8.852
   125   6 C        2.876     0.230    23.178     7.892
   126   8 O        0.856    -0.428    22.254     6.325
   127   6 C        3.060    -0.025    28.570     8.765
   128   6 C        2.904    -0.020    28.498     8.753
   129   6 C        3.261     0.012    26.580     8.329
   130   6 C        3.256     0.012    26.643     8.347
   131   6 C        2.904    -0.034    28.845     8.806
   132   6 C        3.052     0.003    27.904     8.663
   133   6 C        3.022     0.035    27.203     8.555
   134   6 C        2.948    -0.007    28.199     8.710
   135   6 C        1.944     0.131    27.875     8.526
   136   7 N        0.911    -0.294    27.563     7.593
   137   6 C        1.946     0.132    27.857     8.523
   138   7 N        0.911    -0.297    27.644     7.604
   139   6 C        4.163    -0.022    20.871     6.488
   140   6 C        4.013    -0.015    20.765     6.473
   141   6 C        2.995    -0.042    29.027     8.838
   142   6 C        2.995    -0.042    29.026     8.838
   143   6 C        4.013    -0.015    20.766     6.474
   144   6 C        3.915    -0.059    21.577     6.602
   145   6 C        4.160    -0.022    20.882     6.490
   146   1 H        0.925     0.080     1.975     2.198
   147   1 H        0.926     0.065     2.139     2.287
   148   1 H        0.926     0.061     2.190     2.314
   149   1 H        0.925     0.048     2.347     2.396
   150   1 H        0.925     0.041     2.441     2.443
   151   1 H        0.926     0.039     2.463     2.454
   152   1 H        0.926     0.040     2.452     2.449
   153   1 H        0.925     0.049     2.336     2.390
   154   1 H        0.925     0.035     2.522     2.483
   155   1 H        0.925     0.042     2.424     2.435
   156   1 H        0.925     0.051     2.305     2.374
   157   1 H        0.926     0.078     2.003     2.213
   158   1 H        0.860     0.223     0.998     1.565
   159   1 H        0.926     0.082     1.954     2.186
   160   1 H        0.926     0.065     2.137     2.286
   161   1 H        0.926     0.059     2.205     2.322
   162   1 H        0.926     0.043     2.416     2.430
   163   1 H        0.926     0.041     2.438     2.442
   164   1 H        0.925     0.056     2.242     2.342
   165   1 H        0.925     0.068     2.105     2.269
   166   1 H        0.925     0.057     2.240     2.341
   167   1 H        0.926     0.049     2.332     2.388
   168   1 H        0.926     0.048     2.350     2.397
   169   1 H        0.926     0.037     2.488     2.466
   170   1 H        0.926     0.048     2.350     2.397
   171   1 H        0.925     0.061     2.193     2.316
   172   1 H        0.925     0.061     2.189     2.314
   173   1 H        0.925     0.069     2.095     2.263
   174   1 H        0.926     0.042     2.425     2.435
   175   1 H        0.926     0.034     2.535     2.490
   176   1 H        0.926     0.040     2.447     2.446
   177   1 H        0.926     0.051     2.309     2.376
   178   1 H        0.925     0.065     2.144     2.290
   179   1 H        0.925     0.072     2.061     2.245
   180   1 H        0.925     0.063     2.161     2.299
   181   1 H        0.926     0.058     2.217     2.328
   182   1 H        0.926     0.059     2.205     2.322
   183   1 H        0.926     0.039     2.467     2.456
   184   1 H        0.926     0.043     2.404     2.425
   185   1 H        0.925     0.059     2.210     2.325
   186   1 H        0.925     0.070     2.082     2.256
   187   1 H        0.925     0.061     2.191     2.315
   188   1 H        0.926     0.051     2.302     2.372
   189   1 H        0.926     0.047     2.358     2.402
   190   1 H        0.926     0.047     2.359     2.402
   191   1 H        0.926     0.052     2.295     2.369
   192   1 H        0.925     0.059     2.216     2.328
   193   1 H        0.925     0.070     2.088     2.259
   194   1 H        0.925     0.064     2.155     2.296
   195   1 H        0.926     0.051     2.306     2.375
   196   1 H        0.926     0.041     2.430     2.438
   197   1 H        0.926     0.032     2.557     2.501
   198   1 H        0.926     0.052     2.294     2.368
   199   1 H        0.925     0.069     2.095     2.264
   200   1 H        0.925     0.061     2.187     2.313
   201   1 H        0.925     0.062     2.176     2.307
   202   1 H        0.926     0.046     2.376     2.410
   203   1 H        0.926     0.040     2.445     2.445
   204   1 H        0.926     0.045     2.380     2.412
   205   1 H        0.926     0.051     2.310     2.377
   206   1 H        0.925     0.072     2.063     2.246
   207   1 H        0.925     0.062     2.171     2.304
   208   1 H        0.925     0.072     2.067     2.248
   209   1 H        0.926     0.054     2.265     2.354
   210   1 H        0.926     0.042     2.422     2.434
   211   1 H        0.926     0.047     2.362     2.403
   212   1 H        0.926     0.057     2.239     2.340
   213   1 H        0.925     0.069     2.094     2.263
   214   1 H        0.925     0.067     2.115     2.274
   215   1 H        0.925     0.060     2.196     2.318
   216   1 H        0.926     0.050     2.320     2.382
   217   1 H        0.926     0.040     2.453     2.449
   218   1 H        0.925     0.076     2.022     2.223
   219   1 H        0.926     0.058     2.220     2.330
   220   1 H        0.926     0.051     2.302     2.373
   221   1 H        0.925     0.044     2.391     2.418
   222   1 H        0.925     0.038     2.472     2.459
   223   1 H        0.926     0.038     2.479     2.462
   224   1 H        0.926     0.038     2.477     2.461
   225   1 H        0.925     0.038     2.471     2.458
   226   1 H        0.925     0.035     2.521     2.483
   227   1 H        0.925     0.040     2.453     2.449
   228   1 H        0.925     0.048     2.344     2.394

 Mol. C6AA /au·bohr⁶  :     910227.831266
 Mol. C8AA /au·bohr⁸  :   25828928.304969
 Mol. α(0) /au        :       1531.077696


Wiberg/Mayer (AO) data.
largest (>0.10) Wiberg bond orders for each atom

 ---------------------------------------------------------------------------
     #   Z sym  total        # sym  WBO       # sym  WBO       # sym  WBO
 ---------------------------------------------------------------------------
     1   6 C    3.943 --     2 C    1.665    24 C    1.110   146 H    0.943
     2   6 C    3.977 --     1 C    1.665    11 C    1.099     3 C    1.006
     3   6 C    3.917 --     4 O    1.739     5 C    1.049     2 C    1.006
     4   8 O    2.026 --     3 C    1.739
     5   6 C    3.974 --     6 C    1.368    10 C    1.297     3 C    1.049
     6   6 C    3.981 --     7 C    1.450     5 C    1.368   147 H    0.957
     7   6 C    3.953 --     6 C    1.450     8 C    1.310    23 C    0.996
     8   6 C    3.964 --     9 C    1.457     7 C    1.310    17 C    0.995
     9   6 C    3.978 --     8 C    1.457    10 C    1.354   148 H    0.958
    10   6 C    3.982 --     9 C    1.354     5 C    1.297    11 C    1.103
    11   6 C    3.977 --    12 C    1.507    10 C    1.103     2 C    1.099
    12   6 C    3.965 --    11 C    1.507    13 C    1.093    15 C    1.092
    13   6 C    3.944 --    14 N    2.758    12 C    1.093
    14   7 N    2.968 --    13 C    2.758
    15   6 C    3.944 --    16 N    2.763    12 C    1.092
    16   7 N    2.971 --    15 C    2.763
    17   6 C    3.983 --     8 C    0.995    23 C    0.975   149 H    0.960
                            18 C    0.949
    18   6 C    3.988 --    19 C    1.004    22 C    0.989   150 H    0.971
                            17 C    0.949
    19   6 C    3.980 --    20 C    1.922    18 C    1.004   151 H    0.971
    20   6 C    3.981 --    19 C    1.922    21 C    1.005   152 H    0.971
    21   6 C    3.986 --    20 C    1.005    22 C    0.989   153 H    0.969
                            23 C    0.948
    22   6 C    3.994 --    18 C    0.989    21 C    0.989   155 H    0.978
                           154 H    0.974
    23   6 C    3.982 --     7 C    0.996    17 C    0.975   156 H    0.959
                            21 C    0.948
    24   6 C    3.987 --    37 C    1.436    25 C    1.288     1 C    1.110
    25   6 C    3.949 --    26 C    1.471    24 C    1.288   157 H    0.962
    26   6 C    3.985 --    25 C    1.471    38 C    1.256    27 C    1.026
    27   6 C    3.938 --    28 O    1.690    29 N    1.141    26 C    1.026
    28   8 O    1.998 --    27 C    1.690    29 N    0.138
    29   7 N    3.531 --    27 C    1.141    30 C    1.135   158 H    0.915
                            28 O    0.138    31 O    0.137
    30   6 C    3.938 --    31 O    1.696    29 N    1.135    32 C    1.026
    31   8 O    2.004 --    30 C    1.696    29 N    0.137
    32   6 C    3.985 --    33 C    1.486    38 C    1.246    30 C    1.026
    33   6 C    3.954 --    32 C    1.486    34 C    1.272   159 H    0.953
    34   6 C    3.982 --    35 C    1.426    33 C    1.272    39 C    1.130
    35   6 C    3.963 --    34 C    1.426    36 C    1.294   160 H    0.956
    36   6 C    3.989 --    35 C    1.294    37 C    1.293    38 C    1.236
    37   6 C    3.959 --    24 C    1.436    36 C    1.293   161 H    0.964
    38   6 C    3.973 --    26 C    1.256    32 C    1.246    36 C    1.236
    39   6 C    3.915 --    40 C    1.433    34 C    1.130    80 S    1.104
    40   6 C    3.958 --    39 C    1.433    58 C    1.231    41 N    1.052
    41   7 N    3.468 --    50 C    1.074    40 C    1.052    42 C    1.037
    42   6 C    3.963 --    43 C    1.371    49 C    1.360    41 N    1.037
    43   6 C    3.985 --    44 C    1.453    42 C    1.371   162 H    0.965
                            48 C    0.101
    44   6 C    3.988 --    43 C    1.453    45 C    1.389   163 H    0.965
    45   6 C    3.955 --    44 C    1.389    48 C    1.373    46 S    1.039
    46  16 S    2.223 --    45 C    1.039    47 C    1.004
    47   6 C    3.971 --    46 S    1.004   166 H    0.982   164 H    0.981
                           165 H    0.977
    48   6 C    3.990 --    49 C    1.469    45 C    1.373   167 H    0.965
                            43 C    0.101
    49   6 C    3.986 --    48 C    1.469    42 C    1.360   168 H    0.958
    50   6 C    3.964 --    57 C    1.357    51 C    1.342    41 N    1.074
    51   6 C    3.985 --    52 C    1.480    50 C    1.342   169 H    0.965
    52   6 C    3.990 --    51 C    1.480    53 C    1.365   170 H    0.967
                            57 C    0.101
    53   6 C    3.951 --    56 C    1.387    52 C    1.365    54 S    1.044
    54  16 S    2.242 --    53 C    1.044    55 C    1.010
    55   6 C    3.974 --    54 S    1.010   171 H    0.981   172 H    0.981
                           173 H    0.977
    56   6 C    3.989 --    57 C    1.452    53 C    1.387   174 H    0.965
    57   6 C    3.984 --    56 C    1.452    50 C    1.357   175 H    0.966
                            52 C    0.101
    58   6 C    3.934 --    79 C    1.379    40 C    1.231    59 S    1.108
    59  16 S    2.506 --    58 C    1.108    60 C    1.047
    60   6 C    3.889 --    61 C    1.402    81 C    1.147    59 S    1.047
    61   6 C    3.954 --    60 C    1.402    79 C    1.195    62 N    1.149
    62   7 N    3.443 --    61 C    1.149    71 C    1.026    63 C    0.967
    63   6 C    3.960 --    64 C    1.398    70 C    1.383    62 N    0.967
    64   6 C    3.987 --    65 C    1.446    63 C    1.398   176 H    0.968
                            69 C    0.106
    65   6 C    3.988 --    64 C    1.446    66 C    1.385   177 H    0.963
    66   6 C    3.965 --    65 C    1.385    69 C    1.371    67 S    1.065
    67  16 S    2.282 --    66 C    1.065    68 C    1.009
    68   6 C    3.973 --    67 S    1.009   180 H    0.981   178 H    0.981
                           179 H    0.977
    69   6 C    3.988 --    70 C    1.463    66 C    1.371   181 H    0.966
                            64 C    0.106
    70   6 C    3.986 --    69 C    1.463    63 C    1.383   182 H    0.960
    71   6 C    3.961 --    72 C    1.380    78 C    1.360    62 N    1.026
    72   6 C    3.987 --    73 C    1.440    71 C    1.380   183 H    0.965
                            77 C    0.102
    73   6 C    3.987 --    72 C    1.440    74 C    1.391   184 H    0.964
    74   6 C    3.959 --    73 C    1.391    77 C    1.362    75 S    1.050
    75  16 S    2.254 --    74 C    1.050    76 C    1.009
    76   6 C    3.974 --    75 S    1.009   185 H    0.982   187 H    0.981
                           186 H    0.977
    77   6 C    3.989 --    78 C    1.477    74 C    1.362   188 H    0.967
                            72 C    0.102
    78   6 C    3.985 --    77 C    1.477    71 C    1.360   189 H    0.964
    79   6 C    3.934 --    58 C    1.379    61 C    1.195    80 S    1.115
    80  16 S    2.577 --    79 C    1.115    39 C    1.104
    81   6 C    3.895 --    82 C    1.409    60 C    1.147   122 S    1.085
    82   6 C    3.951 --    81 C    1.409   100 C    1.224    83 N    1.080
    83   7 N    3.491 --    82 C    1.080    92 C    1.062    84 C    1.046
    84   6 C    3.961 --    91 C    1.369    85 C    1.359    83 N    1.046
    85   6 C    3.986 --    86 C    1.468    84 C    1.359   190 H    0.963
    86   6 C    3.988 --    85 C    1.468    87 C    1.374   191 H    0.966
                            91 C    0.100
    87   6 C    3.955 --    90 C    1.390    86 C    1.374    88 S    1.034
    88  16 S    2.210 --    87 C    1.034    89 C    1.000
    89   6 C    3.967 --    88 S    1.000   194 H    0.980   192 H    0.980
                           193 H    0.975
    90   6 C    3.988 --    91 C    1.453    87 C    1.390   195 H    0.961
    91   6 C    3.986 --    90 C    1.453    84 C    1.369   196 H    0.966
                            86 C    0.100
    92   6 C    3.961 --    99 C    1.363    93 C    1.342    83 N    1.062
    93   6 C    3.985 --    94 C    1.473    92 C    1.342   197 H    0.962
    94   6 C    3.989 --    93 C    1.473    95 C    1.369   198 H    0.966
                            99 C    0.101
    95   6 C    3.950 --    98 C    1.385    94 C    1.369    96 S    1.046
    96  16 S    2.245 --    95 C    1.046    97 C    1.009
    97   6 C    3.974 --    96 S    1.009   201 H    0.981   200 H    0.981
                           199 H    0.977
    98   6 C    3.988 --    99 C    1.453    95 C    1.385   202 H    0.964
    99   6 C    3.982 --    98 C    1.453    92 C    1.363   203 H    0.965
                            94 C    0.101
   100   6 C    3.935 --   121 C    1.356    82 C    1.224   101 S    1.129
   101  16 S    2.526 --   100 C    1.129   102 C    1.062
   102   6 C    3.918 --   123 C    1.308   103 C    1.307   101 S    1.062
   103   6 C    3.954 --   102 C    1.307   121 C    1.246   104 N    1.141
   104   7 N    3.532 --   103 C    1.141   105 C    1.057   113 C    1.018
   105   6 C    3.961 --   112 C    1.360   106 C    1.341   104 N    1.057
   106   6 C    3.983 --   107 C    1.477   105 C    1.341   204 H    0.965
   107   6 C    3.989 --   106 C    1.477   108 C    1.366   205 H    0.967
   108   6 C    3.956 --   111 C    1.377   107 C    1.366   109 S    1.059
   109  16 S    2.260 --   108 C    1.059   110 C    1.006
   110   6 C    3.969 --   109 S    1.006   207 H    0.981   208 H    0.978
                           206 H    0.977
   111   6 C    3.986 --   112 C    1.460   108 C    1.377   209 H    0.964
   112   6 C    3.982 --   111 C    1.460   105 C    1.360   210 H    0.965
   113   6 C    3.958 --   120 C    1.373   114 C    1.361   104 N    1.018
   114   6 C    3.980 --   115 C    1.476   113 C    1.361   211 H    0.966
   115   6 C    3.988 --   114 C    1.476   116 C    1.365   212 H    0.966
                           120 C    0.100
   116   6 C    3.956 --   119 C    1.389   115 C    1.365   117 S    1.057
   117  16 S    2.255 --   116 C    1.057   118 C    1.006
   118   6 C    3.971 --   117 S    1.006   215 H    0.981   214 H    0.979
                           213 H    0.978
   119   6 C    3.987 --   120 C    1.444   116 C    1.389   216 H    0.962
   120   6 C    3.988 --   119 C    1.444   113 C    1.373   217 H    0.962
                           115 C    0.100
   121   6 C    3.928 --   100 C    1.356   103 C    1.246   122 S    1.096
   122  16 S    2.543 --   121 C    1.096    81 C    1.085
   123   6 C    3.942 --   124 C    1.473   102 C    1.308   218 H    0.949
   124   6 C    3.954 --   123 C    1.473   133 C    1.174   125 C    1.034
   125   6 C    3.916 --   126 O    1.725   124 C    1.034   127 C    1.024
   126   8 O    1.998 --   125 C    1.725
   127   6 C    3.965 --   128 C    1.380   132 C    1.310   125 C    1.024
   128   6 C    3.980 --   129 C    1.441   127 C    1.380   219 H    0.963
   129   6 C    3.955 --   128 C    1.441   130 C    1.326   145 C    0.992
   130   6 C    3.965 --   131 C    1.446   129 C    1.326   139 C    0.993
   131   6 C    3.978 --   130 C    1.446   132 C    1.369   220 H    0.960
   132   6 C    3.981 --   131 C    1.369   127 C    1.310   133 C    1.081
   133   6 C    3.974 --   134 C    1.421   124 C    1.174   132 C    1.081
   134   6 C    3.960 --   133 C    1.421   135 C    1.115   137 C    1.114
   135   6 C    3.941 --   136 N    2.733   134 C    1.115
   136   7 N    2.943 --   135 C    2.733
   137   6 C    3.941 --   138 N    2.728   134 C    1.114
   138   7 N    2.954 --   137 C    2.728
   139   6 C    3.984 --   130 C    0.993   145 C    0.975   221 H    0.961
                           140 C    0.951
   140   6 C    3.989 --   141 C    1.004   144 C    0.989   222 H    0.971
                           139 C    0.951
   141   6 C    3.982 --   142 C    1.924   140 C    1.004   223 H    0.971
   142   6 C    3.982 --   141 C    1.924   143 C    1.004   224 H    0.971
   143   6 C    3.989 --   142 C    1.004   144 C    0.989   225 H    0.971
                           145 C    0.951
   144   6 C    3.994 --   140 C    0.989   143 C    0.989   227 H    0.978
                           226 H    0.974
   145   6 C    3.983 --   129 C    0.992   139 C    0.975   228 H    0.961
                           143 C    0.951
   146   1 H    0.991 --     1 C    0.943
   147   1 H    0.995 --     6 C    0.957
   148   1 H    0.996 --     9 C    0.958
   149   1 H    0.996 --    17 C    0.960
   150   1 H    0.998 --    18 C    0.971
   151   1 H    0.998 --    19 C    0.971
   152   1 H    0.998 --    20 C    0.971
   153   1 H    0.997 --    21 C    0.969
   154   1 H    0.999 --    22 C    0.974
   155   1 H    0.998 --    22 C    0.978
   156   1 H    0.995 --    23 C    0.959
   157   1 H    0.993 --    25 C    0.962
   158   1 H    0.949 --    29 N    0.915
   159   1 H    0.993 --    33 C    0.953
   160   1 H    0.995 --    35 C    0.956
   161   1 H    0.995 --    37 C    0.964
   162   1 H    0.998 --    43 C    0.965
   163   1 H    0.998 --    44 C    0.965
   164   1 H    0.997 --    47 C    0.981
   165   1 H    0.995 --    47 C    0.977
   166   1 H    0.996 --    47 C    0.982
   167   1 H    0.997 --    48 C    0.965
   168   1 H    0.997 --    49 C    0.958
   169   1 H    0.998 --    51 C    0.965
   170   1 H    0.997 --    52 C    0.967
   171   1 H    0.996 --    55 C    0.981
   172   1 H    0.996 --    55 C    0.981
   173   1 H    0.995 --    55 C    0.977
   174   1 H    0.998 --    56 C    0.965
   175   1 H    0.999 --    57 C    0.966
   176   1 H    0.998 --    64 C    0.968
   177   1 H    0.997 --    65 C    0.963
   178   1 H    0.996 --    68 C    0.981
   179   1 H    0.994 --    68 C    0.977
   180   1 H    0.995 --    68 C    0.981
   181   1 H    0.996 --    69 C    0.966
   182   1 H    0.996 --    70 C    0.960
   183   1 H    0.998 --    72 C    0.965
   184   1 H    0.998 --    73 C    0.964
   185   1 H    0.996 --    76 C    0.982
   186   1 H    0.995 --    76 C    0.977
   187   1 H    0.996 --    76 C    0.981
   188   1 H    0.997 --    77 C    0.967
   189   1 H    0.997 --    78 C    0.964
   190   1 H    0.997 --    85 C    0.963
   191   1 H    0.997 --    86 C    0.966
   192   1 H    0.996 --    89 C    0.980
   193   1 H    0.995 --    89 C    0.975
   194   1 H    0.996 --    89 C    0.980
   195   1 H    0.997 --    90 C    0.961
   196   1 H    0.998 --    91 C    0.966
   197   1 H    0.999 --    93 C    0.962
   198   1 H    0.997 --    94 C    0.966
   199   1 H    0.995 --    97 C    0.977
   200   1 H    0.996 --    97 C    0.981
   201   1 H    0.996 --    97 C    0.981
   202   1 H    0.997 --    98 C    0.964
   203   1 H    0.998 --    99 C    0.965
   204   1 H    0.998 --   106 C    0.965
   205   1 H    0.997 --   107 C    0.967
   206   1 H    0.994 --   110 C    0.977
   207   1 H    0.995 --   110 C    0.981
   208   1 H    0.995 --   110 C    0.978
   209   1 H    0.997 --   111 C    0.964
   210   1 H    0.998 --   112 C    0.965
   211   1 H    0.997 --   114 C    0.966
   212   1 H    0.996 --   115 C    0.966
   213   1 H    0.995 --   118 C    0.978
   214   1 H    0.995 --   118 C    0.979
   215   1 H    0.996 --   118 C    0.981
   216   1 H    0.997 --   119 C    0.962
   217   1 H    0.998 --   120 C    0.962
   218   1 H    0.991 --   123 C    0.949
   219   1 H    0.996 --   128 C    0.963
   220   1 H    0.997 --   131 C    0.960
   221   1 H    0.997 --   139 C    0.961
   222   1 H    0.998 --   140 C    0.971
   223   1 H    0.998 --   141 C    0.971
   224   1 H    0.998 --   142 C    0.971
   225   1 H    0.998 --   143 C    0.971
   226   1 H    0.999 --   144 C    0.974
   227   1 H    0.998 --   144 C    0.978
   228   1 H    0.996 --   145 C    0.961
 ---------------------------------------------------------------------------

Topologies differ in bond orders
Writing corrected topology to xtbtopo.mol

molecular dipole:
                 x           y           z       tot (Debye)
 q only:        0.426      -4.669      -1.622
   full:        0.796      -5.285      -1.206      13.926
molecular quadrupole (traceless):
                xx          xy          yy          xz          yz          zz
 q only:       -3.315      55.485     -38.968      26.624     -46.615      42.282
  q+dip:        2.780      57.868     -42.254      35.371     -38.346      39.473
   full:        2.535      56.816     -51.812      44.372     -35.571      49.277


           -------------------------------------------------
          | TOTAL ENERGY             -380.851109197348 Eh   |
          | GRADIENT NORM               0.028239767483 Eh/α |
          | HOMO-LUMO GAP               0.370524710878 eV   |
           -------------------------------------------------

------------------------------------------------------------------------
 * finished run on 2022/02/14 at 04:42:53.277     
------------------------------------------------------------------------
 total:
 * wall-time:     0 d,  0 h,  0 min,  2.441 sec
 *  cpu-time:     0 d,  0 h,  0 min, 14.399 sec
 * ratio c/w:     5.898 speedup
 SCF:
 * wall-time:     0 d,  0 h,  0 min,  2.312 sec
 *  cpu-time:     0 d,  0 h,  0 min, 13.701 sec
 * ratio c/w:     5.927 speedup

