      -----------------------------------------------------------      
     |                   =====================                   |     
     |                           x T B                           |     
     |                   =====================                   |     
     |                         S. Grimme                         |     
     |          Mulliken Center for Theoretical Chemistry        |     
     |                    University of Bonn                     |     
      -----------------------------------------------------------      

   * xtb version 6.4.1 (unknown) compiled by 'oda6@login1.crc.pitt.edu' on 2021-06-25

   xtb is free software: you can redistribute it and/or modify it under
   the terms of the GNU Lesser General Public License as published by
   the Free Software Foundation, either version 3 of the License, or
   (at your option) any later version.
   
   xtb is distributed in the hope that it will be useful,
   but WITHOUT ANY WARRANTY; without even the implied warranty of
   MERCHANTABILITY or FITNESS FOR A PARTICULAR PURPOSE.  See the
   GNU Lesser General Public License for more details.
   
   Cite this work as:
   * C. Bannwarth, E. Caldeweyher, S. Ehlert, A. Hansen, P. Pracht,
     J. Seibert, S. Spicher, S. Grimme, WIREs Comput. Mol. Sci., 2020, 11,
     e01493. DOI: 10.1002/wcms.1493
   
   for GFN2-xTB:
   * C. Bannwarth, S. Ehlert and S. Grimme., J. Chem. Theory Comput., 2019,
     15, 1652-1671. DOI: 10.1021/acs.jctc.8b01176
   for GFN1-xTB:
   * S. Grimme, C. Bannwarth, P. Shushkov, J. Chem. Theory Comput., 2017,
     13, 1989-2009. DOI: 10.1021/acs.jctc.7b00118
   for GFN0-xTB:
   * P. Pracht, E. Caldeweyher, S. Ehlert, S. Grimme, ChemRxiv, 2019, preprint.
     DOI: 10.26434/chemrxiv.8326202.v1
   for GFN-FF:
   * S. Spicher and S. Grimme, Angew. Chem. Int. Ed., 2020, 59, 15665-15673.
     DOI: 10.1002/anie.202004239
   
   for DFT-D4:
   * E. Caldeweyher, C. Bannwarth and S. Grimme, J. Chem. Phys., 2017,
     147, 034112. DOI: 10.1063/1.4993215
   * E. Caldeweyher, S. Ehlert, A. Hansen, H. Neugebauer, S. Spicher,
     C. Bannwarth and S. Grimme, J. Chem. Phys., 2019, 150, 154122.
     DOI: 10.1063/1.5090222
   * E. Caldeweyher, J.-M. Mewes, S. Ehlert and S. Grimme, Phys. Chem. Chem. Phys.
     2020, 22, 8499-8512. DOI: 10.1039/D0CP00502A
   
   for sTDA-xTB:
   * S. Grimme and C. Bannwarth, J. Chem. Phys., 2016, 145, 054103.
     DOI: 10.1063/1.4959605
   
   in the mass-spec context:
   * V. Asgeirsson, C. Bauer and S. Grimme, Chem. Sci., 2017, 8, 4879.
     DOI: 10.1039/c7sc00601b
   * J. Koopman and S. Grimme, ACS Omega 2019, 4, 12, 15120-15133.
     DOI: 10.1021/acsomega.9b02011
   
   for metadynamics refer to:
   * S. Grimme, J. Chem. Theory Comput., 2019, 155, 2847-2862
     DOI: 10.1021/acs.jctc.9b00143
   
   for SPH calculations refer to:
   * S. Spicher and S. Grimme, J. Chem. Theory Comput., 2021, 17, 1701-1714
     DOI: 10.1021/acs.jctc.0c01306
   
   with help from (in alphabetical order)
   P. Atkinson, C. Bannwarth, F. Bohle, G. Brandenburg, E. Caldeweyher
   M. Checinski, S. Dohm, S. Ehlert, S. Ehrlich, I. Gerasimov, J. Koopman
   C. Lavigne, S. Lehtola, F. März, M. Müller, F. Musil, H. Neugebauer
   J. Pisarek, C. Plett, P. Pracht, J. Seibert, P. Shushkov, S. Spicher
   M. Stahn, M. Steiner, T. Strunk, J. Stückrath, T. Rose, and J. Unsleber
   
 * started run on 2022/02/05 at 12:07:16.331     

           -------------------------------------------------
          |                Calculation Setup                |
           -------------------------------------------------

          program call               : /ihome/ghutchison/oda6/xtb/xtb-641/bin/xtb ../../GFN2_output/39_150_130_130_39.mol --sp --alpb hexane
          hostname                   : smp-n57
          coordinate file            : ../../GFN2_output/39_150_130_130_39.mol
          omp threads                :                     8
          number of atoms            :                   216
          number of electrons        :                   672
          charge                     :                     0
          spin                       :                   0.0
          first test random number   :      0.44134370028703

   ID    Z sym.   atoms
    1    6 C      1-3, 5-13, 15, 17-24, 26, 28, 30, 32, 33, 35-38, 40-46,
                  48-51, 53, 54, 56-59, 61-67, 69-72, 74, 75, 77-80, 82-88,
                  90-93, 95, 96, 98-101, 103-109, 111-114, 116-118, 120-128,
                  130, 132-138
    2    8 O      4, 119
    3    7 N      14, 16, 27, 31, 34, 55, 76, 97, 129, 131
    4   16 S      25, 29, 39, 47, 52, 60, 68, 73, 81, 89, 94, 102, 110, 115
    5    1 H      139-216

           -------------------------------------------------
          |                 G F N 2 - x T B                 |
           -------------------------------------------------

        Reference                      10.1021/acs.jctc.8b01176
      * Hamiltonian:
        H0-scaling (s, p, d)           1.850000    2.230000    2.230000
        zeta-weighting                 0.500000
      * Dispersion:
        s8                             2.700000
        a1                             0.520000
        a2                             5.000000
        s9                             5.000000
      * Repulsion:
        kExp                           1.500000    1.000000
        rExp                           1.000000
      * Coulomb:
        alpha                          2.000000
        third order                    shell-resolved
        anisotropic                    true
        a3                             3.000000
        a5                             4.000000
        cn-shift                       1.200000
        cn-exp                         4.000000
        max-rad                        5.000000

      * Solvation model:               ALPB
        Solvent                        hexane
        Parameter file                 internal GFN2-xTB/ALPB
        Dielectric constant                1.8800E+00
        Reference state                gsolv [1 M gas/solution]
        Free energy shift                  4.8134E-03 Eh       3.0204E+00 kcal/mol
        Temperature                        2.9815E+02 K
        Density                            6.6000E-01 kg/L
        Solvent mass                       8.6180E+01 g/mol
        Interaction kernel             P16
        Born radius scaling (c1)           1.1040E+00
        Born radii integrator          GBOBC
        Born offset                        0.0000E+00 a0       0.0000E+00 AA
        H-bond correction              false
        Ion screening                  false
        Surface tension                    1.0000E-05 Eh       1.5569E+01 dyn/cm
        Grid points                               230 per atom

          ...................................................
          :                      SETUP                      :
          :.................................................:
          :  # basis functions                 714          :
          :  # atomic orbitals                 700          :
          :  # shells                          368          :
          :  # electrons                       672          :
          :  max. iterations                   250          :
          :  Hamiltonian                  GFN2-xTB          :
          :  restarted?                      false          :
          :  GBSA solvation                   true          :
          :  PC potential                    false          :
          :  electronic temp.          300.0000000     K    :
          :  accuracy                    1.0000000          :
          :  -> integral cutoff          0.2500000E+02      :
          :  -> integral neglect         0.1000000E-07      :
          :  -> SCF convergence          0.1000000E-05 Eh   :
          :  -> wf. convergence          0.1000000E-03 e    :
          :  Broyden damping             0.4000000          :
          ...................................................

 iter      E             dE          RMSdq      gap      omega  full diag
   1   -367.9193593 -0.367919E+03  0.462E+00    0.60       0.0  T
   2   -368.1364266 -0.217067E+00  0.262E+00    0.76       1.0  T
   3   -367.9937057  0.142721E+00  0.120E+00    0.28       1.0  T
   4   -368.1656891 -0.171983E+00  0.507E-01    0.51       1.0  T
   5   -368.1947055 -0.290165E-01  0.178E-01    0.40       1.0  T
   6   -368.1955572 -0.851634E-03  0.821E-02    0.45       1.0  T
   7   -368.1964093 -0.852128E-03  0.354E-02    0.43       1.0  T
   8   -368.1965156 -0.106346E-03  0.197E-02    0.44       1.0  T
   9   -368.1965441 -0.285110E-04  0.949E-03    0.44       1.0  T
  10   -368.1965469 -0.270473E-05  0.385E-03    0.44       1.8  T
  11   -368.1965480 -0.117406E-05  0.190E-03    0.44       3.6  T
  12   -368.1965481 -0.432364E-07  0.105E-03    0.44       6.5  T
  13   -368.1965482 -0.977017E-07  0.440E-04    0.44      15.5  T
  14   -368.1965482 -0.884012E-08  0.192E-04    0.44      35.5  T

   *** convergence criteria satisfied after 14 iterations ***

         #    Occupation            Energy/Eh            Energy/eV
      -------------------------------------------------------------
         1        2.0000           -0.7559997             -20.5718
       ...           ...                  ...                  ...
       330        2.0000           -0.3722251             -10.1288
       331        2.0000           -0.3698451             -10.0640
       332        2.0000           -0.3690856             -10.0433
       333        2.0000           -0.3594809              -9.7820
       334        2.0000           -0.3576466              -9.7321
       335        2.0000           -0.3571343              -9.7181
       336        1.9996           -0.3525131              -9.5924 (HOMO)
       337        0.0004           -0.3364780              -9.1560 (LUMO)
       338                         -0.3272103              -8.9038
       339                         -0.3202597              -8.7147
       340                         -0.3175797              -8.6418
       341                         -0.3040848              -8.2746
       ...                                ...                  ...
       700                          1.1610621              31.5941
      -------------------------------------------------------------
                  HL-Gap            0.0160351 Eh            0.4363 eV
             Fermi-level           -0.3444895 Eh           -9.3740 eV

 SCC (total)                   0 d,  0 h,  0 min,  0.877 sec
 SCC setup                      ...        0 min,  0.009 sec (  1.034%)
 Dispersion                     ...        0 min,  0.011 sec (  1.208%)
 classical contributions        ...        0 min,  0.000 sec (  0.047%)
 integral evaluation            ...        0 min,  0.045 sec (  5.155%)
 iterations                     ...        0 min,  0.655 sec ( 74.683%)
 molecular gradient             ...        0 min,  0.152 sec ( 17.386%)
 printout                       ...        0 min,  0.004 sec (  0.477%)

         :::::::::::::::::::::::::::::::::::::::::::::::::::::
         ::                     SUMMARY                     ::
         :::::::::::::::::::::::::::::::::::::::::::::::::::::
         :: total energy            -362.415738859999 Eh    ::
         :: total w/o Gsasa/hb      -362.296256737162 Eh    ::
         :: gradient norm              0.021449193815 Eh/a0 ::
         :: HOMO-LUMO gap              0.436337603645 eV    ::
         ::.................................................::
         :: SCC energy              -368.196548174164 Eh    ::
         :: -> isotropic ES            0.160677034138 Eh    ::
         :: -> anisotropic ES          0.015510410302 Eh    ::
         :: -> anisotropic XC          0.235261159706 Eh    ::
         :: -> dispersion             -0.406364736209 Eh    ::
         :: -> Gsolv                  -0.147091653343 Eh    ::
         ::    -> Gelec               -0.027609530506 Eh    ::
         ::    -> Gsasa               -0.124295478658 Eh    ::
         ::    -> Ghb                  0.000000000000 Eh    ::
         ::    -> Gshift               0.004813355820 Eh    ::
         :: repulsion energy           5.762750246601 Eh    ::
         :: add. restraining           0.000000000000 Eh    ::
         :: total charge               0.000000000075 e     ::
         :::::::::::::::::::::::::::::::::::::::::::::::::::::

           -------------------------------------------------
          |                Property Printout                |
           -------------------------------------------------

    * Orbital Energies and Occupations

         #    Occupation            Energy/Eh            Energy/eV
      -------------------------------------------------------------
         1        2.0000           -0.7559997             -20.5718
       ...           ...                  ...                  ...
       324        2.0000           -0.3901942             -10.6177
       325        2.0000           -0.3889180             -10.5830
       326        2.0000           -0.3877907             -10.5523
       327        2.0000           -0.3820716             -10.3967
       328        2.0000           -0.3776808             -10.2772
       329        2.0000           -0.3728013             -10.1444
       330        2.0000           -0.3722251             -10.1288
       331        2.0000           -0.3698451             -10.0640
       332        2.0000           -0.3690856             -10.0433
       333        2.0000           -0.3594809              -9.7820
       334        2.0000           -0.3576466              -9.7321
       335        2.0000           -0.3571343              -9.7181
       336        1.9996           -0.3525131              -9.5924 (HOMO)
       337        0.0004           -0.3364780              -9.1560 (LUMO)
       338                         -0.3272103              -8.9038
       339                         -0.3202597              -8.7147
       340                         -0.3175797              -8.6418
       341                         -0.3040848              -8.2746
       342                         -0.2810816              -7.6486
       343                         -0.2642445              -7.1905
       344                         -0.2562604              -6.9732
       345                         -0.2535952              -6.9007
       346                         -0.2523391              -6.8665
       347                         -0.2512404              -6.8366
       ...                                ...                  ...
       700                          1.1610621              31.5941
      -------------------------------------------------------------
                  HL-Gap            0.0160351 Eh            0.4363 eV
             Fermi-level           -0.3444895 Eh           -9.3740 eV

     #   Z          covCN         q      C6AA      α(0)
     1   6 C        2.919    -0.016    28.402     8.739
     2   6 C        3.009    -0.023    28.564     8.767
     3   6 C        2.873     0.237    23.055     7.871
     4   8 O        0.856    -0.399    21.660     6.240
     5   6 C        3.059    -0.018    28.407     8.740
     6   6 C        2.904    -0.021    28.527     8.758
     7   6 C        3.259     0.012    26.604     8.336
     8   6 C        3.256     0.015    26.575     8.336
     9   6 C        2.904    -0.032    28.799     8.799
    10   6 C        3.051     0.010    27.743     8.638
    11   6 C        3.023     0.042    27.026     8.527
    12   6 C        2.948     0.014    27.693     8.631
    13   6 C        1.933     0.134    27.819     8.518
    14   7 N        0.911    -0.264    26.829     7.491
    15   6 C        1.929     0.135    27.798     8.515
    16   7 N        0.911    -0.260    26.754     7.481
    17   6 C        4.161    -0.022    20.884     6.490
    18   6 C        4.013    -0.015    20.765     6.473
    19   6 C        2.995    -0.041    29.016     8.836
    20   6 C        2.995    -0.042    29.025     8.837
    21   6 C        4.013    -0.015    20.767     6.474
    22   6 C        3.914    -0.060    21.592     6.604
    23   6 C        4.160    -0.022    20.882     6.490
    24   6 C        3.051     0.115    25.424     8.269
    25  16 S        2.231    -0.053   143.231    20.143
    26   6 C        3.243     0.107    24.746     8.062
    27   7 N        1.928    -0.276    28.000     7.846
    28   6 C        3.119     0.118    25.239     8.228
    29  16 S        2.222    -0.062   143.636    20.171
    30   6 C        3.252     0.096    24.882     8.072
    31   7 N        1.928    -0.246    27.270     7.743
    32   6 C        3.022    -0.005    28.119     8.698
    33   6 C        3.051     0.056    26.686     8.472
    34   7 N        2.749    -0.055    22.294     7.013
    35   6 C        2.926     0.059    26.685     8.471
    36   6 C        2.922    -0.046    29.134     8.852
    37   6 C        2.985    -0.036    28.899     8.818
    38   6 C        2.965     0.049    26.895     8.507
    39  16 S        2.036    -0.168   148.145    20.486
    40   6 C        3.744    -0.053    21.597     6.629
    41   6 C        2.943    -0.042    29.049     8.840
    42   6 C        2.923    -0.045    29.115     8.849
    43   6 C        2.930     0.061    26.623     8.462
    44   6 C        2.921    -0.043    29.062     8.840
    45   6 C        2.972    -0.037    28.920     8.821
    46   6 C        2.967     0.050    26.878     8.504
    47  16 S        2.027    -0.199   149.498    20.579
    48   6 C        3.744    -0.050    21.541     6.621
    49   6 C        2.948    -0.038    28.947     8.824
    50   6 C        2.925    -0.045    29.121     8.850
    51   6 C        3.166     0.004    27.589     8.583
    52  16 S        2.238    -0.045   142.926    20.121
    53   6 C        3.046     0.005    27.856     8.656
    54   6 C        3.058     0.048    26.868     8.500
    55   7 N        2.752    -0.063    22.459     7.039
    56   6 C        2.929     0.058    26.703     8.474
    57   6 C        2.923    -0.041    29.030     8.836
    58   6 C        2.983    -0.032    28.803     8.803
    59   6 C        2.966     0.050    26.864     8.502
    60  16 S        2.033    -0.182   148.792    20.530
    61   6 C        3.744    -0.052    21.575     6.626
    62   6 C        2.944    -0.045    29.109     8.849
    63   6 C        2.923    -0.046    29.138     8.852
    64   6 C        2.929     0.063    26.582     8.455
    65   6 C        2.924    -0.052    29.286     8.875
    66   6 C        2.945    -0.039    28.962     8.827
    67   6 C        2.965     0.043    27.024     8.527
    68  16 S        2.024    -0.213   150.141    20.623
    69   6 C        3.744    -0.042    21.404     6.600
    70   6 C        2.972    -0.037    28.907     8.819
    71   6 C        2.923    -0.045    29.114     8.848
    72   6 C        3.168     0.007    27.510     8.570
    73  16 S        2.271    -0.006   141.309    20.007
    74   6 C        3.016    -0.002    28.045     8.687
    75   6 C        3.056     0.050    26.832     8.495
    76   7 N        2.749    -0.062    22.437     7.035
    77   6 C        2.923     0.064    26.572     8.453
    78   6 C        2.924    -0.046    29.142     8.853
    79   6 C        2.951    -0.037    28.914     8.819
    80   6 C        2.968     0.046    26.963     8.517
    81  16 S        2.023    -0.223   150.586    20.654
    82   6 C        3.744    -0.047    21.494     6.614
    83   6 C        2.966    -0.036    28.901     8.818
    84   6 C        2.923    -0.051    29.265     8.871
    85   6 C        2.935     0.059    26.678     8.471
    86   6 C        2.921    -0.041    29.025     8.835
    87   6 C        2.986    -0.038    28.930     8.823
    88   6 C        2.966     0.049    26.895     8.506
    89  16 S        2.035    -0.180   148.696    20.524
    90   6 C        3.744    -0.051    21.570     6.625
    91   6 C        2.943    -0.043    29.076     8.844
    92   6 C        2.924    -0.045    29.127     8.851
    93   6 C        3.180     0.004    27.499     8.561
    94  16 S        2.237    -0.006   141.324    20.008
    95   6 C        2.998     0.004    27.917     8.667
    96   6 C        3.066     0.056    26.669     8.468
    97   7 N        2.748    -0.064    22.472     7.041
    98   6 C        2.930     0.057    26.728     8.479
    99   6 C        2.925    -0.042    29.044     8.838
   100   6 C        2.945    -0.044    29.080     8.845
   101   6 C        2.966     0.046    26.975     8.519
   102  16 S        2.033    -0.181   148.716    20.525
   103   6 C        3.744    -0.051    21.553     6.623
   104   6 C        2.981    -0.040    28.982     8.831
   105   6 C        2.920    -0.042    29.051     8.839
   106   6 C        2.927     0.060    26.653     8.467
   107   6 C        2.927    -0.042    29.050     8.839
   108   6 C        2.986    -0.037    28.908     8.820
   109   6 C        2.965     0.047    26.941     8.514
   110  16 S        2.036    -0.172   148.351    20.500
   111   6 C        3.745    -0.050    21.541     6.621
   112   6 C        2.943    -0.044    29.086     8.845
   113   6 C        2.923    -0.046    29.141     8.853
   114   6 C        3.169     0.002    27.611     8.585
   115  16 S        2.303    -0.068   143.871    20.188
   116   6 C        2.920    -0.009    28.244     8.715
   117   6 C        3.010    -0.037    28.902     8.819
   118   6 C        2.868     0.236    23.079     7.875
   119   8 O        0.858    -0.423    22.153     6.310
   120   6 C        3.061    -0.021    28.476     8.751
   121   6 C        2.904    -0.024    28.591     8.767
   122   6 C        3.259     0.007    26.719     8.354
   123   6 C        3.255     0.013    26.617     8.343
   124   6 C        2.904    -0.029    28.716     8.787
   125   6 C        3.049     0.009    27.775     8.644
   126   6 C        3.021     0.036    27.164     8.549
   127   6 C        2.947     0.009    27.820     8.651
   128   6 C        1.938     0.135    27.787     8.513
   129   7 N        0.911    -0.262    26.790     7.486
   130   6 C        1.939     0.130    27.895     8.529
   131   7 N        0.911    -0.269    26.948     7.508
   132   6 C        4.162    -0.024    20.910     6.495
   133   6 C        4.012    -0.015    20.762     6.473
   134   6 C        2.987    -0.041    29.001     8.834
   135   6 C        2.987    -0.042    29.039     8.840
   136   6 C        4.012    -0.015    20.762     6.473
   137   6 C        3.926    -0.060    21.590     6.604
   138   6 C        4.160    -0.024    20.915     6.495
   139   1 H        0.925     0.104     1.747     2.067
   140   1 H        0.926     0.064     2.147     2.292
   141   1 H        0.926     0.059     2.206     2.322
   142   1 H        0.925     0.048     2.344     2.394
   143   1 H        0.925     0.040     2.449     2.447
   144   1 H        0.926     0.039     2.459     2.452
   145   1 H        0.926     0.039     2.463     2.454
   146   1 H        0.925     0.040     2.453     2.449
   147   1 H        0.925     0.041     2.435     2.440
   148   1 H        0.925     0.035     2.512     2.479
   149   1 H        0.925     0.047     2.356     2.400
   150   1 H        0.926     0.038     2.472     2.459
   151   1 H        0.926     0.054     2.275     2.359
   152   1 H        0.925     0.072     2.067     2.248
   153   1 H        0.925     0.066     2.133     2.284
   154   1 H        0.925     0.063     2.164     2.300
   155   1 H        0.926     0.051     2.307     2.375
   156   1 H        0.926     0.047     2.355     2.400
   157   1 H        0.926     0.050     2.321     2.382
   158   1 H        0.926     0.053     2.280     2.361
   159   1 H        0.925     0.058     2.219     2.330
   160   1 H        0.925     0.070     2.087     2.259
   161   1 H        0.925     0.066     2.132     2.283
   162   1 H        0.926     0.059     2.216     2.328
   163   1 H        0.926     0.036     2.501     2.473
   164   1 H        0.926     0.040     2.453     2.449
   165   1 H        0.926     0.056     2.249     2.345
   166   1 H        0.925     0.064     2.157     2.297
   167   1 H        0.925     0.070     2.086     2.259
   168   1 H        0.925     0.059     2.207     2.323
   169   1 H        0.926     0.046     2.374     2.410
   170   1 H        0.926     0.042     2.422     2.434
   171   1 H        0.926     0.039     2.465     2.455
   172   1 H        0.926     0.044     2.400     2.422
   173   1 H        0.925     0.062     2.174     2.306
   174   1 H        0.925     0.056     2.241     2.341
   175   1 H        0.925     0.066     2.125     2.280
   176   1 H        0.926     0.045     2.378     2.412
   177   1 H        0.926     0.042     2.419     2.432
   178   1 H        0.926     0.046     2.371     2.408
   179   1 H        0.926     0.055     2.259     2.350
   180   1 H        0.925     0.064     2.154     2.295
   181   1 H        0.925     0.068     2.106     2.269
   182   1 H        0.925     0.054     2.274     2.358
   183   1 H        0.926     0.046     2.367     2.406
   184   1 H        0.926     0.040     2.455     2.450
   185   1 H        0.926     0.044     2.391     2.418
   186   1 H        0.926     0.051     2.301     2.372
   187   1 H        0.925     0.062     2.172     2.305
   188   1 H        0.925     0.064     2.153     2.294
   189   1 H        0.925     0.070     2.082     2.256
   190   1 H        0.926     0.049     2.337     2.390
   191   1 H        0.926     0.040     2.447     2.446
   192   1 H        0.926     0.041     2.429     2.437
   193   1 H        0.926     0.049     2.335     2.390
   194   1 H        0.925     0.070     2.080     2.256
   195   1 H        0.925     0.055     2.256     2.349
   196   1 H        0.925     0.068     2.107     2.270
   197   1 H        0.926     0.053     2.278     2.360
   198   1 H        0.926     0.053     2.284     2.363
   199   1 H        0.926     0.046     2.364     2.405
   200   1 H        0.926     0.053     2.279     2.361
   201   1 H        0.925     0.061     2.186     2.312
   202   1 H        0.925     0.077     2.012     2.218
   203   1 H        0.925     0.057     2.237     2.339
   204   1 H        0.926     0.046     2.365     2.405
   205   1 H        0.926     0.040     2.451     2.448
   206   1 H        0.925     0.068     2.113     2.273
   207   1 H        0.926     0.055     2.255     2.349
   208   1 H        0.926     0.062     2.171     2.304
   209   1 H        0.925     0.050     2.323     2.384
   210   1 H        0.925     0.041     2.442     2.444
   211   1 H        0.926     0.034     2.537     2.491
   212   1 H        0.926     0.032     2.559     2.501
   213   1 H        0.925     0.037     2.483     2.464
   214   1 H        0.925     0.041     2.431     2.438
   215   1 H        0.925     0.043     2.409     2.427
   216   1 H        0.925     0.046     2.371     2.408

 Mol. C6AA /au·bohr⁶  :     854866.033356
 Mol. C8AA /au·bohr⁸  :   24800016.854528
 Mol. α(0) /au        :       1485.985505


Wiberg/Mayer (AO) data.
largest (>0.10) Wiberg bond orders for each atom

 ---------------------------------------------------------------------------
     #   Z sym  total        # sym  WBO       # sym  WBO       # sym  WBO
 ---------------------------------------------------------------------------
     1   6 C    3.941 --     2 C    1.572    24 C    1.220   139 H    0.938
     2   6 C    3.941 --     1 C    1.572    11 C    1.123     3 C    1.003
     3   6 C    3.913 --     4 O    1.757     5 C    1.030     2 C    1.003
     4   8 O    2.028 --     3 C    1.757
     5   6 C    3.968 --     6 C    1.374    10 C    1.302     3 C    1.030
     6   6 C    3.980 --     7 C    1.447     5 C    1.374   140 H    0.963
     7   6 C    3.955 --     6 C    1.447     8 C    1.320    23 C    0.993
     8   6 C    3.964 --     9 C    1.450     7 C    1.320    17 C    0.994
     9   6 C    3.977 --     8 C    1.450    10 C    1.366   141 H    0.960
    10   6 C    3.976 --     9 C    1.366     5 C    1.302    11 C    1.085
    11   6 C    3.969 --    12 C    1.485     2 C    1.123    10 C    1.085
    12   6 C    3.967 --    11 C    1.485    15 C    1.102    13 C    1.095
    13   6 C    3.944 --    14 N    2.765    12 C    1.095
    14   7 N    2.970 --    13 C    2.765
    15   6 C    3.944 --    16 N    2.761    12 C    1.102
    16   7 N    2.965 --    15 C    2.761
    17   6 C    3.984 --     8 C    0.994    23 C    0.975   142 H    0.961
                            18 C    0.950
    18   6 C    3.989 --    19 C    1.004    22 C    0.989   143 H    0.971
                            17 C    0.950
    19   6 C    3.981 --    20 C    1.923    18 C    1.004   144 H    0.971
    20   6 C    3.981 --    19 C    1.923    21 C    1.004   145 H    0.971
    21   6 C    3.988 --    20 C    1.004    22 C    0.989   146 H    0.971
                            23 C    0.950
    22   6 C    3.994 --    21 C    0.989    18 C    0.989   147 H    0.978
                           148 H    0.974
    23   6 C    3.983 --     7 C    0.993    17 C    0.975   149 H    0.961
                            21 C    0.950
    24   6 C    3.911 --    31 N    1.473     1 C    1.220    25 S    1.034
    25  16 S    2.582 --    26 C    1.158    24 C    1.034    31 N    0.150
    26   6 C    3.938 --    27 N    1.326    30 C    1.248    25 S    1.158
    27   7 N    3.091 --    28 C    1.447    26 C    1.326    29 S    0.130
    28   6 C    3.919 --    27 N    1.447    32 C    1.241    29 S    1.052
    29  16 S    2.572 --    30 C    1.119    28 C    1.052    27 N    0.130
    30   6 C    3.926 --    31 N    1.348    26 C    1.248    29 S    1.119
    31   7 N    3.120 --    24 C    1.473    30 C    1.348    25 S    0.150
    32   6 C    3.910 --    33 C    1.350    28 C    1.241    73 S    1.080
    33   6 C    3.941 --    32 C    1.350    51 C    1.254    34 N    1.089
    34   7 N    3.495 --    33 C    1.089    35 C    1.060    43 C    1.048
    35   6 C    3.958 --    42 C    1.352    36 C    1.342    34 N    1.060
    36   6 C    3.982 --    37 C    1.483    35 C    1.342   150 H    0.966
    37   6 C    3.988 --    36 C    1.483    38 C    1.361   151 H    0.967
    38   6 C    3.951 --    41 C    1.381    37 C    1.361    39 S    1.059
    39  16 S    2.257 --    38 C    1.059    40 C    1.009
    40   6 C    3.972 --    39 S    1.009   154 H    0.981   153 H    0.980
                           152 H    0.977
    41   6 C    3.987 --    42 C    1.458    38 C    1.381   155 H    0.964
    42   6 C    3.976 --    41 C    1.458    35 C    1.352   156 H    0.964
    43   6 C    3.959 --    50 C    1.364    44 C    1.357    34 N    1.048
    44   6 C    3.978 --    45 C    1.470    43 C    1.357   157 H    0.965
    45   6 C    3.988 --    44 C    1.470    46 C    1.378   158 H    0.967
    46   6 C    3.949 --    49 C    1.388    45 C    1.378    47 S    1.035
    47  16 S    2.221 --    46 C    1.035    48 C    1.003
    48   6 C    3.970 --    47 S    1.003   159 H    0.983   161 H    0.979
                           160 H    0.976
    49   6 C    3.988 --    50 C    1.458    46 C    1.388   162 H    0.962
    50   6 C    3.981 --    49 C    1.458    43 C    1.364   163 H    0.966
    51   6 C    3.929 --    72 C    1.347    33 C    1.254    52 S    1.106
    52  16 S    2.529 --    51 C    1.106    53 C    1.090
    53   6 C    3.903 --    54 C    1.388    74 C    1.190    52 S    1.090
    54   6 C    3.939 --    53 C    1.388    72 C    1.242    55 N    1.071
    55   7 N    3.489 --    54 C    1.071    64 C    1.071    56 C    1.038
    56   6 C    3.960 --    63 C    1.373    57 C    1.356    55 N    1.038
    57   6 C    3.984 --    58 C    1.474    56 C    1.356   164 H    0.966
    58   6 C    3.989 --    57 C    1.474    59 C    1.369   165 H    0.966
                            63 C    0.102
    59   6 C    3.953 --    62 C    1.387    58 C    1.369    60 S    1.047
    60  16 S    2.247 --    59 C    1.047    61 C    1.008
    61   6 C    3.973 --    60 S    1.008   168 H    0.981   166 H    0.981
                           167 H    0.977
    62   6 C    3.988 --    63 C    1.451    59 C    1.387   169 H    0.964
    63   6 C    3.983 --    62 C    1.451    56 C    1.373   170 H    0.966
                            58 C    0.102
    64   6 C    3.963 --    65 C    1.360    71 C    1.341    55 N    1.071
    65   6 C    3.983 --    66 C    1.456    64 C    1.360   171 H    0.964
    66   6 C    3.989 --    65 C    1.456    67 C    1.390   172 H    0.964
    67   6 C    3.954 --    66 C    1.390    70 C    1.375    68 S    1.027
    68  16 S    2.204 --    67 C    1.027    69 C    1.003
    69   6 C    3.969 --    68 S    1.003   174 H    0.980   175 H    0.979
                           173 H    0.978
    70   6 C    3.989 --    71 C    1.474    67 C    1.375   176 H    0.967
    71   6 C    3.983 --    70 C    1.474    64 C    1.341   177 H    0.964
    72   6 C    3.930 --    51 C    1.347    54 C    1.242    73 S    1.123
    73  16 S    2.543 --    72 C    1.123    32 C    1.080
    74   6 C    3.901 --    75 C    1.399    53 C    1.190   115 S    1.073
    75   6 C    3.941 --    74 C    1.399    93 C    1.220    76 N    1.086
    76   7 N    3.488 --    75 C    1.086    77 C    1.067    85 C    1.038
    77   6 C    3.964 --    84 C    1.358    78 C    1.352    76 N    1.067
    78   6 C    3.981 --    79 C    1.465    77 C    1.352   178 H    0.966
    79   6 C    3.988 --    78 C    1.465    80 C    1.389   179 H    0.962
    80   6 C    3.948 --    83 C    1.390    79 C    1.389    81 S    1.016
    81  16 S    2.175 --    80 C    1.016    82 C    0.998
    82   6 C    3.970 --    81 S    0.998   182 H    0.985   180 H    0.979
                           181 H    0.977
    83   6 C    3.989 --    84 C    1.463    80 C    1.390   183 H    0.968
    84   6 C    3.983 --    83 C    1.463    77 C    1.358   184 H    0.961
    85   6 C    3.959 --    92 C    1.372    86 C    1.353    76 N    1.038
    86   6 C    3.981 --    87 C    1.479    85 C    1.353   185 H    0.965
    87   6 C    3.989 --    86 C    1.479    88 C    1.364   186 H    0.967
                            92 C    0.100
    88   6 C    3.951 --    91 C    1.387    87 C    1.364    89 S    1.053
    89  16 S    2.254 --    88 C    1.053    90 C    1.009
    90   6 C    3.973 --    89 S    1.009   187 H    0.981   188 H    0.981
                           189 H    0.977
    91   6 C    3.988 --    92 C    1.451    88 C    1.387   190 H    0.964
    92   6 C    3.982 --    91 C    1.451    85 C    1.372   191 H    0.966
                            87 C    0.100
    93   6 C    3.935 --   114 C    1.355    75 C    1.220    94 S    1.133
    94  16 S    2.588 --    93 C    1.133    95 C    1.097
    95   6 C    3.915 --    96 C    1.345   116 C    1.222    94 S    1.097
    96   6 C    3.948 --    95 C    1.345   114 C    1.242    97 N    1.123
    97   7 N    3.492 --    96 C    1.123   106 C    1.056    98 C    1.004
    98   6 C    3.961 --    99 C    1.380   105 C    1.373    97 N    1.004
    99   6 C    3.987 --   100 C    1.451    98 C    1.380   192 H    0.964
                           104 C    0.103
   100   6 C    3.989 --    99 C    1.451   101 C    1.386   193 H    0.963
   101   6 C    3.961 --   100 C    1.386   104 C    1.371   102 S    1.052
   102  16 S    2.257 --   101 C    1.052   103 C    1.008
   103   6 C    3.972 --   102 S    1.008   196 H    0.980   195 H    0.979
                           194 H    0.977
   104   6 C    3.989 --   105 C    1.468   101 C    1.371   197 H    0.967
                            99 C    0.103
   105   6 C    3.985 --   104 C    1.468    98 C    1.373   198 H    0.966
   106   6 C    3.959 --   113 C    1.366   107 C    1.338    97 N    1.056
   107   6 C    3.982 --   108 C    1.476   106 C    1.338   199 H    0.965
   108   6 C    3.987 --   107 C    1.476   109 C    1.363   200 H    0.967
   109   6 C    3.948 --   112 C    1.382   108 C    1.363   110 S    1.057
   110  16 S    2.260 --   109 C    1.057   111 C    1.008
   111   6 C    3.972 --   110 S    1.008   201 H    0.981   203 H    0.981
                           202 H    0.974
   112   6 C    3.987 --   113 C    1.454   109 C    1.382   204 H    0.964
   113   6 C    3.977 --   112 C    1.454   106 C    1.366   205 H    0.965
   114   6 C    3.931 --    93 C    1.355    96 C    1.242   115 S    1.106
   115  16 S    2.570 --   114 C    1.106    74 C    1.073
   116   6 C    3.946 --   117 C    1.557    95 C    1.222   206 H    0.936
   117   6 C    3.955 --   116 C    1.557   126 C    1.127   118 C    1.037
   118   6 C    3.915 --   119 O    1.717   117 C    1.037   120 C    1.030
   119   8 O    2.020 --   118 C    1.717
   120   6 C    3.972 --   121 C    1.378   125 C    1.306   118 C    1.030
   121   6 C    3.981 --   122 C    1.444   120 C    1.378   207 H    0.964
   122   6 C    3.955 --   121 C    1.444   123 C    1.323   138 C    0.996
   123   6 C    3.965 --   124 C    1.448   122 C    1.323   132 C    0.997
   124   6 C    3.977 --   123 C    1.448   125 C    1.366   208 H    0.958
   125   6 C    3.978 --   124 C    1.366   120 C    1.306   126 C    1.090
   126   6 C    3.973 --   127 C    1.485   117 C    1.127   125 C    1.090
   127   6 C    3.956 --   126 C    1.485   128 C    1.099   130 C    1.098
   128   6 C    3.943 --   129 N    2.758   127 C    1.099
   129   7 N    2.964 --   128 C    2.758
   130   6 C    3.943 --   131 N    2.752   127 C    1.098
   131   7 N    2.959 --   130 C    2.752
   132   6 C    3.985 --   123 C    0.997   138 C    0.978   209 H    0.959
                           133 C    0.947
   133   6 C    3.989 --   134 C    1.010   137 C    0.985   210 H    0.972
                           132 C    0.947
   134   6 C    3.987 --   135 C    1.924   133 C    1.010   211 H    0.971
   135   6 C    3.987 --   134 C    1.924   136 C    1.010   212 H    0.971
   136   6 C    3.989 --   135 C    1.010   137 C    0.985   213 H    0.972
                           138 C    0.947
   137   6 C    3.993 --   136 C    0.985   133 C    0.985   214 H    0.977
                           215 H    0.976
   138   6 C    3.984 --   122 C    0.996   132 C    0.978   216 H    0.960
                           136 C    0.947
   139   1 H    0.987 --     1 C    0.938
   140   1 H    0.995 --     6 C    0.963
   141   1 H    0.996 --     9 C    0.960
   142   1 H    0.996 --    17 C    0.961
   143   1 H    0.998 --    18 C    0.971
   144   1 H    0.998 --    19 C    0.971
   145   1 H    0.998 --    20 C    0.971
   146   1 H    0.998 --    21 C    0.971
   147   1 H    0.998 --    22 C    0.978
   148   1 H    0.999 --    22 C    0.974
   149   1 H    0.996 --    23 C    0.961
   150   1 H    0.998 --    36 C    0.966
   151   1 H    0.997 --    37 C    0.967
   152   1 H    0.994 --    40 C    0.977
   153   1 H    0.995 --    40 C    0.980
   154   1 H    0.995 --    40 C    0.981
   155   1 H    0.997 --    41 C    0.964
   156   1 H    0.998 --    42 C    0.964
   157   1 H    0.997 --    44 C    0.965
   158   1 H    0.997 --    45 C    0.967
   159   1 H    0.996 --    48 C    0.983
   160   1 H    0.995 --    48 C    0.976
   161   1 H    0.995 --    48 C    0.979
   162   1 H    0.996 --    49 C    0.962
   163   1 H    0.999 --    50 C    0.966
   164   1 H    0.998 --    57 C    0.966
   165   1 H    0.996 --    58 C    0.966
   166   1 H    0.996 --    61 C    0.981
   167   1 H    0.995 --    61 C    0.977
   168   1 H    0.996 --    61 C    0.981
   169   1 H    0.997 --    62 C    0.964
   170   1 H    0.998 --    63 C    0.966
   171   1 H    0.998 --    65 C    0.964
   172   1 H    0.998 --    66 C    0.964
   173   1 H    0.996 --    69 C    0.978
   174   1 H    0.997 --    69 C    0.980
   175   1 H    0.995 --    69 C    0.979
   176   1 H    0.997 --    70 C    0.967
   177   1 H    0.998 --    71 C    0.964
   178   1 H    0.998 --    78 C    0.966
   179   1 H    0.996 --    79 C    0.962
   180   1 H    0.995 --    82 C    0.979
   181   1 H    0.995 --    82 C    0.977
   182   1 H    0.997 --    82 C    0.985
   183   1 H    0.997 --    83 C    0.968
   184   1 H    0.998 --    84 C    0.961
   185   1 H    0.998 --    86 C    0.965
   186   1 H    0.997 --    87 C    0.967
   187   1 H    0.995 --    90 C    0.981
   188   1 H    0.996 --    90 C    0.981
   189   1 H    0.995 --    90 C    0.977
   190   1 H    0.997 --    91 C    0.964
   191   1 H    0.998 --    92 C    0.966
   192   1 H    0.998 --    99 C    0.964
   193   1 H    0.997 --   100 C    0.963
   194   1 H    0.995 --   103 C    0.977
   195   1 H    0.996 --   103 C    0.979
   196   1 H    0.995 --   103 C    0.980
   197   1 H    0.997 --   104 C    0.967
   198   1 H    0.997 --   105 C    0.966
   199   1 H    0.997 --   107 C    0.965
   200   1 H    0.997 --   108 C    0.967
   201   1 H    0.995 --   111 C    0.981
   202   1 H    0.994 --   111 C    0.974
   203   1 H    0.996 --   111 C    0.981
   204   1 H    0.997 --   112 C    0.964
   205   1 H    0.998 --   113 C    0.965
   206   1 H    0.993 --   116 C    0.936
   207   1 H    0.996 --   121 C    0.964
   208   1 H    0.996 --   124 C    0.958
   209   1 H    0.996 --   132 C    0.959
   210   1 H    0.998 --   133 C    0.972
   211   1 H    0.999 --   134 C    0.971
   212   1 H    0.999 --   135 C    0.971
   213   1 H    0.998 --   136 C    0.972
   214   1 H    0.998 --   137 C    0.977
   215   1 H    0.996 --   137 C    0.976
   216   1 H    0.996 --   138 C    0.960
 ---------------------------------------------------------------------------

Topologies differ in bond orders
Writing corrected topology to xtbtopo.mol

molecular dipole:
                 x           y           z       tot (Debye)
 q only:        2.876       0.839       2.699
   full:        4.293       0.299       2.606      12.786
molecular quadrupole (traceless):
                xx          xy          yy          xz          yz          zz
 q only:        6.908      80.104      22.444      10.080     -55.380     -29.351
  q+dip:       10.160      82.356      25.944       9.443     -48.126     -36.104
   full:        8.106      83.812      21.277       5.355     -47.660     -29.383


           -------------------------------------------------
          | TOTAL ENERGY             -362.415738859999 Eh   |
          | GRADIENT NORM               0.021449193815 Eh/α |
          | HOMO-LUMO GAP               0.436337603645 eV   |
           -------------------------------------------------

------------------------------------------------------------------------
 * finished run on 2022/02/05 at 12:07:17.325     
------------------------------------------------------------------------
 total:
 * wall-time:     0 d,  0 h,  0 min,  0.994 sec
 *  cpu-time:     0 d,  0 h,  0 min,  7.814 sec
 * ratio c/w:     7.858 speedup
 SCF:
 * wall-time:     0 d,  0 h,  0 min,  0.880 sec
 *  cpu-time:     0 d,  0 h,  0 min,  7.027 sec
 * ratio c/w:     7.985 speedup

