      -----------------------------------------------------------      
     |                   =====================                   |     
     |                           x T B                           |     
     |                   =====================                   |     
     |                         S. Grimme                         |     
     |          Mulliken Center for Theoretical Chemistry        |     
     |                    University of Bonn                     |     
      -----------------------------------------------------------      

   * xtb version 6.4.1 (unknown) compiled by 'oda6@login1.crc.pitt.edu' on 2021-06-25

   xtb is free software: you can redistribute it and/or modify it under
   the terms of the GNU Lesser General Public License as published by
   the Free Software Foundation, either version 3 of the License, or
   (at your option) any later version.
   
   xtb is distributed in the hope that it will be useful,
   but WITHOUT ANY WARRANTY; without even the implied warranty of
   MERCHANTABILITY or FITNESS FOR A PARTICULAR PURPOSE.  See the
   GNU Lesser General Public License for more details.
   
   Cite this work as:
   * C. Bannwarth, E. Caldeweyher, S. Ehlert, A. Hansen, P. Pracht,
     J. Seibert, S. Spicher, S. Grimme, WIREs Comput. Mol. Sci., 2020, 11,
     e01493. DOI: 10.1002/wcms.1493
   
   for GFN2-xTB:
   * C. Bannwarth, S. Ehlert and S. Grimme., J. Chem. Theory Comput., 2019,
     15, 1652-1671. DOI: 10.1021/acs.jctc.8b01176
   for GFN1-xTB:
   * S. Grimme, C. Bannwarth, P. Shushkov, J. Chem. Theory Comput., 2017,
     13, 1989-2009. DOI: 10.1021/acs.jctc.7b00118
   for GFN0-xTB:
   * P. Pracht, E. Caldeweyher, S. Ehlert, S. Grimme, ChemRxiv, 2019, preprint.
     DOI: 10.26434/chemrxiv.8326202.v1
   for GFN-FF:
   * S. Spicher and S. Grimme, Angew. Chem. Int. Ed., 2020, 59, 15665-15673.
     DOI: 10.1002/anie.202004239
   
   for DFT-D4:
   * E. Caldeweyher, C. Bannwarth and S. Grimme, J. Chem. Phys., 2017,
     147, 034112. DOI: 10.1063/1.4993215
   * E. Caldeweyher, S. Ehlert, A. Hansen, H. Neugebauer, S. Spicher,
     C. Bannwarth and S. Grimme, J. Chem. Phys., 2019, 150, 154122.
     DOI: 10.1063/1.5090222
   * E. Caldeweyher, J.-M. Mewes, S. Ehlert and S. Grimme, Phys. Chem. Chem. Phys.
     2020, 22, 8499-8512. DOI: 10.1039/D0CP00502A
   
   for sTDA-xTB:
   * S. Grimme and C. Bannwarth, J. Chem. Phys., 2016, 145, 054103.
     DOI: 10.1063/1.4959605
   
   in the mass-spec context:
   * V. Asgeirsson, C. Bauer and S. Grimme, Chem. Sci., 2017, 8, 4879.
     DOI: 10.1039/c7sc00601b
   * J. Koopman and S. Grimme, ACS Omega 2019, 4, 12, 15120-15133.
     DOI: 10.1021/acsomega.9b02011
   
   for metadynamics refer to:
   * S. Grimme, J. Chem. Theory Comput., 2019, 155, 2847-2862
     DOI: 10.1021/acs.jctc.9b00143
   
   for SPH calculations refer to:
   * S. Spicher and S. Grimme, J. Chem. Theory Comput., 2021, 17, 1701-1714
     DOI: 10.1021/acs.jctc.0c01306
   
   with help from (in alphabetical order)
   P. Atkinson, C. Bannwarth, F. Bohle, G. Brandenburg, E. Caldeweyher
   M. Checinski, S. Dohm, S. Ehlert, S. Ehrlich, I. Gerasimov, J. Koopman
   C. Lavigne, S. Lehtola, F. März, M. Müller, F. Musil, H. Neugebauer
   J. Pisarek, C. Plett, P. Pracht, J. Seibert, P. Shushkov, S. Spicher
   M. Stahn, M. Steiner, T. Strunk, J. Stückrath, T. Rose, and J. Unsleber
   
 * started run on 2022/02/13 at 06:37:20.609     

           -------------------------------------------------
          |                Calculation Setup                |
           -------------------------------------------------

          program call               : /ihome/ghutchison/oda6/xtb/xtb-641/bin/xtb ../../GFN2_output/39_130_152_130_39.mol --sp --alpb hexane
          hostname                   : smp-n25
          coordinate file            : ../../GFN2_output/39_130_152_130_39.mol
          omp threads                :                     8
          number of atoms            :                   219
          number of electrons        :                   676
          charge                     :                     0
          spin                       :                   0.0
          first test random number   :      0.99223714523956

   ID    Z sym.   atoms
    1    6 C      1-3, 5-13, 15, 17-25, 27-30, 32-38, 40-43, 45, 46, 48-51,
                  53-59, 61-64, 66-70, 74-76, 78-81, 83-89, 91-94, 96, 97,
                  99-102, 104-110, 112-115, 117-119, 121-129, 131, 133-139
    2    8 O      4, 120
    3    7 N      14, 16, 26, 47, 71, 73, 77, 98, 130, 132
    4   16 S      31, 39, 44, 52, 60, 65, 72, 82, 90, 95, 103, 111, 116
    5    1 H      140-219

           -------------------------------------------------
          |                 G F N 2 - x T B                 |
           -------------------------------------------------

        Reference                      10.1021/acs.jctc.8b01176
      * Hamiltonian:
        H0-scaling (s, p, d)           1.850000    2.230000    2.230000
        zeta-weighting                 0.500000
      * Dispersion:
        s8                             2.700000
        a1                             0.520000
        a2                             5.000000
        s9                             5.000000
      * Repulsion:
        kExp                           1.500000    1.000000
        rExp                           1.000000
      * Coulomb:
        alpha                          2.000000
        third order                    shell-resolved
        anisotropic                    true
        a3                             3.000000
        a5                             4.000000
        cn-shift                       1.200000
        cn-exp                         4.000000
        max-rad                        5.000000

      * Solvation model:               ALPB
        Solvent                        hexane
        Parameter file                 internal GFN2-xTB/ALPB
        Dielectric constant                1.8800E+00
        Reference state                gsolv [1 M gas/solution]
        Free energy shift                  4.8134E-03 Eh       3.0204E+00 kcal/mol
        Temperature                        2.9815E+02 K
        Density                            6.6000E-01 kg/L
        Solvent mass                       8.6180E+01 g/mol
        Interaction kernel             P16
        Born radius scaling (c1)           1.1040E+00
        Born radii integrator          GBOBC
        Born offset                        0.0000E+00 a0       0.0000E+00 AA
        H-bond correction              false
        Ion screening                  false
        Surface tension                    1.0000E-05 Eh       1.5569E+01 dyn/cm
        Grid points                               230 per atom

          ...................................................
          :                      SETUP                      :
          :.................................................:
          :  # basis functions                 714          :
          :  # atomic orbitals                 701          :
          :  # shells                          371          :
          :  # electrons                       676          :
          :  max. iterations                   250          :
          :  Hamiltonian                  GFN2-xTB          :
          :  restarted?                      false          :
          :  GBSA solvation                   true          :
          :  PC potential                    false          :
          :  electronic temp.          300.0000000     K    :
          :  accuracy                    1.0000000          :
          :  -> integral cutoff          0.2500000E+02      :
          :  -> integral neglect         0.1000000E-07      :
          :  -> SCF convergence          0.1000000E-05 Eh   :
          :  -> wf. convergence          0.1000000E-03 e    :
          :  Broyden damping             0.4000000          :
          ...................................................

 iter      E             dE          RMSdq      gap      omega  full diag
   1   -370.0175059 -0.370018E+03  0.478E+00    0.82       0.0  T
   2   -370.2580336 -0.240528E+00  0.274E+00    0.83       1.0  T
   3   -370.0706604  0.187373E+00  0.127E+00    0.50       1.0  T
   4   -370.2940200 -0.223360E+00  0.538E-01    0.61       1.0  T
   5   -370.3314520 -0.374319E-01  0.183E-01    0.59       1.0  T
   6   -370.3323958 -0.943777E-03  0.763E-02    0.62       1.0  T
   7   -370.3329428 -0.547069E-03  0.319E-02    0.62       1.0  T
   8   -370.3330097 -0.669238E-04  0.192E-02    0.62       1.0  T
   9   -370.3330403 -0.305697E-04  0.918E-03    0.62       1.0  T
  10   -370.3330452 -0.488210E-05  0.393E-03    0.62       1.7  T
  11   -370.3330467 -0.154735E-05  0.190E-03    0.62       3.6  T
  12   -370.3330469 -0.132320E-06  0.104E-03    0.62       6.5  T
  13   -370.3330470 -0.874169E-07  0.435E-04    0.62      15.6  T
  14   -370.3330470 -0.867033E-08  0.191E-04    0.62      35.4  T

   *** convergence criteria satisfied after 14 iterations ***

         #    Occupation            Energy/Eh            Energy/eV
      -------------------------------------------------------------
         1        2.0000           -0.7666200             -20.8608
       ...           ...                  ...                  ...
       332        2.0000           -0.3701051             -10.0711
       333        2.0000           -0.3659624              -9.9583
       334        2.0000           -0.3650390              -9.9332
       335        2.0000           -0.3593247              -9.7777
       336        2.0000           -0.3562429              -9.6939
       337        2.0000           -0.3540646              -9.6346
       338        2.0000           -0.3509154              -9.5489 (HOMO)
       339        0.0000           -0.3281203              -8.9286 (LUMO)
       340                         -0.3226388              -8.7794
       341                         -0.3190262              -8.6811
       342                         -0.3139536              -8.5431
       343                         -0.3081149              -8.3842
       ...                                ...                  ...
       701                          1.1617473              31.6128
      -------------------------------------------------------------
                  HL-Gap            0.0227950 Eh            0.6203 eV
             Fermi-level           -0.3395007 Eh           -9.2383 eV

 SCC (total)                   0 d,  0 h,  0 min,  3.653 sec
 SCC setup                      ...        0 min,  0.010 sec (  0.281%)
 Dispersion                     ...        0 min,  0.018 sec (  0.487%)
 classical contributions        ...        0 min,  0.001 sec (  0.019%)
 integral evaluation            ...        0 min,  0.069 sec (  1.880%)
 iterations                     ...        0 min,  3.354 sec ( 91.809%)
 molecular gradient             ...        0 min,  0.194 sec (  5.315%)
 printout                       ...        0 min,  0.008 sec (  0.208%)

         :::::::::::::::::::::::::::::::::::::::::::::::::::::
         ::                     SUMMARY                     ::
         :::::::::::::::::::::::::::::::::::::::::::::::::::::
         :: total energy            -364.474738888705 Eh    ::
         :: total w/o Gsasa/hb      -364.353966523841 Eh    ::
         :: gradient norm              0.021204658983 Eh/a0 ::
         :: HOMO-LUMO gap              0.620284008770 eV    ::
         ::.................................................::
         :: SCC energy              -370.333046975376 Eh    ::
         :: -> isotropic ES            0.166120870431 Eh    ::
         :: -> anisotropic ES          0.013547672248 Eh    ::
         :: -> anisotropic XC          0.237846043995 Eh    ::
         :: -> dispersion             -0.410369592071 Eh    ::
         :: -> Gsolv                  -0.149585216674 Eh    ::
         ::    -> Gelec               -0.028812851809 Eh    ::
         ::    -> Gsasa               -0.125585720685 Eh    ::
         ::    -> Ghb                  0.000000000000 Eh    ::
         ::    -> Gshift               0.004813355820 Eh    ::
         :: repulsion energy           5.843897194427 Eh    ::
         :: add. restraining           0.000000000000 Eh    ::
         :: total charge               0.000000000050 e     ::
         :::::::::::::::::::::::::::::::::::::::::::::::::::::

           -------------------------------------------------
          |                Property Printout                |
           -------------------------------------------------

    * Orbital Energies and Occupations

         #    Occupation            Energy/Eh            Energy/eV
      -------------------------------------------------------------
         1        2.0000           -0.7666200             -20.8608
       ...           ...                  ...                  ...
       326        2.0000           -0.3873394             -10.5400
       327        2.0000           -0.3866915             -10.5224
       328        2.0000           -0.3842847             -10.4569
       329        2.0000           -0.3794391             -10.3251
       330        2.0000           -0.3745868             -10.1930
       331        2.0000           -0.3726677             -10.1408
       332        2.0000           -0.3701051             -10.0711
       333        2.0000           -0.3659624              -9.9583
       334        2.0000           -0.3650390              -9.9332
       335        2.0000           -0.3593247              -9.7777
       336        2.0000           -0.3562429              -9.6939
       337        2.0000           -0.3540646              -9.6346
       338        2.0000           -0.3509154              -9.5489 (HOMO)
       339        0.0000           -0.3281203              -8.9286 (LUMO)
       340                         -0.3226388              -8.7794
       341                         -0.3190262              -8.6811
       342                         -0.3139536              -8.5431
       343                         -0.3081149              -8.3842
       344                         -0.2760372              -7.5114
       345                         -0.2660303              -7.2391
       346                         -0.2534833              -6.8976
       347                         -0.2503639              -6.8127
       348                         -0.2475953              -6.7374
       349                         -0.2463699              -6.7041
       ...                                ...                  ...
       701                          1.1617473              31.6128
      -------------------------------------------------------------
                  HL-Gap            0.0227950 Eh            0.6203 eV
             Fermi-level           -0.3395007 Eh           -9.2383 eV

     #   Z          covCN         q      C6AA      α(0)
     1   6 C        2.921    -0.016    28.402     8.740
     2   6 C        3.006    -0.045    29.102     8.849
     3   6 C        2.877     0.231    23.167     7.890
     4   8 O        0.931    -0.419    22.034     6.295
     5   6 C        3.061    -0.023    28.508     8.756
     6   6 C        2.904    -0.023    28.589     8.767
     7   6 C        3.261     0.008    26.665     8.341
     8   6 C        3.257     0.011    26.654     8.347
     9   6 C        2.905    -0.033    28.829     8.804
    10   6 C        3.051     0.005    27.871     8.658
    11   6 C        3.024     0.034    27.222     8.558
    12   6 C        2.947    -0.001    28.043     8.685
    13   6 C        1.954     0.128    27.941     8.536
    14   7 N        0.911    -0.292    27.515     7.587
    15   6 C        1.955     0.133    27.827     8.519
    16   7 N        0.911    -0.278    27.184     7.541
    17   6 C        4.164    -0.024    20.920     6.496
    18   6 C        4.012    -0.015    20.765     6.474
    19   6 C        2.988    -0.041    29.012     8.835
    20   6 C        2.987    -0.042    29.034     8.839
    21   6 C        4.012    -0.015    20.767     6.474
    22   6 C        3.926    -0.060    21.591     6.604
    23   6 C        4.162    -0.025    20.925     6.497
    24   6 C        2.986     0.008    27.822     8.652
    25   6 C        3.042     0.061    26.601     8.459
    26   7 N        2.748    -0.037    21.949     6.958
    27   6 C        2.925     0.056    26.751     8.482
    28   6 C        2.920    -0.046    29.135     8.852
    29   6 C        2.979    -0.039    28.964     8.828
    30   6 C        2.966     0.048    26.931     8.512
    31  16 S        2.032    -0.183   148.811    20.531
    32   6 C        3.744    -0.049    21.521     6.618
    33   6 C        2.946    -0.037    28.923     8.821
    34   6 C        2.923    -0.037    28.921     8.819
    35   6 C        2.936     0.059    26.682     8.471
    36   6 C        2.923    -0.040    28.997     8.831
    37   6 C        2.943    -0.044    29.081     8.845
    38   6 C        2.966     0.052    26.834     8.497
    39  16 S        2.036    -0.177   148.531    20.512
    40   6 C        3.744    -0.054    21.615     6.632
    41   6 C        2.986    -0.034    28.848     8.810
    42   6 C        2.925    -0.036    28.886     8.814
    43   6 C        3.154     0.007    27.576     8.587
    44  16 S        2.344    -0.069   143.913    20.191
    45   6 C        2.987     0.015    27.668     8.628
    46   6 C        3.065     0.052    26.781     8.486
    47   7 N        2.750    -0.054    22.284     7.011
    48   6 C        2.951     0.061    26.632     8.464
    49   6 C        2.922    -0.038    28.946     8.823
    50   6 C        2.952    -0.032    28.806     8.803
    51   6 C        2.967     0.054    26.777     8.488
    52  16 S        2.029    -0.195   149.360    20.569
    53   6 C        3.744    -0.050    21.548     6.622
    54   6 C        2.972    -0.036    28.892     8.817
    55   6 C        2.923    -0.042    29.040     8.837
    56   6 C        2.921     0.078    26.259     8.403
    57   6 C        2.923    -0.043    29.078     8.843
    58   6 C        2.971    -0.039    28.960     8.827
    59   6 C        2.966     0.040    27.107     8.540
    60  16 S        2.025    -0.187   148.984    20.543
    61   6 C        3.744    -0.048    21.512     6.617
    62   6 C        2.947    -0.047    29.165     8.857
    63   6 C        2.922    -0.050    29.230     8.866
    64   6 C        3.190     0.004    27.449     8.546
    65  16 S        2.298    -0.028   142.228    20.072
    66   6 C        3.029    -0.001    28.021     8.683
    67   6 C        2.948    -0.040    28.997     8.832
    68   6 C        2.923    -0.033    28.829     8.805
    69   6 C        2.991    -0.004    28.108     8.697
    70   6 C        3.352     0.074    23.693     7.664
    71   7 N        1.852    -0.309    28.856     7.962
    72  16 S        2.663     0.366   127.022    18.969
    73   7 N        1.857    -0.303    28.704     7.941
    74   6 C        3.339     0.075    23.948     7.742
    75   6 C        3.001     0.011    27.751     8.641
    76   6 C        3.067     0.050    26.802     8.489
    77   7 N        2.749    -0.061    22.423     7.033
    78   6 C        2.936     0.060    26.655     8.467
    79   6 C        2.921    -0.044    29.081     8.843
    80   6 C        2.972    -0.036    28.890     8.817
    81   6 C        2.967     0.054    26.793     8.490
    82  16 S        2.029    -0.201   149.613    20.587
    83   6 C        3.744    -0.048    21.509     6.616
    84   6 C        2.951    -0.035    28.860     8.811
    85   6 C        2.925    -0.044    29.086     8.844
    86   6 C        2.917     0.059    26.679     8.470
    87   6 C        2.927    -0.054    29.339     8.883
    88   6 C        2.943    -0.045    29.123     8.851
    89   6 C        2.966     0.040    27.094     8.538
    90  16 S        2.030    -0.206   149.837    20.602
    91   6 C        3.744    -0.044    21.440     6.605
    92   6 C        2.980    -0.041    29.002     8.834
    93   6 C        2.924    -0.052    29.292     8.876
    94   6 C        3.166    -0.000    27.685     8.598
    95  16 S        2.319    -0.023   142.005    20.056
    96   6 C        2.985     0.008    27.841     8.655
    97   6 C        3.047     0.058    26.656     8.468
    98   7 N        2.748    -0.041    22.025     6.970
    99   6 C        2.935     0.059    26.677     8.471
   100   6 C        2.925    -0.040    29.006     8.832
   101   6 C        2.943    -0.042    29.051     8.840
   102   6 C        2.966     0.051    26.848     8.499
   103  16 S        2.035    -0.173   148.362    20.500
   104   6 C        3.744    -0.053    21.599     6.630
   105   6 C        2.985    -0.037    28.916     8.821
   106   6 C        2.921    -0.039    28.960     8.825
   107   6 C        2.922     0.056    26.737     8.479
   108   6 C        2.923    -0.049    29.216     8.864
   109   6 C        2.943    -0.046    29.136     8.853
   110   6 C        2.965     0.047    26.940     8.514
   111  16 S        2.036    -0.176   148.487    20.509
   112   6 C        3.744    -0.052    21.578     6.626
   113   6 C        2.986    -0.034    28.844     8.810
   114   6 C        2.921    -0.036    28.902     8.816
   115   6 C        3.157     0.001    27.697     8.605
   116  16 S        2.242    -0.062   143.621    20.170
   117   6 C        2.922    -0.017    28.434     8.745
   118   6 C        3.007    -0.046    29.136     8.854
   119   6 C        2.878     0.230    23.187     7.894
   120   8 O        0.956    -0.420    22.025     6.295
   121   6 C        3.062    -0.023    28.508     8.756
   122   6 C        2.904    -0.023    28.589     8.767
   123   6 C        3.261     0.008    26.657     8.341
   124   6 C        3.255     0.011    26.679     8.353
   125   6 C        2.904    -0.035    28.869     8.810
   126   6 C        3.050     0.003    27.901     8.663
   127   6 C        3.024     0.032    27.259     8.564
   128   6 C        2.947     0.001    28.004     8.679
   129   6 C        1.946     0.129    27.931     8.535
   130   7 N        0.911    -0.284    27.317     7.559
   131   6 C        1.948     0.133    27.834     8.520
   132   7 N        0.911    -0.275    27.112     7.531
   133   6 C        4.163    -0.022    20.882     6.490
   134   6 C        4.013    -0.015    20.768     6.474
   135   6 C        2.995    -0.042    29.025     8.838
   136   6 C        2.995    -0.042    29.037     8.839
   137   6 C        4.013    -0.015    20.766     6.474
   138   6 C        3.915    -0.059    21.575     6.602
   139   6 C        4.160    -0.022    20.878     6.490
   140   1 H        0.925     0.065     2.145     2.291
   141   1 H        0.926     0.056     2.246     2.343
   142   1 H        0.926     0.057     2.236     2.338
   143   1 H        0.925     0.049     2.328     2.386
   144   1 H        0.925     0.039     2.460     2.453
   145   1 H        0.926     0.031     2.565     2.504
   146   1 H        0.926     0.031     2.569     2.506
   147   1 H        0.925     0.038     2.481     2.463
   148   1 H        0.925     0.042     2.426     2.436
   149   1 H        0.925     0.042     2.418     2.432
   150   1 H        0.925     0.048     2.346     2.395
   151   1 H        0.926     0.041     2.431     2.438
   152   1 H        0.926     0.051     2.304     2.374
   153   1 H        0.925     0.071     2.071     2.250
   154   1 H        0.925     0.062     2.171     2.304
   155   1 H        0.925     0.062     2.172     2.305
   156   1 H        0.926     0.056     2.242     2.341
   157   1 H        0.926     0.057     2.230     2.335
   158   1 H        0.926     0.047     2.353     2.399
   159   1 H        0.926     0.052     2.297     2.370
   160   1 H        0.925     0.070     2.083     2.257
   161   1 H        0.925     0.065     2.141     2.288
   162   1 H        0.925     0.064     2.148     2.292
   163   1 H        0.926     0.055     2.262     2.352
   164   1 H        0.926     0.058     2.222     2.331
   165   1 H        0.926     0.047     2.361     2.403
   166   1 H        0.926     0.053     2.277     2.359
   167   1 H        0.925     0.078     2.003     2.213
   168   1 H        0.925     0.060     2.194     2.316
   169   1 H        0.925     0.054     2.269     2.355
   170   1 H        0.926     0.052     2.300     2.372
   171   1 H        0.926     0.042     2.420     2.432
   172   1 H        0.926     0.052     2.291     2.367
   173   1 H        0.926     0.055     2.262     2.352
   174   1 H        0.925     0.056     2.250     2.346
   175   1 H        0.925     0.058     2.219     2.329
   176   1 H        0.925     0.069     2.094     2.263
   177   1 H        0.926     0.046     2.372     2.408
   178   1 H        0.926     0.031     2.569     2.506
   179   1 H        0.926     0.065     2.136     2.285
   180   1 H        0.926     0.055     2.257     2.350
   181   1 H        0.926     0.043     2.410     2.428
   182   1 H        0.926     0.051     2.303     2.373
   183   1 H        0.925     0.060     2.194     2.316
   184   1 H        0.925     0.075     2.026     2.226
   185   1 H        0.925     0.052     2.296     2.370
   186   1 H        0.926     0.049     2.337     2.391
   187   1 H        0.926     0.049     2.335     2.390
   188   1 H        0.926     0.039     2.468     2.457
   189   1 H        0.926     0.044     2.403     2.424
   190   1 H        0.925     0.066     2.134     2.284
   191   1 H        0.925     0.062     2.175     2.307
   192   1 H        0.925     0.059     2.212     2.326
   193   1 H        0.926     0.046     2.369     2.407
   194   1 H        0.926     0.037     2.486     2.466
   195   1 H        0.926     0.042     2.427     2.436
   196   1 H        0.926     0.052     2.301     2.372
   197   1 H        0.925     0.069     2.096     2.264
   198   1 H        0.925     0.063     2.159     2.298
   199   1 H        0.925     0.066     2.125     2.280
   200   1 H        0.926     0.054     2.266     2.354
   201   1 H        0.926     0.050     2.324     2.384
   202   1 H        0.926     0.037     2.486     2.466
   203   1 H        0.926     0.045     2.377     2.411
   204   1 H        0.925     0.072     2.069     2.249
   205   1 H        0.925     0.061     2.192     2.315
   206   1 H        0.925     0.063     2.163     2.300
   207   1 H        0.926     0.057     2.229     2.335
   208   1 H        0.926     0.061     2.191     2.315
   209   1 H        0.925     0.065     2.144     2.290
   210   1 H        0.926     0.061     2.182     2.310
   211   1 H        0.926     0.056     2.242     2.342
   212   1 H        0.925     0.044     2.395     2.420
   213   1 H        0.925     0.039     2.460     2.453
   214   1 H        0.926     0.038     2.477     2.461
   215   1 H        0.926     0.038     2.481     2.463
   216   1 H        0.925     0.039     2.461     2.453
   217   1 H        0.925     0.035     2.518     2.482
   218   1 H        0.925     0.040     2.451     2.448
   219   1 H        0.925     0.043     2.407     2.426

 Mol. C6AA /au·bohr⁶  :     858422.830887
 Mol. C8AA /au·bohr⁸  :   24640394.253189
 Mol. α(0) /au        :       1487.885602


Wiberg/Mayer (AO) data.
largest (>0.10) Wiberg bond orders for each atom

 ---------------------------------------------------------------------------
     #   Z sym  total        # sym  WBO       # sym  WBO       # sym  WBO
 ---------------------------------------------------------------------------
     1   6 C    3.949 --     2 C    1.440    24 C    1.361   140 H    0.930
     2   6 C    3.950 --     1 C    1.440    11 C    1.165     3 C    1.079
     3   6 C    3.906 --     4 O    1.665     2 C    1.079     5 C    1.030
     4   8 O    2.057 --     3 C    1.665    65 S    0.112
     5   6 C    3.970 --     6 C    1.384    10 C    1.309     3 C    1.030
     6   6 C    3.979 --     7 C    1.438     5 C    1.384   141 H    0.963
     7   6 C    3.955 --     6 C    1.438     8 C    1.331    23 C    0.996
     8   6 C    3.965 --     9 C    1.442     7 C    1.331    17 C    0.997
     9   6 C    3.976 --     8 C    1.442    10 C    1.373   142 H    0.958
    10   6 C    3.977 --     9 C    1.373     5 C    1.309    11 C    1.083
    11   6 C    3.972 --    12 C    1.450     2 C    1.165    10 C    1.083
    12   6 C    3.951 --    11 C    1.450    13 C    1.111    15 C    1.103
    13   6 C    3.941 --    14 N    2.719    12 C    1.111
    14   7 N    2.950 --    13 C    2.719
    15   6 C    3.940 --    16 N    2.744    12 C    1.103
    16   7 N    2.953 --    15 C    2.744
    17   6 C    3.985 --     8 C    0.997    23 C    0.978   143 H    0.959
                            18 C    0.947
    18   6 C    3.989 --    19 C    1.010    22 C    0.985   144 H    0.972
                            17 C    0.947
    19   6 C    3.987 --    20 C    1.924    18 C    1.010   145 H    0.971
    20   6 C    3.987 --    19 C    1.924    21 C    1.010   146 H    0.971
    21   6 C    3.989 --    20 C    1.010    22 C    0.985   147 H    0.972
                            23 C    0.947
    22   6 C    3.993 --    21 C    0.985    18 C    0.985   148 H    0.977
                           149 H    0.976
    23   6 C    3.984 --     7 C    0.996    17 C    0.978   150 H    0.960
                            21 C    0.947
    24   6 C    3.923 --     1 C    1.361    25 C    1.255    65 S    1.071
    25   6 C    3.942 --    43 C    1.257    24 C    1.255    26 N    1.176
    26   7 N    3.538 --    25 C    1.176    27 C    1.035    35 C    1.021
    27   6 C    3.959 --    34 C    1.375    28 C    1.348    26 N    1.035
    28   6 C    3.986 --    29 C    1.484    27 C    1.348   151 H    0.967
    29   6 C    3.987 --    28 C    1.484    30 C    1.360   152 H    0.967
    30   6 C    3.957 --    33 C    1.394    29 C    1.360    31 S    1.051
    31  16 S    2.245 --    30 C    1.051    32 C    1.006
    32   6 C    3.971 --    31 S    1.006   155 H    0.981   154 H    0.981
                           153 H    0.977
    33   6 C    3.989 --    34 C    1.443    30 C    1.394   156 H    0.964
    34   6 C    3.980 --    33 C    1.443    27 C    1.375   157 H    0.964
    35   6 C    3.958 --    36 C    1.377    42 C    1.355    26 N    1.021
    36   6 C    3.976 --    37 C    1.452    35 C    1.377   158 H    0.966
                            41 C    0.102
    37   6 C    3.987 --    36 C    1.452    38 C    1.384   159 H    0.963
    38   6 C    3.952 --    37 C    1.384    41 C    1.369    39 S    1.054
    39  16 S    2.259 --    38 C    1.054    40 C    1.009
    40   6 C    3.972 --    39 S    1.009   162 H    0.981   161 H    0.980
                           160 H    0.977
    41   6 C    3.988 --    42 C    1.470    38 C    1.369   163 H    0.965
                            36 C    0.102
    42   6 C    3.982 --    41 C    1.470    35 C    1.355   164 H    0.962
    43   6 C    3.931 --    64 C    1.353    25 C    1.257    44 S    1.099
    44  16 S    2.554 --    43 C    1.099    45 C    1.085
    45   6 C    3.905 --    46 C    1.410    66 C    1.174    44 S    1.085
    46   6 C    3.929 --    45 C    1.410    64 C    1.224    47 N    1.067
    47   7 N    3.483 --    56 C    1.107    46 C    1.067    48 C    1.024
    48   6 C    3.961 --    49 C    1.368    55 C    1.365    47 N    1.024
    49   6 C    3.981 --    50 C    1.457    48 C    1.368   165 H    0.965
                            54 C    0.100
    50   6 C    3.988 --    49 C    1.457    51 C    1.385   166 H    0.965
    51   6 C    3.953 --    50 C    1.385    54 C    1.381    52 S    1.041
    52  16 S    2.214 --    51 C    1.041    53 C    1.001
    53   6 C    3.970 --    52 S    1.001   169 H    0.984   168 H    0.981
                           167 H    0.972
    54   6 C    3.989 --    55 C    1.467    51 C    1.381   170 H    0.968
                            49 C    0.100
    55   6 C    3.982 --    54 C    1.467    48 C    1.365   171 H    0.967
    56   6 C    3.965 --    63 C    1.336    57 C    1.314    47 N    1.107
    57   6 C    3.977 --    58 C    1.500    56 C    1.314   172 H    0.964
    58   6 C    3.986 --    57 C    1.500    59 C    1.350   173 H    0.967
    59   6 C    3.943 --    62 C    1.381    58 C    1.350    60 S    1.039
    60  16 S    2.220 --    59 C    1.039    61 C    1.004
    61   6 C    3.973 --    60 S    1.004   174 H    0.982   175 H    0.979
                           176 H    0.978
    62   6 C    3.988 --    63 C    1.463    59 C    1.381   177 H    0.960
    63   6 C    3.983 --    62 C    1.463    56 C    1.336   178 H    0.960
    64   6 C    3.940 --    43 C    1.353    46 C    1.224    65 S    1.130
    65  16 S    2.660 --    64 C    1.130    24 C    1.071     4 O    0.112
    66   6 C    3.957 --    67 C    1.385    74 C    1.181    45 C    1.174
    67   6 C    3.954 --    68 C    1.408    66 C    1.385   179 H    0.946
    68   6 C    3.966 --    67 C    1.408    69 C    1.405   180 H    0.964
    69   6 C    3.922 --    68 C    1.405    70 C    1.202    75 C    1.114
    70   6 C    3.969 --    71 N    1.382    69 C    1.202    74 C    1.162
    71   7 N    3.052 --    72 S    1.407    70 C    1.382    73 N    0.146
    72  16 S    3.185 --    71 N    1.407    73 N    1.399
    73   7 N    3.080 --    72 S    1.399    74 C    1.399    71 N    0.146
    74   6 C    3.968 --    73 N    1.399    66 C    1.181    70 C    1.162
    75   6 C    3.898 --    76 C    1.424    69 C    1.114   116 S    1.100
    76   6 C    3.948 --    75 C    1.424    94 C    1.220    77 N    1.081
    77   7 N    3.501 --    86 C    1.082    76 C    1.081    78 C    1.035
    78   6 C    3.962 --    85 C    1.367    79 C    1.363    77 N    1.035
    79   6 C    3.984 --    80 C    1.468    78 C    1.363   181 H    0.966
                            84 C    0.100
    80   6 C    3.989 --    79 C    1.468    81 C    1.381   182 H    0.968
                            85 C    0.100
    81   6 C    3.955 --    84 C    1.392    80 C    1.381    82 S    1.034
    82  16 S    2.202 --    81 C    1.034    83 C    1.001
    83   6 C    3.971 --    82 S    1.001   185 H    0.983   183 H    0.980
                           184 H    0.975
    84   6 C    3.989 --    85 C    1.452    81 C    1.392   186 H    0.966
                            79 C    0.100
    85   6 C    3.984 --    84 C    1.452    78 C    1.367   187 H    0.965
                            80 C    0.100
    86   6 C    3.964 --    87 C    1.359    93 C    1.337    77 N    1.082
    87   6 C    3.983 --    88 C    1.450    86 C    1.359   188 H    0.961
    88   6 C    3.989 --    87 C    1.450    89 C    1.387   189 H    0.962
    89   6 C    3.953 --    88 C    1.387    92 C    1.366    90 S    1.034
    90  16 S    2.238 --    89 C    1.034    91 C    1.009
    91   6 C    3.974 --    90 S    1.009   191 H    0.981   192 H    0.979
                           190 H    0.977
    92   6 C    3.989 --    93 C    1.478    89 C    1.366   193 H    0.966
    93   6 C    3.985 --    92 C    1.478    86 C    1.337   194 H    0.965
    94   6 C    3.940 --   115 C    1.347    76 C    1.220    95 S    1.137
    95  16 S    2.686 --    94 C    1.137    96 C    1.074   120 O    0.122
    96   6 C    3.926 --   117 C    1.357    97 C    1.263    95 S    1.074
    97   6 C    3.941 --   115 C    1.268    96 C    1.263    98 N    1.153
    98   7 N    3.528 --    97 C    1.153   107 C    1.045    99 C    1.032
    99   6 C    3.959 --   100 C    1.369   106 C    1.357    98 N    1.032
   100   6 C    3.982 --   101 C    1.453    99 C    1.369   195 H    0.966
                           105 C    0.101
   101   6 C    3.987 --   100 C    1.453   102 C    1.384   196 H    0.963
   102   6 C    3.951 --   101 C    1.384   105 C    1.364   103 S    1.057
   103  16 S    2.261 --   102 C    1.057   104 C    1.009
   104   6 C    3.973 --   103 S    1.009   198 H    0.981   199 H    0.980
                           197 H    0.977
   105   6 C    3.988 --   106 C    1.477   102 C    1.364   200 H    0.967
                           100 C    0.101
   106   6 C    3.976 --   105 C    1.477    99 C    1.357   201 H    0.966
   107   6 C    3.959 --   108 C    1.364   114 C    1.350    98 N    1.045
   108   6 C    3.984 --   109 C    1.458   107 C    1.364   202 H    0.967
                           113 C    0.102
   109   6 C    3.987 --   108 C    1.458   110 C    1.379   203 H    0.964
   110   6 C    3.953 --   109 C    1.379   113 C    1.369   111 S    1.054
   111  16 S    2.257 --   110 C    1.054   112 C    1.009
   112   6 C    3.974 --   111 S    1.009   205 H    0.981   206 H    0.981
                           204 H    0.977
   113   6 C    3.989 --   114 C    1.473   110 C    1.369   207 H    0.966
                           108 C    0.102
   114   6 C    3.980 --   113 C    1.473   107 C    1.350   208 H    0.964
   115   6 C    3.928 --    94 C    1.347    97 C    1.268   116 S    1.092
   116  16 S    2.518 --    75 C    1.100   115 C    1.092
   117   6 C    3.946 --   118 C    1.441    96 C    1.357   209 H    0.932
   118   6 C    3.948 --   117 C    1.441   127 C    1.162   119 C    1.082
   119   6 C    3.905 --   120 O    1.657   118 C    1.082   121 C    1.032
   120   8 O    2.060 --   119 C    1.657    95 S    0.122
   121   6 C    3.969 --   122 C    1.381   126 C    1.310   119 C    1.032
   122   6 C    3.977 --   123 C    1.440   121 C    1.381   210 H    0.962
   123   6 C    3.956 --   122 C    1.440   124 C    1.329   139 C    0.992
   124   6 C    3.964 --   125 C    1.444   123 C    1.329   133 C    0.993
   125   6 C    3.975 --   124 C    1.444   126 C    1.371   211 H    0.958
   126   6 C    3.976 --   125 C    1.371   121 C    1.310   127 C    1.082
   127   6 C    3.971 --   128 C    1.455   118 C    1.162   126 C    1.082
   128   6 C    3.945 --   127 C    1.455   129 C    1.108   131 C    1.103
   129   6 C    3.942 --   130 N    2.729   128 C    1.108
   130   7 N    2.954 --   129 C    2.729
   131   6 C    3.940 --   132 N    2.747   128 C    1.103
   132   7 N    2.954 --   131 C    2.747
   133   6 C    3.985 --   124 C    0.993   139 C    0.975   212 H    0.961
                           134 C    0.951
   134   6 C    3.989 --   135 C    1.004   138 C    0.989   213 H    0.971
                           133 C    0.951
   135   6 C    3.982 --   136 C    1.924   134 C    1.004   214 H    0.971
   136   6 C    3.982 --   135 C    1.924   137 C    1.004   215 H    0.971
   137   6 C    3.989 --   136 C    1.004   138 C    0.989   216 H    0.971
                           139 C    0.951
   138   6 C    3.994 --   137 C    0.989   134 C    0.989   218 H    0.978
                           217 H    0.974
   139   6 C    3.984 --   123 C    0.992   133 C    0.975   219 H    0.962
                           137 C    0.951
   140   1 H    0.995 --     1 C    0.930
   141   1 H    0.996 --     6 C    0.963
   142   1 H    0.996 --     9 C    0.958
   143   1 H    0.996 --    17 C    0.959
   144   1 H    0.998 --    18 C    0.972
   145   1 H    0.999 --    19 C    0.971
   146   1 H    0.999 --    20 C    0.971
   147   1 H    0.998 --    21 C    0.972
   148   1 H    0.998 --    22 C    0.977
   149   1 H    0.996 --    22 C    0.976
   150   1 H    0.996 --    23 C    0.960
   151   1 H    0.998 --    28 C    0.967
   152   1 H    0.997 --    29 C    0.967
   153   1 H    0.994 --    32 C    0.977
   154   1 H    0.996 --    32 C    0.981
   155   1 H    0.995 --    32 C    0.981
   156   1 H    0.996 --    33 C    0.964
   157   1 H    0.997 --    34 C    0.964
   158   1 H    0.998 --    36 C    0.966
   159   1 H    0.997 --    37 C    0.963
   160   1 H    0.995 --    40 C    0.977
   161   1 H    0.996 --    40 C    0.980
   162   1 H    0.995 --    40 C    0.981
   163   1 H    0.996 --    41 C    0.965
   164   1 H    0.996 --    42 C    0.962
   165   1 H    0.998 --    49 C    0.965
   166   1 H    0.997 --    50 C    0.965
   167   1 H    0.994 --    53 C    0.972
   168   1 H    0.996 --    53 C    0.981
   169   1 H    0.997 --    53 C    0.984
   170   1 H    0.997 --    54 C    0.968
   171   1 H    0.998 --    55 C    0.967
   172   1 H    0.997 --    57 C    0.964
   173   1 H    0.996 --    58 C    0.967
   174   1 H    0.996 --    61 C    0.982
   175   1 H    0.996 --    61 C    0.979
   176   1 H    0.995 --    61 C    0.978
   177   1 H    0.997 --    62 C    0.960
   178   1 H    0.999 --    63 C    0.960
   179   1 H    0.994 --    67 C    0.946
   180   1 H    0.995 --    68 C    0.964
   181   1 H    0.998 --    79 C    0.966
   182   1 H    0.997 --    80 C    0.968
   183   1 H    0.996 --    83 C    0.980
   184   1 H    0.994 --    83 C    0.975
   185   1 H    0.997 --    83 C    0.983
   186   1 H    0.997 --    84 C    0.966
   187   1 H    0.998 --    85 C    0.965
   188   1 H    0.998 --    87 C    0.961
   189   1 H    0.998 --    88 C    0.962
   190   1 H    0.995 --    91 C    0.977
   191   1 H    0.996 --    91 C    0.981
   192   1 H    0.996 --    91 C    0.979
   193   1 H    0.997 --    92 C    0.966
   194   1 H    0.998 --    93 C    0.965
   195   1 H    0.998 --   100 C    0.966
   196   1 H    0.997 --   101 C    0.963
   197   1 H    0.995 --   104 C    0.977
   198   1 H    0.995 --   104 C    0.981
   199   1 H    0.995 --   104 C    0.980
   200   1 H    0.996 --   105 C    0.967
   201   1 H    0.997 --   106 C    0.966
   202   1 H    0.999 --   108 C    0.967
   203   1 H    0.997 --   109 C    0.964
   204   1 H    0.995 --   112 C    0.977
   205   1 H    0.996 --   112 C    0.981
   206   1 H    0.995 --   112 C    0.981
   207   1 H    0.996 --   113 C    0.966
   208   1 H    0.996 --   114 C    0.964
   209   1 H    0.995 --   117 C    0.932
   210   1 H    0.996 --   122 C    0.962
   211   1 H    0.996 --   125 C    0.958
   212   1 H    0.997 --   133 C    0.961
   213   1 H    0.998 --   134 C    0.971
   214   1 H    0.998 --   135 C    0.971
   215   1 H    0.998 --   136 C    0.971
   216   1 H    0.998 --   137 C    0.971
   217   1 H    0.999 --   138 C    0.974
   218   1 H    0.998 --   138 C    0.978
   219   1 H    0.996 --   139 C    0.962
 ---------------------------------------------------------------------------

Topologies differ in bond orders
Writing corrected topology to xtbtopo.mol

molecular dipole:
                 x           y           z       tot (Debye)
 q only:       -1.474      -0.788      -0.185
   full:       -1.223      -1.652      -0.119       5.232
molecular quadrupole (traceless):
                xx          xy          yy          xz          yz          zz
 q only:      -35.561     -29.539      34.209      -1.607      30.523       1.352
  q+dip:      -41.737     -34.700      20.876      -3.693      32.886      20.860
   full:      -44.382     -39.293      20.491       0.421      26.276      23.891


           -------------------------------------------------
          | TOTAL ENERGY             -364.474738888705 Eh   |
          | GRADIENT NORM               0.021204658983 Eh/α |
          | HOMO-LUMO GAP               0.620284008770 eV   |
           -------------------------------------------------

------------------------------------------------------------------------
 * finished run on 2022/02/13 at 06:37:24.390     
------------------------------------------------------------------------
 total:
 * wall-time:     0 d,  0 h,  0 min,  3.781 sec
 *  cpu-time:     0 d,  0 h,  0 min, 18.855 sec
 * ratio c/w:     4.987 speedup
 SCF:
 * wall-time:     0 d,  0 h,  0 min,  3.657 sec
 *  cpu-time:     0 d,  0 h,  0 min, 18.263 sec
 * ratio c/w:     4.994 speedup

