      -----------------------------------------------------------      
     |                   =====================                   |     
     |                           x T B                           |     
     |                   =====================                   |     
     |                         S. Grimme                         |     
     |          Mulliken Center for Theoretical Chemistry        |     
     |                    University of Bonn                     |     
      -----------------------------------------------------------      

   * xtb version 6.4.1 (unknown) compiled by 'oda6@login1.crc.pitt.edu' on 2021-06-25

   xtb is free software: you can redistribute it and/or modify it under
   the terms of the GNU Lesser General Public License as published by
   the Free Software Foundation, either version 3 of the License, or
   (at your option) any later version.
   
   xtb is distributed in the hope that it will be useful,
   but WITHOUT ANY WARRANTY; without even the implied warranty of
   MERCHANTABILITY or FITNESS FOR A PARTICULAR PURPOSE.  See the
   GNU Lesser General Public License for more details.
   
   Cite this work as:
   * C. Bannwarth, E. Caldeweyher, S. Ehlert, A. Hansen, P. Pracht,
     J. Seibert, S. Spicher, S. Grimme, WIREs Comput. Mol. Sci., 2020, 11,
     e01493. DOI: 10.1002/wcms.1493
   
   for GFN2-xTB:
   * C. Bannwarth, S. Ehlert and S. Grimme., J. Chem. Theory Comput., 2019,
     15, 1652-1671. DOI: 10.1021/acs.jctc.8b01176
   for GFN1-xTB:
   * S. Grimme, C. Bannwarth, P. Shushkov, J. Chem. Theory Comput., 2017,
     13, 1989-2009. DOI: 10.1021/acs.jctc.7b00118
   for GFN0-xTB:
   * P. Pracht, E. Caldeweyher, S. Ehlert, S. Grimme, ChemRxiv, 2019, preprint.
     DOI: 10.26434/chemrxiv.8326202.v1
   for GFN-FF:
   * S. Spicher and S. Grimme, Angew. Chem. Int. Ed., 2020, 59, 15665-15673.
     DOI: 10.1002/anie.202004239
   
   for DFT-D4:
   * E. Caldeweyher, C. Bannwarth and S. Grimme, J. Chem. Phys., 2017,
     147, 034112. DOI: 10.1063/1.4993215
   * E. Caldeweyher, S. Ehlert, A. Hansen, H. Neugebauer, S. Spicher,
     C. Bannwarth and S. Grimme, J. Chem. Phys., 2019, 150, 154122.
     DOI: 10.1063/1.5090222
   * E. Caldeweyher, J.-M. Mewes, S. Ehlert and S. Grimme, Phys. Chem. Chem. Phys.
     2020, 22, 8499-8512. DOI: 10.1039/D0CP00502A
   
   for sTDA-xTB:
   * S. Grimme and C. Bannwarth, J. Chem. Phys., 2016, 145, 054103.
     DOI: 10.1063/1.4959605
   
   in the mass-spec context:
   * V. Asgeirsson, C. Bauer and S. Grimme, Chem. Sci., 2017, 8, 4879.
     DOI: 10.1039/c7sc00601b
   * J. Koopman and S. Grimme, ACS Omega 2019, 4, 12, 15120-15133.
     DOI: 10.1021/acsomega.9b02011
   
   for metadynamics refer to:
   * S. Grimme, J. Chem. Theory Comput., 2019, 155, 2847-2862
     DOI: 10.1021/acs.jctc.9b00143
   
   for SPH calculations refer to:
   * S. Spicher and S. Grimme, J. Chem. Theory Comput., 2021, 17, 1701-1714
     DOI: 10.1021/acs.jctc.0c01306
   
   with help from (in alphabetical order)
   P. Atkinson, C. Bannwarth, F. Bohle, G. Brandenburg, E. Caldeweyher
   M. Checinski, S. Dohm, S. Ehlert, S. Ehrlich, I. Gerasimov, J. Koopman
   C. Lavigne, S. Lehtola, F. März, M. Müller, F. Musil, H. Neugebauer
   J. Pisarek, C. Plett, P. Pracht, J. Seibert, P. Shushkov, S. Spicher
   M. Stahn, M. Steiner, T. Strunk, J. Stückrath, T. Rose, and J. Unsleber
   
 * started run on 2022/02/06 at 09:35:14.283     

           -------------------------------------------------
          |                Calculation Setup                |
           -------------------------------------------------

          program call               : /ihome/ghutchison/oda6/xtb/xtb-641/bin/xtb ../../GFN2_output/39_133_130_32_3.mol --sp --alpb hexane
          hostname                   : smp-n57
          coordinate file            : ../../GFN2_output/39_133_130_32_3.mol
          omp threads                :                     8
          number of atoms            :                   151
          number of electrons        :                   494
          charge                     :                     0
          spin                       :                   0.0
          first test random number   :      0.84147388745345

   ID    Z sym.   atoms
    1    6 C      1-3, 5-13, 15, 17-26, 30, 31, 35-37, 39-42, 44-50, 52-55,
                  57, 58, 60-63, 65-71, 73-76, 78-80, 82-86, 88-90, 92,
                  94-99, 101
    2    8 O      4, 81, 91
    3    7 N      14, 16, 27, 29, 32, 34, 38, 59, 100, 102
    4   16 S      28, 33, 43, 51, 56, 64, 72, 77, 93
    5    9 F      87
    6    1 H      103-151

           -------------------------------------------------
          |                 G F N 2 - x T B                 |
           -------------------------------------------------

        Reference                      10.1021/acs.jctc.8b01176
      * Hamiltonian:
        H0-scaling (s, p, d)           1.850000    2.230000    2.230000
        zeta-weighting                 0.500000
      * Dispersion:
        s8                             2.700000
        a1                             0.520000
        a2                             5.000000
        s9                             5.000000
      * Repulsion:
        kExp                           1.500000    1.000000
        rExp                           1.000000
      * Coulomb:
        alpha                          2.000000
        third order                    shell-resolved
        anisotropic                    true
        a3                             3.000000
        a5                             4.000000
        cn-shift                       1.200000
        cn-exp                         4.000000
        max-rad                        5.000000

      * Solvation model:               ALPB
        Solvent                        hexane
        Parameter file                 internal GFN2-xTB/ALPB
        Dielectric constant                1.8800E+00
        Reference state                gsolv [1 M gas/solution]
        Free energy shift                  4.8134E-03 Eh       3.0204E+00 kcal/mol
        Temperature                        2.9815E+02 K
        Density                            6.6000E-01 kg/L
        Solvent mass                       8.6180E+01 g/mol
        Interaction kernel             P16
        Born radius scaling (c1)           1.1040E+00
        Born radii integrator          GBOBC
        Born offset                        0.0000E+00 a0       0.0000E+00 AA
        H-bond correction              false
        Ion screening                  false
        Surface tension                    1.0000E-05 Eh       1.5569E+01 dyn/cm
        Grid points                               230 per atom

          ...................................................
          :                      SETUP                      :
          :.................................................:
          :  # basis functions                 511          :
          :  # atomic orbitals                 502          :
          :  # shells                          262          :
          :  # electrons                       494          :
          :  max. iterations                   250          :
          :  Hamiltonian                  GFN2-xTB          :
          :  restarted?                      false          :
          :  GBSA solvation                   true          :
          :  PC potential                    false          :
          :  electronic temp.          300.0000000     K    :
          :  accuracy                    1.0000000          :
          :  -> integral cutoff          0.2500000E+02      :
          :  -> integral neglect         0.1000000E-07      :
          :  -> SCF convergence          0.1000000E-05 Eh   :
          :  -> wf. convergence          0.1000000E-03 e    :
          :  Broyden damping             0.4000000          :
          ...................................................

 iter      E             dE          RMSdq      gap      omega  full diag
   1   -273.3773236 -0.273377E+03  0.495E+00    0.50       0.0  T
   2   -273.5620018 -0.184678E+00  0.291E+00    0.53       1.0  T
   3   -273.4121712  0.149831E+00  0.143E+00    0.11       1.0  T
   4   -273.6066814 -0.194510E+00  0.539E-01    0.35       1.0  T
   5   -273.6295932 -0.229119E-01  0.204E-01    0.25       1.0  T
   6   -273.6301215 -0.528281E-03  0.130E-01    0.20       1.0  T
   7   -273.6320410 -0.191947E-02  0.552E-02    0.22       1.0  T
   8   -273.6322817 -0.240694E-03  0.253E-02    0.22       1.0  T
   9   -273.6323138 -0.320880E-04  0.125E-02    0.22       1.0  T
  10   -273.6323200 -0.621452E-05  0.638E-03    0.22       1.3  T
  11   -273.6323219 -0.189655E-05  0.261E-03    0.22       3.1  T
  12   -273.6323222 -0.314997E-06  0.150E-03    0.22       5.4  T
  13   -273.6323222 -0.370150E-07  0.801E-04    0.22      10.2  T
  14   -273.6323223 -0.499609E-07  0.396E-04    0.22      20.5  T

   *** convergence criteria satisfied after 14 iterations ***

         #    Occupation            Energy/Eh            Energy/eV
      -------------------------------------------------------------
         1        2.0000           -0.8324543             -22.6522
       ...           ...                  ...                  ...
       241        2.0000           -0.3901435             -10.6163
       242        2.0000           -0.3839371             -10.4475
       243        2.0000           -0.3764836             -10.2446
       244        2.0000           -0.3690066             -10.0412
       245        2.0000           -0.3676696             -10.0048
       246        1.9971           -0.3532082              -9.6113
       247        1.9724           -0.3510582              -9.5528 (HOMO)
       248        0.0305           -0.3430432              -9.3347 (LUMO)
       249        0.0000           -0.3364635              -9.1556
       250                         -0.3232629              -8.7964
       251                         -0.3210117              -8.7352
       252                         -0.3035381              -8.2597
       ...                                ...                  ...
       502                          1.1619647              31.6187
      -------------------------------------------------------------
                  HL-Gap            0.0080150 Eh            0.2181 eV
             Fermi-level           -0.3470029 Eh           -9.4424 eV

 SCC (total)                   0 d,  0 h,  0 min,  0.471 sec
 SCC setup                      ...        0 min,  0.005 sec (  1.044%)
 Dispersion                     ...        0 min,  0.006 sec (  1.195%)
 classical contributions        ...        0 min,  0.000 sec (  0.047%)
 integral evaluation            ...        0 min,  0.023 sec (  4.813%)
 iterations                     ...        0 min,  0.363 sec ( 77.102%)
 molecular gradient             ...        0 min,  0.072 sec ( 15.368%)
 printout                       ...        0 min,  0.002 sec (  0.413%)

         :::::::::::::::::::::::::::::::::::::::::::::::::::::
         ::                     SUMMARY                     ::
         :::::::::::::::::::::::::::::::::::::::::::::::::::::
         :: total energy            -269.463398436501 Eh    ::
         :: total w/o Gsasa/hb      -269.375490708332 Eh    ::
         :: gradient norm              0.023268545343 Eh/a0 ::
         :: HOMO-LUMO gap              0.218099613121 eV    ::
         ::.................................................::
         :: SCC energy              -273.632322295883 Eh    ::
         :: -> isotropic ES            0.200343155858 Eh    ::
         :: -> anisotropic ES          0.013230351844 Eh    ::
         :: -> anisotropic XC          0.174158970746 Eh    ::
         :: -> dispersion             -0.275611176387 Eh    ::
         :: -> Gsolv                  -0.118876287689 Eh    ::
         ::    -> Gelec               -0.030968559521 Eh    ::
         ::    -> Gsasa               -0.092721083988 Eh    ::
         ::    -> Ghb                  0.000000000000 Eh    ::
         ::    -> Gshift               0.004813355820 Eh    ::
         :: repulsion energy           4.160418807545 Eh    ::
         :: add. restraining           0.000000000000 Eh    ::
         :: total charge              -0.000000000001 e     ::
         :::::::::::::::::::::::::::::::::::::::::::::::::::::

           -------------------------------------------------
          |                Property Printout                |
           -------------------------------------------------

    * Orbital Energies and Occupations

         #    Occupation            Energy/Eh            Energy/eV
      -------------------------------------------------------------
         1        2.0000           -0.8324543             -22.6522
       ...           ...                  ...                  ...
       235        2.0000           -0.4119480             -11.2097
       236        2.0000           -0.4081397             -11.1060
       237        2.0000           -0.4039030             -10.9908
       238        2.0000           -0.4000160             -10.8850
       239        2.0000           -0.3961344             -10.7794
       240        2.0000           -0.3946665             -10.7394
       241        2.0000           -0.3901435             -10.6163
       242        2.0000           -0.3839371             -10.4475
       243        2.0000           -0.3764836             -10.2446
       244        2.0000           -0.3690066             -10.0412
       245        2.0000           -0.3676696             -10.0048
       246        1.9971           -0.3532082              -9.6113
       247        1.9724           -0.3510582              -9.5528 (HOMO)
       248        0.0305           -0.3430432              -9.3347 (LUMO)
       249        0.0000           -0.3364635              -9.1556
       250                         -0.3232629              -8.7964
       251                         -0.3210117              -8.7352
       252                         -0.3035381              -8.2597
       253                         -0.2923115              -7.9542
       254                         -0.2856874              -7.7739
       255                         -0.2614691              -7.1149
       256                         -0.2516249              -6.8471
       257                         -0.2486690              -6.7666
       258                         -0.2477949              -6.7428
       ...                                ...                  ...
       502                          1.1619647              31.6187
      -------------------------------------------------------------
                  HL-Gap            0.0080150 Eh            0.2181 eV
             Fermi-level           -0.3470029 Eh           -9.4424 eV

     #   Z          covCN         q      C6AA      α(0)
     1   6 C        2.902     0.002    27.982     8.673
     2   6 C        3.007    -0.027    28.654     8.781
     3   6 C        2.867     0.240    23.002     7.862
     4   8 O        0.856    -0.441    22.528     6.364
     5   6 C        3.060    -0.018    28.409     8.741
     6   6 C        2.904    -0.018    28.450     8.746
     7   6 C        3.256     0.011    26.652     8.347
     8   6 C        3.257     0.014    26.573     8.334
     9   6 C        2.904    -0.032    28.798     8.799
    10   6 C        3.046     0.009    27.767     8.642
    11   6 C        3.023     0.039    27.091     8.538
    12   6 C        2.947     0.012    27.740     8.638
    13   6 C        1.938     0.131    27.874     8.526
    14   7 N        0.911    -0.262    26.779     7.484
    15   6 C        1.938     0.135    27.786     8.513
    16   7 N        0.911    -0.264    26.847     7.494
    17   6 C        4.161    -0.022    20.878     6.490
    18   6 C        4.013    -0.015    20.771     6.474
    19   6 C        2.995    -0.041    29.005     8.835
    20   6 C        2.995    -0.043    29.055     8.842
    21   6 C        4.013    -0.015    20.765     6.473
    22   6 C        3.915    -0.060    21.587     6.604
    23   6 C        4.161    -0.021    20.866     6.488
    24   6 C        2.960    -0.009    28.246     8.717
    25   6 C        3.341     0.073    23.930     7.733
    26   6 C        3.348     0.073    23.803     7.694
    27   7 N        1.852    -0.304    28.723     7.943
    28  16 S        2.663     0.434   124.611    18.788
    29   7 N        1.853    -0.299    28.599     7.926
    30   6 C        2.990    -0.012    28.300     8.726
    31   6 C        3.360     0.076    23.503     7.611
    32   7 N        1.852    -0.306    28.784     7.952
    33  16 S        2.689     0.459   123.733    18.722
    34   7 N        1.853    -0.291    28.396     7.898
    35   6 C        3.353     0.090    23.377     7.612
    36   6 C        3.004     0.018    27.601     8.618
    37   6 C        3.063     0.052    26.780     8.486
    38   7 N        2.747    -0.070    22.590     7.059
    39   6 C        2.923     0.070    26.434     8.431
    40   6 C        2.923    -0.043    29.071     8.842
    41   6 C        2.983    -0.036    28.900     8.818
    42   6 C        2.966     0.046    26.954     8.516
    43  16 S        2.032    -0.189   149.084    20.550
    44   6 C        3.744    -0.052    21.578     6.626
    45   6 C        2.943    -0.040    28.988     8.830
    46   6 C        2.925    -0.042    29.053     8.839
    47   6 C        2.920     0.069    26.460     8.435
    48   6 C        2.925    -0.050    29.233     8.867
    49   6 C        2.942    -0.044    29.087     8.845
    50   6 C        2.965     0.042    27.048     8.531
    51  16 S        2.033    -0.186   148.955    20.541
    52   6 C        3.744    -0.052    21.580     6.627
    53   6 C        2.984    -0.044    29.086     8.847
    54   6 C        2.922    -0.051    29.274     8.873
    55   6 C        3.180     0.003    27.543     8.568
    56  16 S        2.253    -0.014   141.623    20.029
    57   6 C        3.000    -0.002    28.062     8.690
    58   6 C        3.049     0.050    26.839     8.497
    59   7 N        2.748    -0.062    22.434     7.035
    60   6 C        2.929     0.057    26.725     8.478
    61   6 C        2.922    -0.043    29.062     8.840
    62   6 C        2.985    -0.038    28.940     8.824
    63   6 C        2.966     0.048    26.915     8.510
    64  16 S        2.035    -0.180   148.688    20.523
    65   6 C        3.744    -0.052    21.585     6.627
    66   6 C        2.943    -0.045    29.110     8.849
    67   6 C        2.924    -0.048    29.190     8.860
    68   6 C        2.923     0.055    26.762     8.484
    69   6 C        2.923    -0.049    29.215     8.864
    70   6 C        2.983    -0.041    29.016     8.836
    71   6 C        2.966     0.044    27.019     8.526
    72  16 S        2.035    -0.164   147.977    20.474
    73   6 C        3.745    -0.051    21.559     6.623
    74   6 C        2.945    -0.046    29.138     8.853
    75   6 C        2.923    -0.050    29.254     8.870
    76   6 C        3.172    -0.004    27.731     8.602
    77  16 S        2.264    -0.000   141.065    19.990
    78   6 C        2.998     0.004    27.917     8.667
    79   6 C        2.923    -0.074    29.856     8.961
    80   6 C        2.860     0.151    24.730     8.151
    81   8 O        1.705    -0.275    18.556     5.816
    82   6 C        3.688     0.074    19.521     6.324
    83   6 C        3.750    -0.118    22.832     6.815
    84   6 C        2.975     0.000    28.015     8.682
    85   6 C        2.918    -0.037    28.909     8.817
    86   6 C        2.785     0.160    24.526     8.112
    87   9 F        0.788    -0.234    11.596     4.022
    88   6 C        2.903     0.004    27.940     8.667
    89   6 C        3.019    -0.031    28.759     8.797
    90   6 C        2.863     0.237    23.052     7.870
    91   8 O        0.856    -0.404    21.768     6.255
    92   6 C        3.076    -0.018    28.377     8.734
    93  16 S        2.251     0.098   137.131    19.709
    94   6 C        2.958    -0.018    28.458     8.750
    95   6 C        3.066    -0.040    28.935     8.821
    96   6 C        3.231    -0.002    27.235     8.473
    97   6 C        3.028     0.040    27.076     8.535
    98   6 C        2.947     0.014    27.704     8.633
    99   6 C        1.928     0.130    27.912     8.532
   100   7 N        0.911    -0.254    26.606     7.460
   101   6 C        1.932     0.134    27.809     8.516
   102   7 N        0.911    -0.256    26.659     7.468
   103   1 H        0.925     0.081     1.966     2.193
   104   1 H        0.926     0.054     2.275     2.359
   105   1 H        0.926     0.060     2.198     2.319
   106   1 H        0.925     0.047     2.361     2.403
   107   1 H        0.925     0.041     2.433     2.439
   108   1 H        0.926     0.039     2.462     2.454
   109   1 H        0.926     0.037     2.483     2.464
   110   1 H        0.925     0.037     2.487     2.466
   111   1 H        0.925     0.036     2.506     2.475
   112   1 H        0.925     0.041     2.435     2.440
   113   1 H        0.925     0.043     2.414     2.430
   114   1 H        0.926     0.022     2.702     2.571
   115   1 H        0.926     0.038     2.479     2.462
   116   1 H        0.925     0.070     2.088     2.260
   117   1 H        0.925     0.063     2.162     2.299
   118   1 H        0.925     0.067     2.118     2.276
   119   1 H        0.926     0.048     2.340     2.392
   120   1 H        0.926     0.051     2.305     2.374
   121   1 H        0.926     0.038     2.473     2.459
   122   1 H        0.926     0.046     2.372     2.408
   123   1 H        0.925     0.069     2.092     2.262
   124   1 H        0.925     0.062     2.176     2.307
   125   1 H        0.925     0.063     2.170     2.304
   126   1 H        0.926     0.046     2.364     2.405
   127   1 H        0.926     0.052     2.292     2.368
   128   1 H        0.926     0.047     2.353     2.399
   129   1 H        0.926     0.052     2.290     2.367
   130   1 H        0.925     0.070     2.088     2.260
   131   1 H        0.925     0.061     2.183     2.310
   132   1 H        0.925     0.063     2.161     2.299
   133   1 H        0.926     0.047     2.355     2.400
   134   1 H        0.926     0.039     2.456     2.451
   135   1 H        0.926     0.042     2.419     2.432
   136   1 H        0.926     0.052     2.290     2.366
   137   1 H        0.925     0.053     2.289     2.366
   138   1 H        0.925     0.078     2.003     2.213
   139   1 H        0.925     0.058     2.217     2.329
   140   1 H        0.926     0.045     2.380     2.412
   141   1 H        0.926     0.039     2.466     2.456
   142   1 H        0.926     0.065     2.145     2.290
   143   1 H        0.924     0.046     2.370     2.407
   144   1 H        0.924     0.066     2.129     2.282
   145   1 H        0.925     0.055     2.255     2.348
   146   1 H        0.925     0.055     2.259     2.350
   147   1 H        0.925     0.051     2.312     2.378
   148   1 H        0.926     0.082     1.959     2.189
   149   1 H        0.925     0.084     1.937     2.177
   150   1 H        0.926     0.077     2.013     2.219
   151   1 H        0.926     0.072     2.062     2.245

 Mol. C6AA /au·bohr⁶  :     430141.278483
 Mol. C8AA /au·bohr⁸  :   12306578.123390
 Mol. α(0) /au        :       1048.763003


Wiberg/Mayer (AO) data.
largest (>0.10) Wiberg bond orders for each atom

 ---------------------------------------------------------------------------
     #   Z sym  total        # sym  WBO       # sym  WBO       # sym  WBO
 ---------------------------------------------------------------------------
     1   6 C    3.945 --     2 C    1.559    24 C    1.209   103 H    0.943
     2   6 C    3.950 --     1 C    1.559    11 C    1.129     3 C    1.032
     3   6 C    3.911 --     4 O    1.713     5 C    1.032     2 C    1.032
     4   8 O    2.006 --     3 C    1.713
     5   6 C    3.972 --     6 C    1.374    10 C    1.307     3 C    1.032
     6   6 C    3.980 --     7 C    1.447     5 C    1.374   104 H    0.962
     7   6 C    3.956 --     6 C    1.447     8 C    1.321    23 C    0.992
     8   6 C    3.964 --     9 C    1.451     7 C    1.321    17 C    0.994
     9   6 C    3.977 --     8 C    1.451    10 C    1.363   105 H    0.959
    10   6 C    3.977 --     9 C    1.363     5 C    1.307    11 C    1.091
    11   6 C    3.974 --    12 C    1.487     2 C    1.129    10 C    1.091
    12   6 C    3.954 --    11 C    1.487    15 C    1.100    13 C    1.096
    13   6 C    3.944 --    14 N    2.759    12 C    1.096
    14   7 N    2.959 --    13 C    2.759
    15   6 C    3.943 --    16 N    2.757    12 C    1.100
    16   7 N    2.962 --    15 C    2.757
    17   6 C    3.984 --     8 C    0.994    23 C    0.975   106 H    0.961
                            18 C    0.950
    18   6 C    3.989 --    19 C    1.004    22 C    0.989   107 H    0.971
                            17 C    0.950
    19   6 C    3.982 --    20 C    1.923    18 C    1.004   108 H    0.971
    20   6 C    3.982 --    19 C    1.923    21 C    1.004   109 H    0.971
    21   6 C    3.989 --    20 C    1.004    22 C    0.989   110 H    0.971
                            23 C    0.951
    22   6 C    3.994 --    21 C    0.989    18 C    0.989   112 H    0.978
                           111 H    0.974
    23   6 C    3.983 --     7 C    0.992    17 C    0.975   113 H    0.960
                            21 C    0.951
    24   6 C    3.947 --    35 C    1.232    25 C    1.226     1 C    1.209
    25   6 C    3.963 --    29 N    1.381    24 C    1.226    26 C    1.131
    26   6 C    3.968 --    27 N    1.372    30 C    1.237    25 C    1.131
    27   7 N    3.056 --    28 S    1.427    26 C    1.372    29 N    0.155
    28  16 S    3.134 --    27 N    1.427    29 N    1.425
    29   7 N    3.058 --    28 S    1.425    25 C    1.381    27 N    0.155
    30   6 C    3.944 --    31 C    1.239    26 C    1.237    36 C    1.145
    31   6 C    3.969 --    32 N    1.371    30 C    1.239    35 C    1.133
    32   7 N    3.060 --    33 S    1.437    31 C    1.371    34 N    0.154
    33  16 S    3.186 --    32 N    1.437    34 N    1.437
    34   7 N    3.068 --    33 S    1.437    35 C    1.376    32 N    0.154
    35   6 C    3.963 --    34 N    1.376    24 C    1.232    31 C    1.133
    36   6 C    3.934 --    37 C    1.426    30 C    1.145    77 S    1.127
    37   6 C    3.937 --    36 C    1.426    55 C    1.253    38 N    1.013
    38   7 N    3.459 --    47 C    1.081    39 C    1.073    37 C    1.013
    39   6 C    3.961 --    46 C    1.347    40 C    1.346    38 N    1.073
    40   6 C    3.984 --    41 C    1.471    39 C    1.346   114 H    0.964
    41   6 C    3.989 --    40 C    1.471    42 C    1.374   115 H    0.968
    42   6 C    3.943 --    45 C    1.376    41 C    1.374    43 S    1.043
    43  16 S    2.233 --    42 C    1.043    44 C    1.008
    44   6 C    3.972 --    43 S    1.008   118 H    0.980   117 H    0.978
                           116 H    0.978
    45   6 C    3.984 --    46 C    1.466    42 C    1.376   119 H    0.963
    46   6 C    3.979 --    45 C    1.466    39 C    1.347   120 H    0.964
    47   6 C    3.957 --    48 C    1.359    54 C    1.328    38 N    1.081
    48   6 C    3.977 --    49 C    1.450    47 C    1.359   121 H    0.964
    49   6 C    3.985 --    48 C    1.450    50 C    1.389   122 H    0.964
    50   6 C    3.945 --    49 C    1.389    53 C    1.361    51 S    1.042
    51  16 S    2.235 --    50 C    1.042    52 C    1.010
    52   6 C    3.974 --    51 S    1.010   124 H    0.981   125 H    0.981
                           123 H    0.977
    53   6 C    3.987 --    54 C    1.481    50 C    1.361   126 H    0.967
    54   6 C    3.978 --    53 C    1.481    47 C    1.328   127 H    0.960
    55   6 C    3.934 --    76 C    1.354    37 C    1.253    56 S    1.122
    56  16 S    2.553 --    55 C    1.122    57 C    1.103
    57   6 C    3.892 --    58 C    1.412    78 C    1.114    56 S    1.103
    58   6 C    3.954 --    57 C    1.412    76 C    1.220    59 N    1.101
    59   7 N    3.494 --    58 C    1.101    68 C    1.051    60 C    1.042
    60   6 C    3.961 --    67 C    1.371    61 C    1.351    59 N    1.042
    61   6 C    3.983 --    62 C    1.482    60 C    1.351   128 H    0.966
    62   6 C    3.989 --    61 C    1.482    63 C    1.362   129 H    0.967
                            67 C    0.100
    63   6 C    3.952 --    66 C    1.391    62 C    1.362    64 S    1.051
    64  16 S    2.253 --    63 C    1.051    65 C    1.009
    65   6 C    3.973 --    64 S    1.009   131 H    0.981   132 H    0.981
                           130 H    0.977
    66   6 C    3.988 --    67 C    1.445    63 C    1.391   133 H    0.964
    67   6 C    3.984 --    66 C    1.445    60 C    1.371   134 H    0.967
                            62 C    0.100
    68   6 C    3.962 --    75 C    1.365    69 C    1.350    59 N    1.051
    69   6 C    3.984 --    70 C    1.474    68 C    1.350   135 H    0.964
    70   6 C    3.989 --    69 C    1.474    71 C    1.366   136 H    0.967
                            75 C    0.100
    71   6 C    3.959 --    74 C    1.379    70 C    1.366    72 S    1.059
    72  16 S    2.260 --    71 C    1.059    73 C    1.007
    73   6 C    3.973 --    72 S    1.007   139 H    0.982   137 H    0.982
                           138 H    0.974
    74   6 C    3.988 --    75 C    1.458    71 C    1.379   140 H    0.965
    75   6 C    3.986 --    74 C    1.458    68 C    1.365   141 H    0.966
                            70 C    0.100
    76   6 C    3.916 --    55 C    1.354    58 C    1.220    77 S    1.121
    77  16 S    2.593 --    36 C    1.127    76 C    1.121
    78   6 C    3.972 --    79 C    1.350    86 C    1.305    57 C    1.114
    79   6 C    3.972 --    80 C    1.399    78 C    1.350   142 H    0.958
    80   6 C    3.928 --    79 C    1.399    84 C    1.249    81 O    1.096
    81   8 O    2.255 --    80 C    1.096    82 C    0.950
    82   6 C    3.929 --    83 C    1.010   144 H    0.969   143 H    0.962
                            81 O    0.950
    83   6 C    3.990 --    82 C    1.010   146 H    0.986   147 H    0.984
                           145 H    0.983
    84   6 C    3.965 --    85 C    1.356    80 C    1.249    88 C    1.147
    85   6 C    3.976 --    86 C    1.436    84 C    1.356   148 H    0.961
    86   6 C    3.864 --    85 C    1.436    78 C    1.305    87 F    0.946
    87   9 F    1.079 --    86 C    0.946
    88   6 C    3.943 --    89 C    1.632    84 C    1.147   149 H    0.942
    89   6 C    3.966 --    88 C    1.632    97 C    1.108    90 C    0.997
    90   6 C    3.926 --    91 O    1.738    92 C    1.072    89 C    0.997
    91   8 O    2.042 --    90 C    1.738
    92   6 C    3.933 --    96 C    1.377    93 S    1.206    90 C    1.072
    93  16 S    2.711 --    94 C    1.219    92 C    1.206
    94   6 C    3.935 --    95 C    1.599    93 S    1.219   150 H    0.967
    95   6 C    3.981 --    94 C    1.599    96 C    1.274   151 H    0.957
    96   6 C    3.978 --    92 C    1.377    95 C    1.274    97 C    1.106
    97   6 C    3.977 --    98 C    1.490    89 C    1.108    96 C    1.106
    98   6 C    3.968 --    97 C    1.490    99 C    1.100   101 C    1.096
    99   6 C    3.945 --   100 N    2.760    98 C    1.100
   100   7 N    2.964 --    99 C    2.760
   101   6 C    3.944 --   102 N    2.769    98 C    1.096
   102   7 N    2.969 --   101 C    2.769
   103   1 H    0.989 --     1 C    0.943
   104   1 H    0.996 --     6 C    0.962
   105   1 H    0.996 --     9 C    0.959
   106   1 H    0.996 --    17 C    0.961
   107   1 H    0.998 --    18 C    0.971
   108   1 H    0.998 --    19 C    0.971
   109   1 H    0.998 --    20 C    0.971
   110   1 H    0.998 --    21 C    0.971
   111   1 H    0.999 --    22 C    0.974
   112   1 H    0.998 --    22 C    0.978
   113   1 H    0.996 --    23 C    0.960
   114   1 H    0.999 --    40 C    0.964
   115   1 H    0.998 --    41 C    0.968
   116   1 H    0.995 --    44 C    0.978
   117   1 H    0.995 --    44 C    0.978
   118   1 H    0.995 --    44 C    0.980
   119   1 H    0.997 --    45 C    0.963
   120   1 H    0.997 --    46 C    0.964
   121   1 H    0.998 --    48 C    0.964
   122   1 H    0.997 --    49 C    0.964
   123   1 H    0.995 --    52 C    0.977
   124   1 H    0.995 --    52 C    0.981
   125   1 H    0.996 --    52 C    0.981
   126   1 H    0.997 --    53 C    0.967
   127   1 H    0.997 --    54 C    0.960
   128   1 H    0.997 --    61 C    0.966
   129   1 H    0.997 --    62 C    0.967
   130   1 H    0.995 --    65 C    0.977
   131   1 H    0.996 --    65 C    0.981
   132   1 H    0.996 --    65 C    0.981
   133   1 H    0.997 --    66 C    0.964
   134   1 H    0.998 --    67 C    0.967
   135   1 H    0.998 --    69 C    0.964
   136   1 H    0.997 --    70 C    0.967
   137   1 H    0.997 --    73 C    0.982
   138   1 H    0.993 --    73 C    0.974
   139   1 H    0.996 --    73 C    0.982
   140   1 H    0.998 --    74 C    0.965
   141   1 H    0.998 --    75 C    0.966
   142   1 H    0.995 --    79 C    0.958
   143   1 H    0.997 --    82 C    0.962
   144   1 H    0.995 --    82 C    0.969
   145   1 H    0.996 --    83 C    0.983
   146   1 H    0.997 --    83 C    0.986
   147   1 H    0.997 --    83 C    0.984
   148   1 H    0.992 --    85 C    0.961
   149   1 H    0.990 --    88 C    0.942
   150   1 H    0.993 --    94 C    0.967
   151   1 H    0.994 --    95 C    0.957
 ---------------------------------------------------------------------------

Topologies differ in bond orders
Writing corrected topology to xtbtopo.mol

molecular dipole:
                 x           y           z       tot (Debye)
 q only:       -1.820      -2.117       2.926
   full:       -2.412      -2.449       3.058      11.693
molecular quadrupole (traceless):
                xx          xy          yy          xz          yz          zz
 q only:       51.512       3.029       4.719      84.417     -54.877     -56.231
  q+dip:       65.826     -10.135       2.873      85.317     -78.131     -68.700
   full:       63.018     -14.819      10.551      86.478     -78.214     -73.569


           -------------------------------------------------
          | TOTAL ENERGY             -269.463398436501 Eh   |
          | GRADIENT NORM               0.023268545343 Eh/α |
          | HOMO-LUMO GAP               0.218099613121 eV   |
           -------------------------------------------------

------------------------------------------------------------------------
 * finished run on 2022/02/06 at 09:35:14.830     
------------------------------------------------------------------------
 total:
 * wall-time:     0 d,  0 h,  0 min,  0.547 sec
 *  cpu-time:     0 d,  0 h,  0 min,  4.288 sec
 * ratio c/w:     7.839 speedup
 SCF:
 * wall-time:     0 d,  0 h,  0 min,  0.473 sec
 *  cpu-time:     0 d,  0 h,  0 min,  3.778 sec
 * ratio c/w:     7.987 speedup

