      -----------------------------------------------------------      
     |                   =====================                   |     
     |                           x T B                           |     
     |                   =====================                   |     
     |                         S. Grimme                         |     
     |          Mulliken Center for Theoretical Chemistry        |     
     |                    University of Bonn                     |     
      -----------------------------------------------------------      

   * xtb version 6.4.1 (unknown) compiled by 'oda6@login1.crc.pitt.edu' on 2021-06-25

   xtb is free software: you can redistribute it and/or modify it under
   the terms of the GNU Lesser General Public License as published by
   the Free Software Foundation, either version 3 of the License, or
   (at your option) any later version.
   
   xtb is distributed in the hope that it will be useful,
   but WITHOUT ANY WARRANTY; without even the implied warranty of
   MERCHANTABILITY or FITNESS FOR A PARTICULAR PURPOSE.  See the
   GNU Lesser General Public License for more details.
   
   Cite this work as:
   * C. Bannwarth, E. Caldeweyher, S. Ehlert, A. Hansen, P. Pracht,
     J. Seibert, S. Spicher, S. Grimme, WIREs Comput. Mol. Sci., 2020, 11,
     e01493. DOI: 10.1002/wcms.1493
   
   for GFN2-xTB:
   * C. Bannwarth, S. Ehlert and S. Grimme., J. Chem. Theory Comput., 2019,
     15, 1652-1671. DOI: 10.1021/acs.jctc.8b01176
   for GFN1-xTB:
   * S. Grimme, C. Bannwarth, P. Shushkov, J. Chem. Theory Comput., 2017,
     13, 1989-2009. DOI: 10.1021/acs.jctc.7b00118
   for GFN0-xTB:
   * P. Pracht, E. Caldeweyher, S. Ehlert, S. Grimme, ChemRxiv, 2019, preprint.
     DOI: 10.26434/chemrxiv.8326202.v1
   for GFN-FF:
   * S. Spicher and S. Grimme, Angew. Chem. Int. Ed., 2020, 59, 15665-15673.
     DOI: 10.1002/anie.202004239
   
   for DFT-D4:
   * E. Caldeweyher, C. Bannwarth and S. Grimme, J. Chem. Phys., 2017,
     147, 034112. DOI: 10.1063/1.4993215
   * E. Caldeweyher, S. Ehlert, A. Hansen, H. Neugebauer, S. Spicher,
     C. Bannwarth and S. Grimme, J. Chem. Phys., 2019, 150, 154122.
     DOI: 10.1063/1.5090222
   * E. Caldeweyher, J.-M. Mewes, S. Ehlert and S. Grimme, Phys. Chem. Chem. Phys.
     2020, 22, 8499-8512. DOI: 10.1039/D0CP00502A
   
   for sTDA-xTB:
   * S. Grimme and C. Bannwarth, J. Chem. Phys., 2016, 145, 054103.
     DOI: 10.1063/1.4959605
   
   in the mass-spec context:
   * V. Asgeirsson, C. Bauer and S. Grimme, Chem. Sci., 2017, 8, 4879.
     DOI: 10.1039/c7sc00601b
   * J. Koopman and S. Grimme, ACS Omega 2019, 4, 12, 15120-15133.
     DOI: 10.1021/acsomega.9b02011
   
   for metadynamics refer to:
   * S. Grimme, J. Chem. Theory Comput., 2019, 155, 2847-2862
     DOI: 10.1021/acs.jctc.9b00143
   
   for SPH calculations refer to:
   * S. Spicher and S. Grimme, J. Chem. Theory Comput., 2021, 17, 1701-1714
     DOI: 10.1021/acs.jctc.0c01306
   
   with help from (in alphabetical order)
   P. Atkinson, C. Bannwarth, F. Bohle, G. Brandenburg, E. Caldeweyher
   M. Checinski, S. Dohm, S. Ehlert, S. Ehrlich, I. Gerasimov, J. Koopman
   C. Lavigne, S. Lehtola, F. März, M. Müller, F. Musil, H. Neugebauer
   J. Pisarek, C. Plett, P. Pracht, J. Seibert, P. Shushkov, S. Spicher
   M. Stahn, M. Steiner, T. Strunk, J. Stückrath, T. Rose, and J. Unsleber
   
 * started run on 2022/02/06 at 12:12:11.274     

           -------------------------------------------------
          |                Calculation Setup                |
           -------------------------------------------------

          program call               : /ihome/ghutchison/oda6/xtb/xtb-641/bin/xtb ../../GFN2_output/39_130_130_29_24.mol --sp --alpb hexane
          hostname                   : smp-n57
          coordinate file            : ../../GFN2_output/39_130_130_29_24.mol
          omp threads                :                     8
          number of atoms            :                   205
          number of electrons        :                   630
          charge                     :                     0
          spin                       :                   0.0
          first test random number   :      0.42023006534183

   ID    Z sym.   atoms
    1    6 C      1-3, 5-13, 15, 17-25, 27-30, 32-38, 40-43, 45, 46, 48-51,
                  53-59, 61-64, 66, 67, 69-72, 74-80, 82-85, 87, 88, 90-93,
                  95-101, 103-106, 108-116, 118, 120-126, 128
    2    8 O      4, 117
    3    7 N      14, 16, 26, 47, 68, 89, 127, 129
    4   16 S      31, 39, 44, 52, 60, 65, 73, 81, 86, 94, 102, 107, 119
    5    1 H      130-205

           -------------------------------------------------
          |                 G F N 2 - x T B                 |
           -------------------------------------------------

        Reference                      10.1021/acs.jctc.8b01176
      * Hamiltonian:
        H0-scaling (s, p, d)           1.850000    2.230000    2.230000
        zeta-weighting                 0.500000
      * Dispersion:
        s8                             2.700000
        a1                             0.520000
        a2                             5.000000
        s9                             5.000000
      * Repulsion:
        kExp                           1.500000    1.000000
        rExp                           1.000000
      * Coulomb:
        alpha                          2.000000
        third order                    shell-resolved
        anisotropic                    true
        a3                             3.000000
        a5                             4.000000
        cn-shift                       1.200000
        cn-exp                         4.000000
        max-rad                        5.000000

      * Solvation model:               ALPB
        Solvent                        hexane
        Parameter file                 internal GFN2-xTB/ALPB
        Dielectric constant                1.8800E+00
        Reference state                gsolv [1 M gas/solution]
        Free energy shift                  4.8134E-03 Eh       3.0204E+00 kcal/mol
        Temperature                        2.9815E+02 K
        Density                            6.6000E-01 kg/L
        Solvent mass                       8.6180E+01 g/mol
        Interaction kernel             P16
        Born radius scaling (c1)           1.1040E+00
        Born radii integrator          GBOBC
        Born offset                        0.0000E+00 a0       0.0000E+00 AA
        H-bond correction              false
        Ion screening                  false
        Surface tension                    1.0000E-05 Eh       1.5569E+01 dyn/cm
        Grid points                               230 per atom

          ...................................................
          :                      SETUP                      :
          :.................................................:
          :  # basis functions                 670          :
          :  # atomic orbitals                 657          :
          :  # shells                          347          :
          :  # electrons                       630          :
          :  max. iterations                   250          :
          :  Hamiltonian                  GFN2-xTB          :
          :  restarted?                      false          :
          :  GBSA solvation                   true          :
          :  PC potential                    false          :
          :  electronic temp.          300.0000000     K    :
          :  accuracy                    1.0000000          :
          :  -> integral cutoff          0.2500000E+02      :
          :  -> integral neglect         0.1000000E-07      :
          :  -> SCF convergence          0.1000000E-05 Eh   :
          :  -> wf. convergence          0.1000000E-03 e    :
          :  Broyden damping             0.4000000          :
          ...................................................

 iter      E             dE          RMSdq      gap      omega  full diag
   1   -344.6817346 -0.344682E+03  0.481E+00    1.01       0.0  T
   2   -344.8845086 -0.202774E+00  0.274E+00    1.05       1.0  T
   3   -344.7055343  0.178974E+00  0.132E+00    0.46       1.0  T
   4   -344.9264841 -0.220950E+00  0.509E-01    0.66       1.0  T
   5   -344.9514429 -0.249589E-01  0.183E-01    0.54       1.0  T
   6   -344.9521907 -0.747744E-03  0.860E-02    0.58       1.0  T
   7   -344.9528982 -0.707490E-03  0.341E-02    0.59       1.0  T
   8   -344.9529529 -0.547393E-04  0.199E-02    0.59       1.0  T
   9   -344.9529745 -0.215580E-04  0.101E-02    0.59       1.0  T
  10   -344.9529794 -0.488806E-05  0.428E-03    0.59       1.6  T
  11   -344.9529807 -0.138746E-05  0.192E-03    0.59       3.6  T
  12   -344.9529808 -0.550518E-07  0.109E-03    0.59       6.4  T
  13   -344.9529809 -0.818322E-07  0.482E-04    0.59      14.5  T
  14   -344.9529809 -0.996357E-08  0.223E-04    0.59      31.3  T

   *** convergence criteria satisfied after 14 iterations ***

         #    Occupation            Energy/Eh            Energy/eV
      -------------------------------------------------------------
         1        2.0000           -0.7573751             -20.6092
       ...           ...                  ...                  ...
       309        2.0000           -0.3691177             -10.0442
       310        2.0000           -0.3689601             -10.0399
       311        2.0000           -0.3685046             -10.0275
       312        2.0000           -0.3565240              -9.7015
       313        2.0000           -0.3554747              -9.6730
       314        2.0000           -0.3526230              -9.5954
       315        2.0000           -0.3523032              -9.5867 (HOMO)
       316        0.0000           -0.3304858              -8.9930 (LUMO)
       317                         -0.3221922              -8.7673
       318                         -0.3152719              -8.5790
       319                         -0.3130472              -8.5184
       320                         -0.2810388              -7.6475
       ...                                ...                  ...
       657                          1.1591805              31.5429
      -------------------------------------------------------------
                  HL-Gap            0.0218173 Eh            0.5937 eV
             Fermi-level           -0.3411257 Eh           -9.2825 eV

 SCC (total)                   0 d,  0 h,  0 min,  0.831 sec
 SCC setup                      ...        0 min,  0.008 sec (  0.952%)
 Dispersion                     ...        0 min,  0.012 sec (  1.500%)
 classical contributions        ...        0 min,  0.000 sec (  0.051%)
 integral evaluation            ...        0 min,  0.043 sec (  5.172%)
 iterations                     ...        0 min,  0.623 sec ( 74.945%)
 molecular gradient             ...        0 min,  0.141 sec ( 16.933%)
 printout                       ...        0 min,  0.004 sec (  0.435%)

         :::::::::::::::::::::::::::::::::::::::::::::::::::::
         ::                     SUMMARY                     ::
         :::::::::::::::::::::::::::::::::::::::::::::::::::::
         :: total energy            -339.442796728929 Eh    ::
         :: total w/o Gsasa/hb      -339.331087773421 Eh    ::
         :: gradient norm              0.021023002520 Eh/a0 ::
         :: HOMO-LUMO gap              0.593680126878 eV    ::
         ::.................................................::
         :: SCC energy              -344.952980894923 Eh    ::
         :: -> isotropic ES            0.143833348538 Eh    ::
         :: -> anisotropic ES          0.014918044047 Eh    ::
         :: -> anisotropic XC          0.222756760469 Eh    ::
         :: -> dispersion             -0.389405872063 Eh    ::
         :: -> Gsolv                  -0.136893519902 Eh    ::
         ::    -> Gelec               -0.025184564394 Eh    ::
         ::    -> Gsasa               -0.116522311328 Eh    ::
         ::    -> Ghb                  0.000000000000 Eh    ::
         ::    -> Gshift               0.004813355820 Eh    ::
         :: repulsion energy           5.492353724353 Eh    ::
         :: add. restraining           0.000000000000 Eh    ::
         :: total charge               0.000000000007 e     ::
         :::::::::::::::::::::::::::::::::::::::::::::::::::::

           -------------------------------------------------
          |                Property Printout                |
           -------------------------------------------------

    * Orbital Energies and Occupations

         #    Occupation            Energy/Eh            Energy/eV
      -------------------------------------------------------------
         1        2.0000           -0.7573751             -20.6092
       ...           ...                  ...                  ...
       303        2.0000           -0.3897636             -10.6060
       304        2.0000           -0.3866447             -10.5211
       305        2.0000           -0.3858118             -10.4985
       306        2.0000           -0.3781412             -10.2897
       307        2.0000           -0.3741849             -10.1821
       308        2.0000           -0.3718597             -10.1188
       309        2.0000           -0.3691177             -10.0442
       310        2.0000           -0.3689601             -10.0399
       311        2.0000           -0.3685046             -10.0275
       312        2.0000           -0.3565240              -9.7015
       313        2.0000           -0.3554747              -9.6730
       314        2.0000           -0.3526230              -9.5954
       315        2.0000           -0.3523032              -9.5867 (HOMO)
       316        0.0000           -0.3304858              -8.9930 (LUMO)
       317                         -0.3221922              -8.7673
       318                         -0.3152719              -8.5790
       319                         -0.3130472              -8.5184
       320                         -0.2810388              -7.6475
       321                         -0.2692027              -7.3254
       322                         -0.2538173              -6.9067
       323                         -0.2494621              -6.7882
       324                         -0.2483459              -6.7578
       325                         -0.2465709              -6.7095
       326                         -0.2457899              -6.6883
       ...                                ...                  ...
       657                          1.1591805              31.5429
      -------------------------------------------------------------
                  HL-Gap            0.0218173 Eh            0.5937 eV
             Fermi-level           -0.3411257 Eh           -9.2825 eV

     #   Z          covCN         q      C6AA      α(0)
     1   6 C        2.919    -0.013    28.350     8.731
     2   6 C        3.007    -0.046    29.120     8.852
     3   6 C        2.878     0.230    23.193     7.895
     4   8 O        0.963    -0.411    21.850     6.270
     5   6 C        3.062    -0.023    28.511     8.756
     6   6 C        2.904    -0.022    28.561     8.763
     7   6 C        3.261     0.008    26.665     8.342
     8   6 C        3.257     0.010    26.663     8.348
     9   6 C        2.905    -0.034    28.853     8.808
    10   6 C        3.051     0.003    27.897     8.662
    11   6 C        3.023     0.033    27.247     8.562
    12   6 C        2.947    -0.000    28.038     8.685
    13   6 C        1.953     0.128    27.934     8.535
    14   7 N        0.911    -0.289    27.445     7.577
    15   6 C        1.954     0.133    27.834     8.520
    16   7 N        0.911    -0.279    27.201     7.543
    17   6 C        4.163    -0.024    20.921     6.496
    18   6 C        4.012    -0.015    20.766     6.474
    19   6 C        2.988    -0.041    29.013     8.836
    20   6 C        2.988    -0.042    29.030     8.838
    21   6 C        4.012    -0.015    20.766     6.474
    22   6 C        3.926    -0.060    21.589     6.603
    23   6 C        4.162    -0.024    20.922     6.496
    24   6 C        2.984     0.010    27.795     8.648
    25   6 C        3.049     0.064    26.512     8.445
    26   7 N        2.749    -0.039    21.996     6.966
    27   6 C        2.925     0.057    26.724     8.478
    28   6 C        2.924    -0.036    28.901     8.816
    29   6 C        2.945    -0.037    28.931     8.822
    30   6 C        2.966     0.048    26.920     8.511
    31  16 S        2.034    -0.181   148.741    20.527
    32   6 C        3.744    -0.050    21.551     6.622
    33   6 C        2.982    -0.039    28.965     8.828
    34   6 C        2.921    -0.046    29.152     8.854
    35   6 C        2.936     0.058    26.697     8.474
    36   6 C        2.920    -0.036    28.892     8.815
    37   6 C        2.988    -0.037    28.906     8.819
    38   6 C        2.966     0.053    26.811     8.493
    39  16 S        2.038    -0.169   148.209    20.490
    40   6 C        3.744    -0.053    21.600     6.630
    41   6 C        2.944    -0.042    29.039     8.838
    42   6 C        2.923    -0.039    28.979     8.828
    43   6 C        3.159     0.001    27.680     8.601
    44  16 S        2.250    -0.052   143.202    20.141
    45   6 C        3.031     0.012    27.706     8.634
    46   6 C        3.065     0.049    26.837     8.495
    47   7 N        2.746    -0.095    23.102     7.139
    48   6 C        2.919     0.061    26.626     8.462
    49   6 C        2.925    -0.043    29.072     8.842
    50   6 C        2.943    -0.046    29.142     8.854
    51   6 C        2.965     0.049    26.907     8.508
    52  16 S        2.032    -0.186   148.949    20.541
    53   6 C        3.745    -0.047    21.492     6.613
    54   6 C        2.982    -0.038    28.928     8.823
    55   6 C        2.921    -0.043    29.056     8.840
    56   6 C        2.920     0.065    26.547     8.449
    57   6 C        2.926    -0.054    29.341     8.883
    58   6 C        2.976    -0.037    28.918     8.821
    59   6 C        2.965     0.039    27.131     8.544
    60  16 S        2.025    -0.221   150.505    20.648
    61   6 C        3.744    -0.045    21.447     6.606
    62   6 C        2.943    -0.044    29.091     8.846
    63   6 C        2.925    -0.058    29.447     8.899
    64   6 C        3.166    -0.001    27.703     8.601
    65  16 S        2.325    -0.017   141.767    20.040
    66   6 C        3.026    -0.013    28.304     8.727
    67   6 C        3.049     0.049    26.849     8.498
    68   7 N        2.747    -0.073    22.654     7.069
    69   6 C        2.929     0.056    26.752     8.482
    70   6 C        2.925    -0.047    29.162     8.856
    71   6 C        2.944    -0.043    29.066     8.842
    72   6 C        2.966     0.048    26.927     8.512
    73  16 S        2.031    -0.194   149.281    20.564
    74   6 C        3.745    -0.042    21.405     6.600
    75   6 C        2.982    -0.043    29.060     8.843
    76   6 C        2.923    -0.043    29.077     8.843
    77   6 C        2.922     0.063    26.597     8.457
    78   6 C        2.925    -0.047    29.167     8.857
    79   6 C        2.942    -0.044    29.099     8.847
    80   6 C        2.965     0.042    27.061     8.533
    81  16 S        2.029    -0.199   149.497    20.579
    82   6 C        3.744    -0.048    21.514     6.617
    83   6 C        2.980    -0.040    28.976     8.830
    84   6 C        2.924    -0.046    29.155     8.855
    85   6 C        3.186     0.001    27.529     8.561
    86  16 S        2.253    -0.069   143.905    20.190
    87   6 C        3.003    -0.007    28.180     8.708
    88   6 C        3.052     0.049    26.856     8.499
    89   7 N        2.748    -0.071    22.609     7.062
    90   6 C        2.926     0.062    26.620     8.461
    91   6 C        2.924    -0.045    29.127     8.851
    92   6 C        2.948    -0.037    28.923     8.821
    93   6 C        2.967     0.047    26.940     8.514
    94  16 S        2.027    -0.209   149.958    20.610
    95   6 C        3.744    -0.047    21.490     6.613
    96   6 C        2.971    -0.039    28.962     8.827
    97   6 C        2.924    -0.044    29.091     8.845
    98   6 C        2.930     0.058    26.707     8.475
    99   6 C        2.928    -0.041    29.016     8.834
   100   6 C        2.984    -0.038    28.942     8.825
   101   6 C        2.966     0.051    26.853     8.500
   102  16 S        2.035    -0.185   148.896    20.537
   103   6 C        3.744    -0.051    21.570     6.625
   104   6 C        2.944    -0.042    29.043     8.839
   105   6 C        2.924    -0.043    29.074     8.843
   106   6 C        3.171     0.000    27.642     8.588
   107  16 S        2.276    -0.063   143.663    20.173
   108   6 C        3.001     0.018    27.584     8.615
   109   6 C        2.922    -0.031    28.772     8.796
   110   6 C        2.920    -0.015    28.386     8.737
   111   6 C        2.972     0.021    27.544     8.609
   112   6 C        2.928    -0.028    28.701     8.786
   113   6 C        2.923    -0.034    28.852     8.809
   114   6 C        2.906    -0.003    28.102     8.692
   115   6 C        3.020    -0.030    28.734     8.793
   116   6 C        2.864     0.239    23.013     7.863
   117   8 O        0.856    -0.427    22.238     6.323
   118   6 C        3.078    -0.016    28.324     8.725
   119  16 S        2.280     0.045   139.244    19.861
   120   6 C        2.995     0.039    27.122     8.543
   121   6 C        3.778    -0.118    22.782     6.800
   122   6 C        3.070    -0.055    29.291     8.874
   123   6 C        3.224    -0.002    27.301     8.491
   124   6 C        3.032     0.040    27.071     8.534
   125   6 C        2.948     0.012    27.745     8.639
   126   6 C        1.936     0.135    27.785     8.512
   127   7 N        0.911    -0.261    26.774     7.484
   128   6 C        1.930     0.132    27.871     8.526
   129   7 N        0.911    -0.263    26.809     7.489
   130   1 H        0.925     0.065     2.139     2.287
   131   1 H        0.926     0.059     2.210     2.325
   132   1 H        0.926     0.056     2.242     2.342
   133   1 H        0.925     0.048     2.339     2.392
   134   1 H        0.925     0.039     2.465     2.455
   135   1 H        0.926     0.031     2.567     2.506
   136   1 H        0.926     0.031     2.570     2.507
   137   1 H        0.925     0.038     2.480     2.463
   138   1 H        0.925     0.042     2.423     2.434
   139   1 H        0.925     0.041     2.433     2.439
   140   1 H        0.925     0.048     2.351     2.398
   141   1 H        0.926     0.058     2.220     2.330
   142   1 H        0.926     0.056     2.248     2.345
   143   1 H        0.925     0.063     2.167     2.302
   144   1 H        0.925     0.070     2.083     2.257
   145   1 H        0.925     0.065     2.144     2.290
   146   1 H        0.926     0.050     2.318     2.381
   147   1 H        0.926     0.039     2.459     2.452
   148   1 H        0.926     0.051     2.309     2.376
   149   1 H        0.926     0.056     2.245     2.343
   150   1 H        0.925     0.071     2.072     2.251
   151   1 H        0.925     0.064     2.157     2.297
   152   1 H        0.925     0.065     2.146     2.291
   153   1 H        0.926     0.051     2.305     2.374
   154   1 H        0.926     0.058     2.228     2.334
   155   1 H        0.926     0.039     2.456     2.451
   156   1 H        0.926     0.042     2.417     2.431
   157   1 H        0.925     0.071     2.074     2.252
   158   1 H        0.925     0.058     2.223     2.332
   159   1 H        0.925     0.063     2.159     2.298
   160   1 H        0.926     0.051     2.303     2.373
   161   1 H        0.926     0.065     2.144     2.290
   162   1 H        0.926     0.031     2.569     2.506
   163   1 H        0.926     0.043     2.409     2.427
   164   1 H        0.925     0.065     2.142     2.289
   165   1 H        0.925     0.054     2.268     2.355
   166   1 H        0.925     0.059     2.209     2.324
   167   1 H        0.926     0.037     2.483     2.464
   168   1 H        0.926     0.036     2.496     2.470
   169   1 H        0.926     0.041     2.432     2.439
   170   1 H        0.926     0.049     2.331     2.387
   171   1 H        0.925     0.065     2.140     2.288
   172   1 H        0.925     0.058     2.226     2.333
   173   1 H        0.925     0.061     2.189     2.314
   174   1 H        0.926     0.055     2.256     2.349
   175   1 H        0.926     0.044     2.391     2.418
   176   1 H        0.926     0.035     2.515     2.480
   177   1 H        0.926     0.042     2.421     2.433
   178   1 H        0.925     0.063     2.164     2.300
   179   1 H        0.925     0.068     2.109     2.271
   180   1 H        0.925     0.058     2.225     2.332
   181   1 H        0.926     0.047     2.351     2.398
   182   1 H        0.926     0.041     2.432     2.439
   183   1 H        0.926     0.039     2.465     2.455
   184   1 H        0.926     0.057     2.234     2.337
   185   1 H        0.925     0.062     2.177     2.308
   186   1 H        0.925     0.068     2.105     2.269
   187   1 H        0.925     0.066     2.130     2.282
   188   1 H        0.926     0.051     2.304     2.374
   189   1 H        0.926     0.048     2.345     2.395
   190   1 H        0.926     0.046     2.372     2.409
   191   1 H        0.926     0.052     2.296     2.370
   192   1 H        0.925     0.069     2.098     2.265
   193   1 H        0.925     0.061     2.185     2.311
   194   1 H        0.925     0.070     2.081     2.256
   195   1 H        0.926     0.056     2.250     2.346
   196   1 H        0.926     0.039     2.463     2.454
   197   1 H        0.926     0.048     2.345     2.395
   198   1 H        0.926     0.059     2.212     2.326
   199   1 H        0.926     0.047     2.354     2.399
   200   1 H        0.926     0.044     2.396     2.420
   201   1 H        0.925     0.070     2.084     2.257
   202   1 H        0.925     0.070     2.090     2.261
   203   1 H        0.925     0.073     2.053     2.241
   204   1 H        0.925     0.073     2.054     2.241
   205   1 H        0.926     0.066     2.127     2.281

 Mol. C6AA /au·bohr⁶  :     759914.664598
 Mol. C8AA /au·bohr⁸  :   21994736.219663
 Mol. α(0) /au        :       1404.773212


Wiberg/Mayer (AO) data.
largest (>0.10) Wiberg bond orders for each atom

 ---------------------------------------------------------------------------
     #   Z sym  total        # sym  WBO       # sym  WBO       # sym  WBO
 ---------------------------------------------------------------------------
     1   6 C    3.956 --     2 C    1.437    24 C    1.366   130 H    0.931
     2   6 C    3.951 --     1 C    1.437    11 C    1.165     3 C    1.081
     3   6 C    3.907 --     4 O    1.664     2 C    1.081     5 C    1.031
     4   8 O    2.071 --     3 C    1.664    65 S    0.134
     5   6 C    3.970 --     6 C    1.383    10 C    1.309     3 C    1.031
     6   6 C    3.980 --     7 C    1.439     5 C    1.383   131 H    0.964
     7   6 C    3.956 --     6 C    1.439     8 C    1.332    23 C    0.996
     8   6 C    3.965 --     9 C    1.443     7 C    1.332    17 C    0.997
     9   6 C    3.976 --     8 C    1.443    10 C    1.373   132 H    0.958
    10   6 C    3.977 --     9 C    1.373     5 C    1.309    11 C    1.082
    11   6 C    3.970 --    12 C    1.450     2 C    1.165    10 C    1.082
    12   6 C    3.950 --    11 C    1.450    13 C    1.110    15 C    1.103
    13   6 C    3.942 --    14 N    2.721    12 C    1.110
    14   7 N    2.953 --    13 C    2.721
    15   6 C    3.940 --    16 N    2.744    12 C    1.103
    16   7 N    2.952 --    15 C    2.744
    17   6 C    3.985 --     8 C    0.997    23 C    0.978   133 H    0.959
                            18 C    0.947
    18   6 C    3.989 --    19 C    1.010    22 C    0.985   134 H    0.972
                            17 C    0.947
    19   6 C    3.987 --    20 C    1.924    18 C    1.010   135 H    0.971
    20   6 C    3.987 --    19 C    1.924    21 C    1.010   136 H    0.971
    21   6 C    3.989 --    20 C    1.010    22 C    0.985   137 H    0.972
                            23 C    0.947
    22   6 C    3.993 --    21 C    0.985    18 C    0.985   139 H    0.978
                           138 H    0.976
    23   6 C    3.984 --     7 C    0.996    17 C    0.978   140 H    0.960
                            21 C    0.947
    24   6 C    3.930 --     1 C    1.366    25 C    1.256    65 S    1.066
    25   6 C    3.942 --    43 C    1.257    24 C    1.256    26 N    1.176
    26   7 N    3.535 --    25 C    1.176    27 C    1.045    35 C    1.006
    27   6 C    3.958 --    28 C    1.368    34 C    1.344    26 N    1.045
    28   6 C    3.976 --    29 C    1.444    27 C    1.368   141 H    0.964
    29   6 C    3.989 --    28 C    1.444    30 C    1.393   142 H    0.963
    30   6 C    3.953 --    29 C    1.393    33 C    1.358    31 S    1.052
    31  16 S    2.248 --    30 C    1.052    32 C    1.007
    32   6 C    3.971 --    31 S    1.007   143 H    0.981   145 H    0.981
                           144 H    0.977
    33   6 C    3.988 --    34 C    1.486    30 C    1.358   146 H    0.967
    34   6 C    3.985 --    33 C    1.486    27 C    1.344   147 H    0.966
    35   6 C    3.958 --    42 C    1.384    36 C    1.363    26 N    1.006
    36   6 C    3.981 --    37 C    1.477    35 C    1.363   148 H    0.966
    37   6 C    3.988 --    36 C    1.477    38 C    1.364   149 H    0.966
                            42 C    0.102
    38   6 C    3.956 --    41 C    1.388    37 C    1.364    39 S    1.061
    39  16 S    2.270 --    38 C    1.061    40 C    1.009
    40   6 C    3.972 --    39 S    1.009   151 H    0.981   152 H    0.980
                           150 H    0.977
    41   6 C    3.987 --    42 C    1.446    38 C    1.388   153 H    0.962
    42   6 C    3.979 --    41 C    1.446    35 C    1.384   154 H    0.959
                            37 C    0.102
    43   6 C    3.936 --    64 C    1.353    25 C    1.257    44 S    1.098
    44  16 S    2.559 --    45 C    1.103    43 C    1.098
    45   6 C    3.907 --    46 C    1.494    44 S    1.103    66 C    1.079
    46   6 C    3.960 --    45 C    1.494    64 C    1.227    47 N    1.016
    47   7 N    3.423 --    56 C    1.103    46 C    1.016    48 C    1.006
    48   6 C    3.965 --    49 C    1.386    55 C    1.375    47 N    1.006
    49   6 C    3.988 --    50 C    1.444    48 C    1.386   155 H    0.963
                            54 C    0.105
    50   6 C    3.989 --    49 C    1.444    51 C    1.387   156 H    0.963
                            55 C    0.100
    51   6 C    3.960 --    50 C    1.387    54 C    1.370    52 S    1.051
    52  16 S    2.258 --    51 C    1.051    53 C    1.008
    53   6 C    3.972 --    52 S    1.008   158 H    0.982   159 H    0.977
                           157 H    0.977
    54   6 C    3.989 --    55 C    1.467    51 C    1.370   160 H    0.967
                            49 C    0.105
    55   6 C    3.984 --    54 C    1.467    48 C    1.375   161 H    0.954
                            50 C    0.100
    56   6 C    3.964 --    63 C    1.347    57 C    1.334    47 N    1.103
    57   6 C    3.985 --    58 C    1.473    56 C    1.334   162 H    0.962
    58   6 C    3.990 --    57 C    1.473    59 C    1.376   163 H    0.967
    59   6 C    3.953 --    62 C    1.390    58 C    1.376    60 S    1.021
    60  16 S    2.203 --    59 C    1.021    61 C    1.005
    61   6 C    3.973 --    60 S    1.005   165 H    0.983   166 H    0.982
                           164 H    0.979
    62   6 C    3.989 --    63 C    1.455    59 C    1.390   167 H    0.966
    63   6 C    3.984 --    62 C    1.455    56 C    1.347   168 H    0.963
    64   6 C    3.944 --    43 C    1.353    46 C    1.227    65 S    1.132
    65  16 S    2.687 --    64 C    1.132    24 C    1.066     4 O    0.134
    66   6 C    3.903 --    67 C    1.458   107 S    1.090    45 C    1.079
    67   6 C    3.957 --    66 C    1.458    85 C    1.200    68 N    1.088
    68   7 N    3.488 --    67 C    1.088    77 C    1.069    69 C    1.028
    69   6 C    3.964 --    70 C    1.376    76 C    1.367    68 N    1.028
    70   6 C    3.987 --    71 C    1.453    69 C    1.376   169 H    0.962
                            75 C    0.103
    71   6 C    3.988 --    70 C    1.453    72 C    1.385   170 H    0.963
    72   6 C    3.957 --    71 C    1.385    75 C    1.373    73 S    1.045
    73  16 S    2.253 --    72 C    1.045    74 C    1.007
    74   6 C    3.971 --    73 S    1.007   173 H    0.981   172 H    0.979
                           171 H    0.977
    75   6 C    3.988 --    76 C    1.465    72 C    1.373   174 H    0.961
                            70 C    0.103
    76   6 C    3.987 --    75 C    1.465    69 C    1.367   175 H    0.967
    77   6 C    3.963 --    78 C    1.361    84 C    1.342    68 N    1.069
    78   6 C    3.985 --    79 C    1.444    77 C    1.361   176 H    0.962
    79   6 C    3.988 --    78 C    1.444    80 C    1.392   177 H    0.965
    80   6 C    3.950 --    79 C    1.392    83 C    1.362    81 S    1.038
    81  16 S    2.233 --    80 C    1.038    82 C    1.008
    82   6 C    3.974 --    81 S    1.008   180 H    0.982   178 H    0.981
                           179 H    0.978
    83   6 C    3.989 --    84 C    1.482    80 C    1.362   181 H    0.967
    84   6 C    3.985 --    83 C    1.482    77 C    1.342   182 H    0.965
    85   6 C    3.933 --   106 C    1.393    67 C    1.200    86 S    1.111
    86  16 S    2.531 --    85 C    1.111    87 C    1.088
    87   6 C    3.908 --    88 C    1.428   108 C    1.113    86 S    1.088
    88   6 C    3.951 --    87 C    1.428   106 C    1.197    89 N    1.108
    89   7 N    3.478 --    88 C    1.108    90 C    1.041    98 C    1.029
    90   6 C    3.963 --    91 C    1.366    97 C    1.366    89 N    1.041
    91   6 C    3.987 --    92 C    1.459    90 C    1.366   183 H    0.966
                            96 C    0.101
    92   6 C    3.987 --    91 C    1.459    93 C    1.386   184 H    0.962
    93   6 C    3.956 --    92 C    1.386    96 C    1.383    94 S    1.030
    94  16 S    2.235 --    93 C    1.030    95 C    1.004
    95   6 C    3.968 --    94 S    1.004   185 H    0.982   187 H    0.978
                           186 H    0.975
    96   6 C    3.988 --    97 C    1.463    93 C    1.383   188 H    0.968
                            91 C    0.101
    97   6 C    3.985 --    96 C    1.463    90 C    1.366   189 H    0.966
    98   6 C    3.961 --   105 C    1.375    99 C    1.356    89 N    1.029
    99   6 C    3.982 --   100 C    1.462    98 C    1.356   190 H    0.966
   100   6 C    3.988 --    99 C    1.462   101 C    1.373   191 H    0.967
                           105 C    0.103
   101   6 C    3.955 --   104 C    1.382   100 C    1.373   102 S    1.053
   102  16 S    2.260 --   101 C    1.053   103 C    1.009
   103   6 C    3.970 --   102 S    1.009   193 H    0.981   192 H    0.977
                           194 H    0.975
   104   6 C    3.987 --   105 C    1.454   101 C    1.382   195 H    0.961
   105   6 C    3.983 --   104 C    1.454    98 C    1.375   196 H    0.966
                           100 C    0.103
   106   6 C    3.939 --    85 C    1.393    88 C    1.197   107 S    1.120
   107  16 S    2.590 --   106 C    1.120    66 C    1.090
   108   6 C    3.969 --   109 C    1.352   113 C    1.330    87 C    1.113
   109   6 C    3.981 --   110 C    1.484   108 C    1.352   197 H    0.964
   110   6 C    3.974 --   109 C    1.484   111 C    1.339   198 H    0.965
   111   6 C    3.973 --   110 C    1.339   112 C    1.323   114 C    1.147
   112   6 C    3.976 --   113 C    1.502   111 C    1.323   199 H    0.967
   113   6 C    3.982 --   112 C    1.502   108 C    1.330   200 H    0.967
   114   6 C    3.938 --   115 C    1.626   111 C    1.147   201 H    0.943
   115   6 C    3.966 --   114 C    1.626   124 C    1.105   116 C    1.006
   116   6 C    3.923 --   117 O    1.704   118 C    1.080   115 C    1.006
   117   8 O    2.014 --   116 C    1.704
   118   6 C    3.930 --   123 C    1.378   119 S    1.184   116 C    1.080
   119  16 S    2.651 --   118 C    1.184   120 C    1.165
   120   6 C    3.936 --   122 C    1.570   119 S    1.165   121 C    1.047
   121   6 C    3.988 --   120 C    1.047   202 H    0.977   203 H    0.963
                           204 H    0.962
   122   6 C    3.980 --   120 C    1.570   123 C    1.271   205 H    0.956
   123   6 C    3.975 --   118 C    1.378   122 C    1.271   124 C    1.108
   124   6 C    3.976 --   125 C    1.487   123 C    1.108   115 C    1.105
   125   6 C    3.966 --   124 C    1.487   128 C    1.101   126 C    1.096
   126   6 C    3.943 --   127 N    2.766   125 C    1.096
   127   7 N    2.967 --   126 C    2.766
   128   6 C    3.943 --   129 N    2.754   125 C    1.101
   129   7 N    2.958 --   128 C    2.754
   130   1 H    0.995 --     1 C    0.931
   131   1 H    0.996 --     6 C    0.964
   132   1 H    0.996 --     9 C    0.958
   133   1 H    0.996 --    17 C    0.959
   134   1 H    0.998 --    18 C    0.972
   135   1 H    0.999 --    19 C    0.971
   136   1 H    0.999 --    20 C    0.971
   137   1 H    0.998 --    21 C    0.972
   138   1 H    0.996 --    22 C    0.976
   139   1 H    0.998 --    22 C    0.978
   140   1 H    0.996 --    23 C    0.960
   141   1 H    0.997 --    28 C    0.964
   142   1 H    0.996 --    29 C    0.963
   143   1 H    0.995 --    32 C    0.981
   144   1 H    0.995 --    32 C    0.977
   145   1 H    0.995 --    32 C    0.981
   146   1 H    0.997 --    33 C    0.967
   147   1 H    0.998 --    34 C    0.966
   148   1 H    0.997 --    36 C    0.966
   149   1 H    0.996 --    37 C    0.966
   150   1 H    0.995 --    40 C    0.977
   151   1 H    0.996 --    40 C    0.981
   152   1 H    0.995 --    40 C    0.980
   153   1 H    0.997 --    41 C    0.962
   154   1 H    0.997 --    42 C    0.959
   155   1 H    0.998 --    49 C    0.963
   156   1 H    0.998 --    50 C    0.963
   157   1 H    0.995 --    53 C    0.977
   158   1 H    0.996 --    53 C    0.982
   159   1 H    0.996 --    53 C    0.977
   160   1 H    0.997 --    54 C    0.967
   161   1 H    0.995 --    55 C    0.954
   162   1 H    0.999 --    57 C    0.962
   163   1 H    0.998 --    58 C    0.967
   164   1 H    0.995 --    61 C    0.979
   165   1 H    0.997 --    61 C    0.983
   166   1 H    0.996 --    61 C    0.982
   167   1 H    0.998 --    62 C    0.966
   168   1 H    0.999 --    63 C    0.963
   169   1 H    0.998 --    70 C    0.962
   170   1 H    0.997 --    71 C    0.963
   171   1 H    0.996 --    74 C    0.977
   172   1 H    0.996 --    74 C    0.979
   173   1 H    0.996 --    74 C    0.981
   174   1 H    0.997 --    75 C    0.961
   175   1 H    0.998 --    76 C    0.967
   176   1 H    0.999 --    78 C    0.962
   177   1 H    0.998 --    79 C    0.965
   178   1 H    0.996 --    82 C    0.981
   179   1 H    0.995 --    82 C    0.978
   180   1 H    0.996 --    82 C    0.982
   181   1 H    0.997 --    83 C    0.967
   182   1 H    0.998 --    84 C    0.965
   183   1 H    0.998 --    91 C    0.966
   184   1 H    0.996 --    92 C    0.962
   185   1 H    0.996 --    95 C    0.982
   186   1 H    0.995 --    95 C    0.975
   187   1 H    0.995 --    95 C    0.978
   188   1 H    0.997 --    96 C    0.968
   189   1 H    0.997 --    97 C    0.966
   190   1 H    0.997 --    99 C    0.966
   191   1 H    0.997 --   100 C    0.967
   192   1 H    0.995 --   103 C    0.977
   193   1 H    0.996 --   103 C    0.981
   194   1 H    0.995 --   103 C    0.975
   195   1 H    0.996 --   104 C    0.961
   196   1 H    0.998 --   105 C    0.966
   197   1 H    0.997 --   109 C    0.964
   198   1 H    0.996 --   110 C    0.965
   199   1 H    0.997 --   112 C    0.967
   200   1 H    0.997 --   113 C    0.967
   201   1 H    0.993 --   114 C    0.943
   202   1 H    0.995 --   121 C    0.977
   203   1 H    0.991 --   121 C    0.963
   204   1 H    0.991 --   121 C    0.962
   205   1 H    0.995 --   122 C    0.956
 ---------------------------------------------------------------------------

Topologies differ in bond orders
Writing corrected topology to xtbtopo.mol

molecular dipole:
                 x           y           z       tot (Debye)
 q only:        2.596      -1.801      -0.038
   full:        3.680      -2.714       0.331      11.653
molecular quadrupole (traceless):
                xx          xy          yy          xz          yz          zz
 q only:       65.278     -41.089     -77.601     -19.313      -0.348      12.323
  q+dip:       79.671     -48.647     -87.119     -26.594       7.543       7.448
   full:       70.850     -48.637     -88.110     -27.650      14.656      17.260


           -------------------------------------------------
          | TOTAL ENERGY             -339.442796728929 Eh   |
          | GRADIENT NORM               0.021023002520 Eh/α |
          | HOMO-LUMO GAP               0.593680126878 eV   |
           -------------------------------------------------

------------------------------------------------------------------------
 * finished run on 2022/02/06 at 12:12:12.210     
------------------------------------------------------------------------
 total:
 * wall-time:     0 d,  0 h,  0 min,  0.936 sec
 *  cpu-time:     0 d,  0 h,  0 min,  7.371 sec
 * ratio c/w:     7.875 speedup
 SCF:
 * wall-time:     0 d,  0 h,  0 min,  0.834 sec
 *  cpu-time:     0 d,  0 h,  0 min,  6.634 sec
 * ratio c/w:     7.958 speedup

