      -----------------------------------------------------------      
     |                   =====================                   |     
     |                           x T B                           |     
     |                   =====================                   |     
     |                         S. Grimme                         |     
     |          Mulliken Center for Theoretical Chemistry        |     
     |                    University of Bonn                     |     
      -----------------------------------------------------------      

   * xtb version 6.4.1 (unknown) compiled by 'oda6@login1.crc.pitt.edu' on 2021-06-25

   xtb is free software: you can redistribute it and/or modify it under
   the terms of the GNU Lesser General Public License as published by
   the Free Software Foundation, either version 3 of the License, or
   (at your option) any later version.
   
   xtb is distributed in the hope that it will be useful,
   but WITHOUT ANY WARRANTY; without even the implied warranty of
   MERCHANTABILITY or FITNESS FOR A PARTICULAR PURPOSE.  See the
   GNU Lesser General Public License for more details.
   
   Cite this work as:
   * C. Bannwarth, E. Caldeweyher, S. Ehlert, A. Hansen, P. Pracht,
     J. Seibert, S. Spicher, S. Grimme, WIREs Comput. Mol. Sci., 2020, 11,
     e01493. DOI: 10.1002/wcms.1493
   
   for GFN2-xTB:
   * C. Bannwarth, S. Ehlert and S. Grimme., J. Chem. Theory Comput., 2019,
     15, 1652-1671. DOI: 10.1021/acs.jctc.8b01176
   for GFN1-xTB:
   * S. Grimme, C. Bannwarth, P. Shushkov, J. Chem. Theory Comput., 2017,
     13, 1989-2009. DOI: 10.1021/acs.jctc.7b00118
   for GFN0-xTB:
   * P. Pracht, E. Caldeweyher, S. Ehlert, S. Grimme, ChemRxiv, 2019, preprint.
     DOI: 10.26434/chemrxiv.8326202.v1
   for GFN-FF:
   * S. Spicher and S. Grimme, Angew. Chem. Int. Ed., 2020, 59, 15665-15673.
     DOI: 10.1002/anie.202004239
   
   for DFT-D4:
   * E. Caldeweyher, C. Bannwarth and S. Grimme, J. Chem. Phys., 2017,
     147, 034112. DOI: 10.1063/1.4993215
   * E. Caldeweyher, S. Ehlert, A. Hansen, H. Neugebauer, S. Spicher,
     C. Bannwarth and S. Grimme, J. Chem. Phys., 2019, 150, 154122.
     DOI: 10.1063/1.5090222
   * E. Caldeweyher, J.-M. Mewes, S. Ehlert and S. Grimme, Phys. Chem. Chem. Phys.
     2020, 22, 8499-8512. DOI: 10.1039/D0CP00502A
   
   for sTDA-xTB:
   * S. Grimme and C. Bannwarth, J. Chem. Phys., 2016, 145, 054103.
     DOI: 10.1063/1.4959605
   
   in the mass-spec context:
   * V. Asgeirsson, C. Bauer and S. Grimme, Chem. Sci., 2017, 8, 4879.
     DOI: 10.1039/c7sc00601b
   * J. Koopman and S. Grimme, ACS Omega 2019, 4, 12, 15120-15133.
     DOI: 10.1021/acsomega.9b02011
   
   for metadynamics refer to:
   * S. Grimme, J. Chem. Theory Comput., 2019, 155, 2847-2862
     DOI: 10.1021/acs.jctc.9b00143
   
   for SPH calculations refer to:
   * S. Spicher and S. Grimme, J. Chem. Theory Comput., 2021, 17, 1701-1714
     DOI: 10.1021/acs.jctc.0c01306
   
   with help from (in alphabetical order)
   P. Atkinson, C. Bannwarth, F. Bohle, G. Brandenburg, E. Caldeweyher
   M. Checinski, S. Dohm, S. Ehlert, S. Ehrlich, I. Gerasimov, J. Koopman
   C. Lavigne, S. Lehtola, F. März, M. Müller, F. Musil, H. Neugebauer
   J. Pisarek, C. Plett, P. Pracht, J. Seibert, P. Shushkov, S. Spicher
   M. Stahn, M. Steiner, T. Strunk, J. Stückrath, T. Rose, and J. Unsleber
   
 * started run on 2022/02/08 at 16:33:43.573     

           -------------------------------------------------
          |                Calculation Setup                |
           -------------------------------------------------

          program call               : /ihome/ghutchison/oda6/xtb/xtb-641/bin/xtb ../../GFN2_output/39_130_130_41_39.mol --sp --alpb hexane
          hostname                   : smp-n26
          coordinate file            : ../../GFN2_output/39_130_130_41_39.mol
          omp threads                :                     8
          number of atoms            :                   218
          number of electrons        :                   686
          charge                     :                     0
          spin                       :                   0.0
          first test random number   :      0.67006766421522

   ID    Z sym.   atoms
    1    6 C      1-3, 5-13, 15, 17-25, 27-30, 32-38, 40-43, 45, 46, 48-51,
                  53-59, 61-64, 66, 67, 69-72, 74-80, 82-85, 87, 88, 90-93,
                  95-101, 103-106, 108, 109, 111, 113, 114, 116, 118-120,
                  122-130, 132, 134-140
    2    8 O      4, 121
    3    7 N      14, 16, 26, 47, 68, 89, 131, 133
    4   16 S      31, 39, 44, 52, 60, 65, 73, 81, 86, 94, 102, 107
    5    9 F      110, 112, 115, 117
    6    1 H      141-218

           -------------------------------------------------
          |                 G F N 2 - x T B                 |
           -------------------------------------------------

        Reference                      10.1021/acs.jctc.8b01176
      * Hamiltonian:
        H0-scaling (s, p, d)           1.850000    2.230000    2.230000
        zeta-weighting                 0.500000
      * Dispersion:
        s8                             2.700000
        a1                             0.520000
        a2                             5.000000
        s9                             5.000000
      * Repulsion:
        kExp                           1.500000    1.000000
        rExp                           1.000000
      * Coulomb:
        alpha                          2.000000
        third order                    shell-resolved
        anisotropic                    true
        a3                             3.000000
        a5                             4.000000
        cn-shift                       1.200000
        cn-exp                         4.000000
        max-rad                        5.000000

      * Solvation model:               ALPB
        Solvent                        hexane
        Parameter file                 internal GFN2-xTB/ALPB
        Dielectric constant                1.8800E+00
        Reference state                gsolv [1 M gas/solution]
        Free energy shift                  4.8134E-03 Eh       3.0204E+00 kcal/mol
        Temperature                        2.9815E+02 K
        Density                            6.6000E-01 kg/L
        Solvent mass                       8.6180E+01 g/mol
        Interaction kernel             P16
        Born radius scaling (c1)           1.1040E+00
        Born radii integrator          GBOBC
        Born offset                        0.0000E+00 a0       0.0000E+00 AA
        H-bond correction              false
        Ion screening                  false
        Surface tension                    1.0000E-05 Eh       1.5569E+01 dyn/cm
        Grid points                               230 per atom

          ...................................................
          :                      SETUP                      :
          :.................................................:
          :  # basis functions                 710          :
          :  # atomic orbitals                 698          :
          :  # shells                          370          :
          :  # electrons                       686          :
          :  max. iterations                   250          :
          :  Hamiltonian                  GFN2-xTB          :
          :  restarted?                      false          :
          :  GBSA solvation                   true          :
          :  PC potential                    false          :
          :  electronic temp.          300.0000000     K    :
          :  accuracy                    1.0000000          :
          :  -> integral cutoff          0.2500000E+02      :
          :  -> integral neglect         0.1000000E-07      :
          :  -> SCF convergence          0.1000000E-05 Eh   :
          :  -> wf. convergence          0.1000000E-03 e    :
          :  Broyden damping             0.4000000          :
          ...................................................

 iter      E             dE          RMSdq      gap      omega  full diag
   1   -378.7543892 -0.378754E+03  0.473E+00    1.04       0.0  T
   2   -378.9867852 -0.232396E+00  0.270E+00    0.79       1.0  T
   3   -378.8068529  0.179932E+00  0.124E+00    0.21       1.0  T
   4   -379.0130099 -0.206157E+00  0.534E-01    0.52       1.0  T
   5   -379.0504996 -0.374898E-01  0.177E-01    0.31       1.0  T
   6   -379.0517232 -0.122352E-02  0.795E-02    0.33       1.0  T
   7   -379.0521865 -0.463361E-03  0.354E-02    0.30       1.0  T
   8   -379.0522838 -0.972862E-04  0.199E-02    0.33       1.0  T
   9   -379.0523217 -0.378837E-04  0.949E-03    0.32       1.0  T
  10   -379.0523235 -0.183740E-05  0.470E-03    0.32       1.4  T
  11   -379.0523259 -0.231711E-05  0.199E-03    0.32       3.4  T
  12   -379.0523261 -0.215785E-06  0.116E-03    0.32       5.8  T
  13   -379.0523261 -0.649443E-07  0.560E-04    0.32      12.1  T
  14   -379.0523262 -0.243739E-07  0.243E-04    0.32      27.9  T

   *** convergence criteria satisfied after 14 iterations ***

         #    Occupation            Energy/Eh            Energy/eV
      -------------------------------------------------------------
         1        2.0000           -0.8672069             -23.5979
       ...           ...                  ...                  ...
       337        2.0000           -0.3671420              -9.9904
       338        2.0000           -0.3660504              -9.9607
       339        2.0000           -0.3623928              -9.8612
       340        2.0000           -0.3565865              -9.7032
       341        2.0000           -0.3552226              -9.6661
       342        2.0000           -0.3531569              -9.6099
       343        1.9959           -0.3483485              -9.4790 (HOMO)
       344        0.0041           -0.3366069              -9.1595 (LUMO)
       345                         -0.3239632              -8.8155
       346                         -0.3234624              -8.8019
       347                         -0.3141184              -8.5476
       348                         -0.2874425              -7.8217
       ...                                ...                  ...
       698                          1.1569963              31.4835
      -------------------------------------------------------------
                  HL-Gap            0.0117417 Eh            0.3195 eV
             Fermi-level           -0.3424743 Eh           -9.3192 eV

 SCC (total)                   0 d,  0 h,  0 min,  1.033 sec
 SCC setup                      ...        0 min,  0.009 sec (  0.869%)
 Dispersion                     ...        0 min,  0.022 sec (  2.176%)
 classical contributions        ...        0 min,  0.000 sec (  0.044%)
 integral evaluation            ...        0 min,  0.079 sec (  7.604%)
 iterations                     ...        0 min,  0.746 sec ( 72.278%)
 molecular gradient             ...        0 min,  0.164 sec ( 15.925%)
 printout                       ...        0 min,  0.011 sec (  1.094%)

         :::::::::::::::::::::::::::::::::::::::::::::::::::::
         ::                     SUMMARY                     ::
         :::::::::::::::::::::::::::::::::::::::::::::::::::::
         :: total energy            -373.244290635437 Eh    ::
         :: total w/o Gsasa/hb      -373.130195085583 Eh    ::
         :: gradient norm              0.020881190960 Eh/a0 ::
         :: HOMO-LUMO gap              0.319506962101 eV    ::
         ::.................................................::
         :: SCC energy              -379.052326155680 Eh    ::
         :: -> isotropic ES            0.181425635370 Eh    ::
         :: -> anisotropic ES          0.017772678306 Eh    ::
         :: -> anisotropic XC          0.208945396006 Eh    ::
         :: -> dispersion             -0.407083615875 Eh    ::
         :: -> Gsolv                  -0.142873867580 Eh    ::
         ::    -> Gelec               -0.028778317726 Eh    ::
         ::    -> Gsasa               -0.118908905674 Eh    ::
         ::    -> Ghb                  0.000000000000 Eh    ::
         ::    -> Gshift               0.004813355820 Eh    ::
         :: repulsion energy           5.790991652168 Eh    ::
         :: add. restraining           0.000000000000 Eh    ::
         :: total charge               0.000000000131 e     ::
         :::::::::::::::::::::::::::::::::::::::::::::::::::::

           -------------------------------------------------
          |                Property Printout                |
           -------------------------------------------------

    * Orbital Energies and Occupations

         #    Occupation            Energy/Eh            Energy/eV
      -------------------------------------------------------------
         1        2.0000           -0.8672069             -23.5979
       ...           ...                  ...                  ...
       331        2.0000           -0.3906044             -10.6289
       332        2.0000           -0.3847460             -10.4695
       333        2.0000           -0.3822886             -10.4026
       334        2.0000           -0.3796881             -10.3318
       335        2.0000           -0.3745988             -10.1934
       336        2.0000           -0.3704606             -10.0807
       337        2.0000           -0.3671420              -9.9904
       338        2.0000           -0.3660504              -9.9607
       339        2.0000           -0.3623928              -9.8612
       340        2.0000           -0.3565865              -9.7032
       341        2.0000           -0.3552226              -9.6661
       342        2.0000           -0.3531569              -9.6099
       343        1.9959           -0.3483485              -9.4790 (HOMO)
       344        0.0041           -0.3366069              -9.1595 (LUMO)
       345                         -0.3239632              -8.8155
       346                         -0.3234624              -8.8019
       347                         -0.3141184              -8.5476
       348                         -0.2874425              -7.8217
       349                         -0.2799462              -7.6177
       350                         -0.2794540              -7.6043
       351                         -0.2709344              -7.3725
       352                         -0.2526107              -6.8739
       353                         -0.2523932              -6.8680
       354                         -0.2496163              -6.7924
       ...                                ...                  ...
       698                          1.1569963              31.4835
      -------------------------------------------------------------
                  HL-Gap            0.0117417 Eh            0.3195 eV
             Fermi-level           -0.3424743 Eh           -9.3192 eV

     #   Z          covCN         q      C6AA      α(0)
     1   6 C        2.919    -0.015    28.387     8.737
     2   6 C        3.006    -0.044    29.082     8.846
     3   6 C        2.877     0.231    23.167     7.891
     4   8 O        0.948    -0.412    21.880     6.274
     5   6 C        3.061    -0.023    28.506     8.755
     6   6 C        2.904    -0.023    28.578     8.766
     7   6 C        3.261     0.008    26.655     8.340
     8   6 C        3.257     0.011    26.660     8.348
     9   6 C        2.905    -0.033    28.833     8.805
    10   6 C        3.051     0.004    27.880     8.660
    11   6 C        3.023     0.034    27.220     8.558
    12   6 C        2.947    -0.000    28.039     8.685
    13   6 C        1.954     0.128    27.939     8.536
    14   7 N        0.911    -0.290    27.479     7.581
    15   6 C        1.955     0.133    27.825     8.518
    16   7 N        0.911    -0.279    27.194     7.542
    17   6 C        4.163    -0.024    20.922     6.496
    18   6 C        4.012    -0.015    20.765     6.473
    19   6 C        2.988    -0.041    29.020     8.837
    20   6 C        2.987    -0.042    29.023     8.837
    21   6 C        4.012    -0.015    20.764     6.473
    22   6 C        3.926    -0.060    21.590     6.603
    23   6 C        4.162    -0.024    20.916     6.495
    24   6 C        2.984     0.007    27.855     8.657
    25   6 C        3.052     0.060    26.615     8.461
    26   7 N        2.749    -0.038    21.978     6.963
    27   6 C        2.935     0.062    26.616     8.461
    28   6 C        2.924    -0.040    28.998     8.831
    29   6 C        2.948    -0.037    28.917     8.820
    30   6 C        2.967     0.052    26.827     8.496
    31  16 S        2.028    -0.198   149.456    20.576
    32   6 C        3.744    -0.051    21.554     6.623
    33   6 C        2.972    -0.035    28.874     8.814
    34   6 C        2.921    -0.038    28.953     8.824
    35   6 C        2.925     0.059    26.671     8.469
    36   6 C        2.921    -0.044    29.086     8.844
    37   6 C        2.979    -0.041    29.001     8.834
    38   6 C        2.966     0.046    26.965     8.518
    39  16 S        2.032    -0.190   149.133    20.554
    40   6 C        3.744    -0.047    21.491     6.613
    41   6 C        2.946    -0.037    28.911     8.819
    42   6 C        2.923    -0.036    28.903     8.816
    43   6 C        3.159     0.006    27.576     8.585
    44  16 S        2.249    -0.067   143.825    20.185
    45   6 C        3.070    -0.004    28.049     8.684
    46   6 C        3.060     0.054    26.725     8.478
    47   7 N        2.749    -0.070    22.595     7.060
    48   6 C        2.922     0.058    26.701     8.474
    49   6 C        2.923    -0.047    29.159     8.855
    50   6 C        2.984    -0.039    28.957     8.827
    51   6 C        2.965     0.045    26.985     8.521
    52  16 S        2.034    -0.183   148.793    20.530
    53   6 C        3.745    -0.047    21.491     6.613
    54   6 C        2.944    -0.043    29.060     8.841
    55   6 C        2.922    -0.049    29.221     8.865
    56   6 C        2.933     0.060    26.647     8.466
    57   6 C        2.926    -0.042    29.054     8.839
    58   6 C        2.950    -0.036    28.887     8.815
    59   6 C        2.967     0.054    26.777     8.488
    60  16 S        2.030    -0.191   149.187    20.557
    61   6 C        3.744    -0.047    21.491     6.613
    62   6 C        2.975    -0.034    28.854     8.811
    63   6 C        2.922    -0.041    29.025     8.835
    64   6 C        3.157    -0.005    27.824     8.625
    65  16 S        2.310    -0.014   141.653    20.032
    66   6 C        3.033    -0.003    28.056     8.688
    67   6 C        3.063     0.052    26.769     8.484
    68   7 N        2.749    -0.071    22.617     7.063
    69   6 C        2.927     0.059    26.683     8.471
    70   6 C        2.923    -0.044    29.105     8.847
    71   6 C        2.984    -0.034    28.845     8.810
    72   6 C        2.965     0.046    26.958     8.516
    73  16 S        2.034    -0.185   148.881    20.536
    74   6 C        3.744    -0.051    21.568     6.625
    75   6 C        2.942    -0.048    29.185     8.860
    76   6 C        2.923    -0.052    29.289     8.875
    77   6 C        2.923     0.066    26.530     8.447
    78   6 C        2.925    -0.046    29.131     8.851
    79   6 C        2.952    -0.031    28.775     8.798
    80   6 C        2.968     0.047    26.938     8.513
    81  16 S        2.021    -0.235   151.100    20.689
    82   6 C        3.744    -0.046    21.467     6.609
    83   6 C        2.962    -0.036    28.887     8.816
    84   6 C        2.924    -0.047    29.166     8.856
    85   6 C        3.184     0.001    27.552     8.566
    86  16 S        2.274    -0.017   141.769    20.040
    87   6 C        3.006     0.008    27.829     8.653
    88   6 C        3.067     0.056    26.679     8.469
    89   7 N        2.749    -0.068    22.549     7.053
    90   6 C        2.940     0.062    26.619     8.462
    91   6 C        2.922    -0.044    29.096     8.846
    92   6 C        2.942    -0.043    29.067     8.842
    93   6 C        2.965     0.049    26.898     8.507
    94  16 S        2.033    -0.189   149.088    20.551
    95   6 C        3.745    -0.048    21.512     6.616
    96   6 C        2.984    -0.036    28.898     8.818
    97   6 C        2.923    -0.042    29.049     8.839
    98   6 C        2.918     0.062    26.609     8.459
    99   6 C        2.924    -0.051    29.274     8.873
   100   6 C        2.948    -0.040    29.005     8.833
   101   6 C        2.966     0.038    27.135     8.544
   102  16 S        2.031    -0.152   147.456    20.438
   103   6 C        3.744    -0.053    21.591     6.628
   104   6 C        2.973    -0.039    28.956     8.827
   105   6 C        2.922    -0.042    29.055     8.839
   106   6 C        3.202     0.005    27.348     8.521
   107  16 S        2.326    -0.055   143.343    20.151
   108   6 C        2.998    -0.005    28.142     8.702
   109   6 C        2.786     0.162    24.498     8.107
   110   9 F        0.787    -0.187    11.101     3.936
   111   6 C        2.785     0.160    24.536     8.114
   112   9 F        0.787    -0.185    11.083     3.933
   113   6 C        2.969    -0.004    28.118     8.698
   114   6 C        2.784     0.151    24.701     8.141
   115   9 F        0.787    -0.203    11.268     3.965
   116   6 C        2.782     0.155    24.635     8.130
   117   9 F        0.787    -0.191    11.144     3.943
   118   6 C        2.903     0.000    28.023     8.680
   119   6 C        3.005    -0.011    28.270     8.722
   120   6 C        2.871     0.240    23.006     7.863
   121   8 O        0.856    -0.388    21.441     6.208
   122   6 C        3.054    -0.018    28.404     8.740
   123   6 C        2.904    -0.019    28.485     8.751
   124   6 C        3.258     0.013    26.590     8.334
   125   6 C        3.258     0.017    26.515     8.324
   126   6 C        2.904    -0.031    28.779     8.796
   127   6 C        3.053     0.013    27.682     8.629
   128   6 C        3.015     0.042    27.029     8.528
   129   6 C        2.947     0.015    27.682     8.629
   130   6 C        1.940     0.129    27.918     8.533
   131   7 N        0.913    -0.246    26.383     7.427
   132   6 C        1.939     0.129    27.922     8.533
   133   7 N        0.911    -0.284    27.319     7.559
   134   6 C        4.163    -0.024    20.918     6.496
   135   6 C        4.011    -0.015    20.763     6.473
   136   6 C        2.987    -0.041    29.016     8.836
   137   6 C        2.987    -0.042    29.040     8.840
   138   6 C        4.011    -0.015    20.764     6.473
   139   6 C        3.926    -0.061    21.599     6.605
   140   6 C        4.161    -0.024    20.923     6.496
   141   1 H        0.925     0.065     2.136     2.286
   142   1 H        0.926     0.064     2.154     2.295
   143   1 H        0.926     0.056     2.242     2.342
   144   1 H        0.925     0.049     2.338     2.391
   145   1 H        0.925     0.039     2.468     2.457
   146   1 H        0.926     0.031     2.566     2.505
   147   1 H        0.926     0.032     2.551     2.498
   148   1 H        0.925     0.039     2.467     2.456
   149   1 H        0.925     0.042     2.420     2.433
   150   1 H        0.925     0.041     2.433     2.439
   151   1 H        0.925     0.047     2.353     2.399
   152   1 H        0.926     0.043     2.414     2.430
   153   1 H        0.926     0.062     2.180     2.309
   154   1 H        0.925     0.065     2.142     2.289
   155   1 H        0.925     0.059     2.214     2.327
   156   1 H        0.925     0.071     2.076     2.253
   157   1 H        0.926     0.056     2.248     2.344
   158   1 H        0.926     0.057     2.230     2.335
   159   1 H        0.926     0.038     2.471     2.458
   160   1 H        0.926     0.047     2.356     2.400
   161   1 H        0.925     0.061     2.182     2.310
   162   1 H        0.925     0.070     2.080     2.255
   163   1 H        0.925     0.062     2.177     2.307
   164   1 H        0.926     0.056     2.252     2.346
   165   1 H        0.926     0.058     2.223     2.332
   166   1 H        0.926     0.043     2.404     2.424
   167   1 H        0.926     0.049     2.328     2.386
   168   1 H        0.925     0.059     2.211     2.325
   169   1 H        0.925     0.055     2.253     2.347
   170   1 H        0.925     0.069     2.091     2.261
   171   1 H        0.926     0.039     2.467     2.456
   172   1 H        0.926     0.033     2.540     2.492
   173   1 H        0.926     0.036     2.506     2.476
   174   1 H        0.926     0.044     2.396     2.420
   175   1 H        0.925     0.053     2.285     2.364
   176   1 H        0.925     0.063     2.166     2.301
   177   1 H        0.925     0.067     2.116     2.275
   178   1 H        0.926     0.052     2.291     2.367
   179   1 H        0.926     0.044     2.395     2.420
   180   1 H        0.926     0.034     2.528     2.486
   181   1 H        0.926     0.053     2.287     2.365
   182   1 H        0.925     0.069     2.097     2.265
   183   1 H        0.925     0.060     2.194     2.316
   184   1 H        0.925     0.062     2.180     2.309
   185   1 H        0.926     0.043     2.405     2.425
   186   1 H        0.926     0.038     2.472     2.459
   187   1 H        0.926     0.041     2.439     2.442
   188   1 H        0.926     0.053     2.279     2.361
   189   1 H        0.925     0.050     2.326     2.385
   190   1 H        0.925     0.067     2.117     2.275
   191   1 H        0.925     0.064     2.151     2.293
   192   1 H        0.926     0.051     2.306     2.374
   193   1 H        0.926     0.045     2.383     2.414
   194   1 H        0.926     0.044     2.393     2.419
   195   1 H        0.926     0.046     2.365     2.405
   196   1 H        0.925     0.064     2.156     2.296
   197   1 H        0.925     0.058     2.219     2.330
   198   1 H        0.925     0.069     2.099     2.266
   199   1 H        0.926     0.051     2.306     2.375
   200   1 H        0.926     0.045     2.384     2.414
   201   1 H        0.926     0.044     2.400     2.423
   202   1 H        0.926     0.050     2.315     2.379
   203   1 H        0.925     0.070     2.080     2.256
   204   1 H        0.925     0.058     2.222     2.331
   205   1 H        0.925     0.064     2.148     2.292
   206   1 H        0.926     0.049     2.334     2.389
   207   1 H        0.926     0.053     2.285     2.364
   208   1 H        0.925     0.103     1.757     2.073
   209   1 H        0.926     0.066     2.125     2.279
   210   1 H        0.926     0.061     2.184     2.311
   211   1 H        0.925     0.052     2.293     2.368
   212   1 H        0.925     0.042     2.427     2.436
   213   1 H        0.926     0.035     2.521     2.483
   214   1 H        0.926     0.033     2.542     2.493
   215   1 H        0.925     0.040     2.449     2.447
   216   1 H        0.925     0.043     2.416     2.430
   217   1 H        0.925     0.045     2.389     2.417
   218   1 H        0.925     0.052     2.300     2.372

 Mol. C6AA /au·bohr⁶  :     834666.085223
 Mol. C8AA /au·bohr⁸  :   23747361.702337
 Mol. α(0) /au        :       1463.256581


Wiberg/Mayer (AO) data.
largest (>0.10) Wiberg bond orders for each atom

 ---------------------------------------------------------------------------
     #   Z sym  total        # sym  WBO       # sym  WBO       # sym  WBO
 ---------------------------------------------------------------------------
     1   6 C    3.949 --     2 C    1.451    24 C    1.349   141 H    0.931
     2   6 C    3.953 --     1 C    1.451    11 C    1.162     3 C    1.074
     3   6 C    3.907 --     4 O    1.671     2 C    1.074     5 C    1.031
     4   8 O    2.068 --     3 C    1.671    65 S    0.121
     5   6 C    3.970 --     6 C    1.383    10 C    1.307     3 C    1.031
     6   6 C    3.979 --     7 C    1.438     5 C    1.383   142 H    0.962
     7   6 C    3.955 --     6 C    1.438     8 C    1.331    23 C    0.996
     8   6 C    3.965 --     9 C    1.443     7 C    1.331    17 C    0.997
     9   6 C    3.976 --     8 C    1.443    10 C    1.372   143 H    0.958
    10   6 C    3.977 --     9 C    1.372     5 C    1.307    11 C    1.084
    11   6 C    3.971 --    12 C    1.451     2 C    1.162    10 C    1.084
    12   6 C    3.950 --    11 C    1.451    13 C    1.111    15 C    1.103
    13   6 C    3.941 --    14 N    2.721    12 C    1.111
    14   7 N    2.951 --    13 C    2.721
    15   6 C    3.940 --    16 N    2.744    12 C    1.103
    16   7 N    2.953 --    15 C    2.744
    17   6 C    3.985 --     8 C    0.997    23 C    0.978   144 H    0.959
                            18 C    0.947
    18   6 C    3.989 --    19 C    1.010    22 C    0.985   145 H    0.972
                            17 C    0.947
    19   6 C    3.987 --    20 C    1.924    18 C    1.010   146 H    0.971
    20   6 C    3.987 --    19 C    1.924    21 C    1.010   147 H    0.971
    21   6 C    3.989 --    20 C    1.010    22 C    0.985   148 H    0.972
                            23 C    0.947
    22   6 C    3.993 --    18 C    0.985    21 C    0.985   150 H    0.977
                           149 H    0.976
    23   6 C    3.984 --     7 C    0.996    17 C    0.978   151 H    0.959
                            21 C    0.947
    24   6 C    3.929 --     1 C    1.349    25 C    1.266    65 S    1.077
    25   6 C    3.942 --    24 C    1.266    43 C    1.266    26 N    1.155
    26   7 N    3.536 --    25 C    1.155    35 C    1.042    27 C    1.031
    27   6 C    3.959 --    28 C    1.367    34 C    1.362    26 N    1.031
    28   6 C    3.981 --    29 C    1.456    27 C    1.367   152 H    0.966
                            33 C    0.100
    29   6 C    3.987 --    28 C    1.456    30 C    1.389   153 H    0.962
    30   6 C    3.950 --    29 C    1.389    33 C    1.379    31 S    1.036
    31  16 S    2.214 --    30 C    1.036    32 C    1.002
    32   6 C    3.970 --    31 S    1.002   155 H    0.983   154 H    0.979
                           156 H    0.975
    33   6 C    3.988 --    34 C    1.468    30 C    1.379   157 H    0.967
                            28 C    0.100
    34   6 C    3.975 --    33 C    1.468    27 C    1.362   158 H    0.963
    35   6 C    3.960 --    42 C    1.371    36 C    1.347    26 N    1.042
    36   6 C    3.986 --    37 C    1.482    35 C    1.347   159 H    0.966
    37   6 C    3.988 --    36 C    1.482    38 C    1.361   160 H    0.967
    38   6 C    3.956 --    41 C    1.394    37 C    1.361    39 S    1.047
    39  16 S    2.238 --    38 C    1.047    40 C    1.006
    40   6 C    3.972 --    39 S    1.006   163 H    0.982   161 H    0.981
                           162 H    0.978
    41   6 C    3.989 --    42 C    1.444    38 C    1.394   164 H    0.964
    42   6 C    3.980 --    41 C    1.444    35 C    1.371   165 H    0.964
    43   6 C    3.940 --    64 C    1.353    25 C    1.266    44 S    1.098
    44  16 S    2.543 --    43 C    1.098    45 C    1.083
    45   6 C    3.875 --    46 C    1.459    44 S    1.083    66 C    1.067
    46   6 C    3.962 --    45 C    1.459    64 C    1.200    47 N    1.093
    47   7 N    3.487 --    46 C    1.093    48 C    1.058    56 C    1.034
    48   6 C    3.963 --    55 C    1.370    49 C    1.347    47 N    1.058
    49   6 C    3.986 --    50 C    1.480    48 C    1.347   166 H    0.966
    50   6 C    3.989 --    49 C    1.480    51 C    1.364   167 H    0.967
                            55 C    0.101
    51   6 C    3.956 --    54 C    1.387    50 C    1.364    52 S    1.047
    52  16 S    2.250 --    51 C    1.047    53 C    1.009
    53   6 C    3.975 --    52 S    1.009   168 H    0.982   169 H    0.979
                           170 H    0.977
    54   6 C    3.989 --    55 C    1.450    51 C    1.387   171 H    0.961
    55   6 C    3.985 --    54 C    1.450    48 C    1.370   172 H    0.966
                            50 C    0.101
    56   6 C    3.962 --    57 C    1.369    63 C    1.363    47 N    1.034
    57   6 C    3.987 --    58 C    1.450    56 C    1.369   173 H    0.967
                            62 C    0.100
    58   6 C    3.989 --    57 C    1.450    59 C    1.391   174 H    0.966
    59   6 C    3.955 --    58 C    1.391    62 C    1.377    60 S    1.039
    60  16 S    2.217 --    59 C    1.039    61 C    1.004
    61   6 C    3.974 --    60 S    1.004   175 H    0.983   176 H    0.979
                           177 H    0.978
    62   6 C    3.989 --    63 C    1.470    59 C    1.377   178 H    0.967
                            57 C    0.100
    63   6 C    3.985 --    62 C    1.470    56 C    1.363   179 H    0.966
    64   6 C    3.938 --    43 C    1.353    46 C    1.200    65 S    1.137
    65  16 S    2.694 --    64 C    1.137    24 C    1.077     4 O    0.121
    66   6 C    3.920 --    67 C    1.504   107 S    1.074    45 C    1.067
    67   6 C    3.961 --    66 C    1.504    85 C    1.189    68 N    1.067
    68   7 N    3.487 --    67 C    1.067    69 C    1.058    77 C    1.058
    69   6 C    3.962 --    76 C    1.367    70 C    1.343    68 N    1.058
    70   6 C    3.986 --    71 C    1.476    69 C    1.343   180 H    0.965
    71   6 C    3.989 --    70 C    1.476    72 C    1.364   181 H    0.967
                            76 C    0.101
    72   6 C    3.951 --    75 C    1.386    71 C    1.364    73 S    1.047
    73  16 S    2.248 --    72 C    1.047    74 C    1.010
    74   6 C    3.975 --    73 S    1.010   184 H    0.981   183 H    0.981
                           182 H    0.977
    75   6 C    3.988 --    76 C    1.449    72 C    1.386   185 H    0.964
    76   6 C    3.984 --    75 C    1.449    69 C    1.367   186 H    0.965
                            71 C    0.101
    77   6 C    3.965 --    78 C    1.364    84 C    1.360    68 N    1.058
    78   6 C    3.986 --    79 C    1.455    77 C    1.364   187 H    0.964
                            83 C    0.100
    79   6 C    3.989 --    78 C    1.455    80 C    1.402   188 H    0.965
                            84 C    0.102
    80   6 C    3.957 --    79 C    1.402    83 C    1.395    81 S    1.001
    81  16 S    2.137 --    80 C    1.001    82 C    0.994
    82   6 C    3.970 --    81 S    0.994   189 H    0.986   191 H    0.980
                           190 H    0.979
    83   6 C    3.989 --    84 C    1.461    80 C    1.395   192 H    0.968
                            78 C    0.100
    84   6 C    3.985 --    83 C    1.461    77 C    1.360   193 H    0.962
                            79 C    0.102
    85   6 C    3.941 --   106 C    1.413    67 C    1.189    86 S    1.115
    86  16 S    2.555 --    85 C    1.115    87 C    1.106
    87   6 C    3.915 --    88 C    1.501    86 S    1.106   108 C    1.041
    88   6 C    3.963 --    87 C    1.501   106 C    1.188    89 N    1.065
    89   7 N    3.468 --    98 C    1.076    88 C    1.065    90 C    1.036
    90   6 C    3.961 --    91 C    1.376    97 C    1.350    89 N    1.036
    91   6 C    3.982 --    92 C    1.447    90 C    1.376   194 H    0.966
                            96 C    0.101
    92   6 C    3.988 --    91 C    1.447    93 C    1.390   195 H    0.964
    93   6 C    3.951 --    92 C    1.390    96 C    1.365    94 S    1.045
    94  16 S    2.248 --    93 C    1.045    95 C    1.008
    95   6 C    3.973 --    94 S    1.008   197 H    0.981   196 H    0.981
                           198 H    0.976
    96   6 C    3.989 --    97 C    1.480    93 C    1.365   199 H    0.967
                            91 C    0.101
    97   6 C    3.985 --    96 C    1.480    90 C    1.350   200 H    0.966
    98   6 C    3.959 --    99 C    1.356   105 C    1.343    89 N    1.076
    99   6 C    3.983 --   100 C    1.462    98 C    1.356   201 H    0.965
   100   6 C    3.985 --    99 C    1.462   101 C    1.383   202 H    0.965
   101   6 C    3.950 --   100 C    1.383   104 C    1.373   102 S    1.040
   102  16 S    2.259 --   101 C    1.040   103 C    1.005
   103   6 C    3.973 --   102 S    1.005   204 H    0.982   205 H    0.981
                           203 H    0.978
   104   6 C    3.987 --   105 C    1.475   101 C    1.373   206 H    0.967
   105   6 C    3.982 --   104 C    1.475    98 C    1.343   207 H    0.965
   106   6 C    3.942 --    85 C    1.413    88 C    1.188   107 S    1.119
   107  16 S    2.544 --   106 C    1.119    66 C    1.074
   108   6 C    3.970 --   116 C    1.338   109 C    1.328    87 C    1.041
   109   6 C    3.893 --   111 C    1.370   108 C    1.328   110 F    0.987
   110   9 F    1.126 --   109 C    0.987
   111   6 C    3.887 --   109 C    1.370   113 C    1.312   112 F    0.988
   112   9 F    1.128 --   111 C    0.988
   113   6 C    3.970 --   114 C    1.319   111 C    1.312   118 C    1.103
   114   6 C    3.884 --   116 C    1.367   113 C    1.319   115 F    0.972
   115   9 F    1.106 --   114 C    0.972
   116   6 C    3.891 --   114 C    1.367   108 C    1.338   117 F    0.982
   117   9 F    1.121 --   116 C    0.982
   118   6 C    3.929 --   119 C    1.681   113 C    1.103   208 H    0.940
   119   6 C    3.970 --   118 C    1.681   128 C    1.106   120 C    0.980
   120   6 C    3.920 --   121 O    1.776   122 C    1.043   119 C    0.980
   121   8 O    2.055 --   120 C    1.776
   122   6 C    3.966 --   123 C    1.371   127 C    1.292   120 C    1.043
   123   6 C    3.983 --   124 C    1.449   122 C    1.371   209 H    0.963
   124   6 C    3.951 --   123 C    1.449   125 C    1.316   140 C    0.997
   125   6 C    3.966 --   126 C    1.453   124 C    1.316   134 C    0.998
   126   6 C    3.974 --   125 C    1.453   127 C    1.361   210 H    0.959
   127   6 C    3.983 --   126 C    1.361   122 C    1.292   128 C    1.098
   128   6 C    3.945 --   129 C    1.482   119 C    1.106   127 C    1.098
   129   6 C    3.972 --   128 C    1.482   132 C    1.106   130 C    1.099
   130   6 C    3.947 --   131 N    2.748   129 C    1.099
   131   7 N    2.978 --   130 C    2.748
   132   6 C    3.942 --   133 N    2.745   129 C    1.106
   133   7 N    2.967 --   132 C    2.745
   134   6 C    3.984 --   125 C    0.998   140 C    0.977   211 H    0.958
                           135 C    0.946
   135   6 C    3.988 --   136 C    1.010   139 C    0.985   212 H    0.972
                           134 C    0.946
   136   6 C    3.987 --   137 C    1.925   135 C    1.010   213 H    0.971
   137   6 C    3.987 --   136 C    1.925   138 C    1.010   214 H    0.971
   138   6 C    3.988 --   137 C    1.010   139 C    0.985   215 H    0.972
                           140 C    0.946
   139   6 C    3.993 --   135 C    0.985   138 C    0.985   216 H    0.977
                           217 H    0.976
   140   6 C    3.983 --   124 C    0.997   134 C    0.977   218 H    0.959
                           138 C    0.946
   141   1 H    0.995 --     1 C    0.931
   142   1 H    0.995 --     6 C    0.962
   143   1 H    0.996 --     9 C    0.958
   144   1 H    0.996 --    17 C    0.959
   145   1 H    0.998 --    18 C    0.972
   146   1 H    0.999 --    19 C    0.971
   147   1 H    0.999 --    20 C    0.971
   148   1 H    0.998 --    21 C    0.972
   149   1 H    0.996 --    22 C    0.976
   150   1 H    0.998 --    22 C    0.977
   151   1 H    0.996 --    23 C    0.959
   152   1 H    0.998 --    28 C    0.966
   153   1 H    0.996 --    29 C    0.962
   154   1 H    0.995 --    32 C    0.979
   155   1 H    0.996 --    32 C    0.983
   156   1 H    0.995 --    32 C    0.975
   157   1 H    0.996 --    33 C    0.967
   158   1 H    0.996 --    34 C    0.963
   159   1 H    0.998 --    36 C    0.966
   160   1 H    0.997 --    37 C    0.967
   161   1 H    0.996 --    40 C    0.981
   162   1 H    0.995 --    40 C    0.978
   163   1 H    0.996 --    40 C    0.982
   164   1 H    0.996 --    41 C    0.964
   165   1 H    0.997 --    42 C    0.964
   166   1 H    0.998 --    49 C    0.966
   167   1 H    0.997 --    50 C    0.967
   168   1 H    0.996 --    53 C    0.982
   169   1 H    0.997 --    53 C    0.979
   170   1 H    0.995 --    53 C    0.977
   171   1 H    0.998 --    54 C    0.961
   172   1 H    0.999 --    55 C    0.966
   173   1 H    0.999 --    57 C    0.967
   174   1 H    0.998 --    58 C    0.966
   175   1 H    0.997 --    61 C    0.983
   176   1 H    0.995 --    61 C    0.979
   177   1 H    0.995 --    61 C    0.978
   178   1 H    0.997 --    62 C    0.967
   179   1 H    0.998 --    63 C    0.966
   180   1 H    0.998 --    70 C    0.965
   181   1 H    0.997 --    71 C    0.967
   182   1 H    0.995 --    74 C    0.977
   183   1 H    0.996 --    74 C    0.981
   184   1 H    0.996 --    74 C    0.981
   185   1 H    0.998 --    75 C    0.964
   186   1 H    0.998 --    76 C    0.965
   187   1 H    0.998 --    78 C    0.964
   188   1 H    0.997 --    79 C    0.965
   189   1 H    0.997 --    82 C    0.986
   190   1 H    0.995 --    82 C    0.979
   191   1 H    0.995 --    82 C    0.980
   192   1 H    0.997 --    83 C    0.968
   193   1 H    0.998 --    84 C    0.962
   194   1 H    0.998 --    91 C    0.966
   195   1 H    0.997 --    92 C    0.964
   196   1 H    0.996 --    95 C    0.981
   197   1 H    0.996 --    95 C    0.981
   198   1 H    0.995 --    95 C    0.976
   199   1 H    0.997 --    96 C    0.967
   200   1 H    0.998 --    97 C    0.966
   201   1 H    0.998 --    99 C    0.965
   202   1 H    0.997 --   100 C    0.965
   203   1 H    0.994 --   103 C    0.978
   204   1 H    0.996 --   103 C    0.982
   205   1 H    0.994 --   103 C    0.981
   206   1 H    0.997 --   104 C    0.967
   207   1 H    0.997 --   105 C    0.965
   208   1 H    0.987 --   118 C    0.940
   209   1 H    0.995 --   123 C    0.963
   210   1 H    0.996 --   126 C    0.959
   211   1 H    0.995 --   134 C    0.958
   212   1 H    0.998 --   135 C    0.972
   213   1 H    0.999 --   136 C    0.971
   214   1 H    0.999 --   137 C    0.971
   215   1 H    0.998 --   138 C    0.972
   216   1 H    0.998 --   139 C    0.977
   217   1 H    0.996 --   139 C    0.976
   218   1 H    0.995 --   140 C    0.959
 ---------------------------------------------------------------------------

Topologies differ in bond orders
Writing corrected topology to xtbtopo.mol

molecular dipole:
                 x           y           z       tot (Debye)
 q only:       -1.419       0.304       1.696
   full:       -1.998       0.443       1.310       6.175
molecular quadrupole (traceless):
                xx          xy          yy          xz          yz          zz
 q only:       11.342       5.988     -29.331     -11.086     -61.479      17.989
  q+dip:       30.387       6.389     -40.738     -10.793     -72.070      10.351
   full:       29.621       8.629     -33.510     -13.754     -73.969       3.889


           -------------------------------------------------
          | TOTAL ENERGY             -373.244290635437 Eh   |
          | GRADIENT NORM               0.020881190960 Eh/α |
          | HOMO-LUMO GAP               0.319506962101 eV   |
           -------------------------------------------------

------------------------------------------------------------------------
 * finished run on 2022/02/08 at 16:33:44.767     
------------------------------------------------------------------------
 total:
 * wall-time:     0 d,  0 h,  0 min,  1.193 sec
 *  cpu-time:     0 d,  0 h,  0 min,  9.443 sec
 * ratio c/w:     7.913 speedup
 SCF:
 * wall-time:     0 d,  0 h,  0 min,  1.040 sec
 *  cpu-time:     0 d,  0 h,  0 min,  8.318 sec
 * ratio c/w:     7.995 speedup

