      -----------------------------------------------------------      
     |                   =====================                   |     
     |                           x T B                           |     
     |                   =====================                   |     
     |                         S. Grimme                         |     
     |          Mulliken Center for Theoretical Chemistry        |     
     |                    University of Bonn                     |     
      -----------------------------------------------------------      

   * xtb version 6.4.1 (unknown) compiled by 'oda6@login1.crc.pitt.edu' on 2021-06-25

   xtb is free software: you can redistribute it and/or modify it under
   the terms of the GNU Lesser General Public License as published by
   the Free Software Foundation, either version 3 of the License, or
   (at your option) any later version.
   
   xtb is distributed in the hope that it will be useful,
   but WITHOUT ANY WARRANTY; without even the implied warranty of
   MERCHANTABILITY or FITNESS FOR A PARTICULAR PURPOSE.  See the
   GNU Lesser General Public License for more details.
   
   Cite this work as:
   * C. Bannwarth, E. Caldeweyher, S. Ehlert, A. Hansen, P. Pracht,
     J. Seibert, S. Spicher, S. Grimme, WIREs Comput. Mol. Sci., 2020, 11,
     e01493. DOI: 10.1002/wcms.1493
   
   for GFN2-xTB:
   * C. Bannwarth, S. Ehlert and S. Grimme., J. Chem. Theory Comput., 2019,
     15, 1652-1671. DOI: 10.1021/acs.jctc.8b01176
   for GFN1-xTB:
   * S. Grimme, C. Bannwarth, P. Shushkov, J. Chem. Theory Comput., 2017,
     13, 1989-2009. DOI: 10.1021/acs.jctc.7b00118
   for GFN0-xTB:
   * P. Pracht, E. Caldeweyher, S. Ehlert, S. Grimme, ChemRxiv, 2019, preprint.
     DOI: 10.26434/chemrxiv.8326202.v1
   for GFN-FF:
   * S. Spicher and S. Grimme, Angew. Chem. Int. Ed., 2020, 59, 15665-15673.
     DOI: 10.1002/anie.202004239
   
   for DFT-D4:
   * E. Caldeweyher, C. Bannwarth and S. Grimme, J. Chem. Phys., 2017,
     147, 034112. DOI: 10.1063/1.4993215
   * E. Caldeweyher, S. Ehlert, A. Hansen, H. Neugebauer, S. Spicher,
     C. Bannwarth and S. Grimme, J. Chem. Phys., 2019, 150, 154122.
     DOI: 10.1063/1.5090222
   * E. Caldeweyher, J.-M. Mewes, S. Ehlert and S. Grimme, Phys. Chem. Chem. Phys.
     2020, 22, 8499-8512. DOI: 10.1039/D0CP00502A
   
   for sTDA-xTB:
   * S. Grimme and C. Bannwarth, J. Chem. Phys., 2016, 145, 054103.
     DOI: 10.1063/1.4959605
   
   in the mass-spec context:
   * V. Asgeirsson, C. Bauer and S. Grimme, Chem. Sci., 2017, 8, 4879.
     DOI: 10.1039/c7sc00601b
   * J. Koopman and S. Grimme, ACS Omega 2019, 4, 12, 15120-15133.
     DOI: 10.1021/acsomega.9b02011
   
   for metadynamics refer to:
   * S. Grimme, J. Chem. Theory Comput., 2019, 155, 2847-2862
     DOI: 10.1021/acs.jctc.9b00143
   
   for SPH calculations refer to:
   * S. Spicher and S. Grimme, J. Chem. Theory Comput., 2021, 17, 1701-1714
     DOI: 10.1021/acs.jctc.0c01306
   
   with help from (in alphabetical order)
   P. Atkinson, C. Bannwarth, F. Bohle, G. Brandenburg, E. Caldeweyher
   M. Checinski, S. Dohm, S. Ehlert, S. Ehrlich, I. Gerasimov, J. Koopman
   C. Lavigne, S. Lehtola, F. März, M. Müller, F. Musil, H. Neugebauer
   J. Pisarek, C. Plett, P. Pracht, J. Seibert, P. Shushkov, S. Spicher
   M. Stahn, M. Steiner, T. Strunk, J. Stückrath, T. Rose, and J. Unsleber
   
 * started run on 2022/02/04 at 16:46:19.956     

           -------------------------------------------------
          |                Calculation Setup                |
           -------------------------------------------------

          program call               : /ihome/ghutchison/oda6/xtb/xtb-641/bin/xtb ../../GFN2_output/39_133_130_52_39.mol --sp --alpb hexane
          hostname                   : smp-n57
          coordinate file            : ../../GFN2_output/39_133_130_52_39.mol
          omp threads                :                     8
          number of atoms            :                   163
          number of electrons        :                   526
          charge                     :                     0
          spin                       :                   0.0
          first test random number   :      0.85872917668520

   ID    Z sym.   atoms
    1    6 C      1-3, 5-13, 15, 17-26, 30, 31, 35-37, 39-42, 44-50, 52-55,
                  57, 58, 60-63, 65-71, 73-76, 78, 80-82, 84, 85, 87-89,
                  91-99, 101, 103-109
    2    8 O      4, 83, 86, 90
    3    7 N      14, 16, 27, 29, 32, 34, 38, 59, 100, 102
    4   16 S      28, 33, 43, 51, 56, 64, 72, 77, 79
    5    1 H      110-163

           -------------------------------------------------
          |                 G F N 2 - x T B                 |
           -------------------------------------------------

        Reference                      10.1021/acs.jctc.8b01176
      * Hamiltonian:
        H0-scaling (s, p, d)           1.850000    2.230000    2.230000
        zeta-weighting                 0.500000
      * Dispersion:
        s8                             2.700000
        a1                             0.520000
        a2                             5.000000
        s9                             5.000000
      * Repulsion:
        kExp                           1.500000    1.000000
        rExp                           1.000000
      * Coulomb:
        alpha                          2.000000
        third order                    shell-resolved
        anisotropic                    true
        a3                             3.000000
        a5                             4.000000
        cn-shift                       1.200000
        cn-exp                         4.000000
        max-rad                        5.000000

      * Solvation model:               ALPB
        Solvent                        hexane
        Parameter file                 internal GFN2-xTB/ALPB
        Dielectric constant                1.8800E+00
        Reference state                gsolv [1 M gas/solution]
        Free energy shift                  4.8134E-03 Eh       3.0204E+00 kcal/mol
        Temperature                        2.9815E+02 K
        Density                            6.6000E-01 kg/L
        Solvent mass                       8.6180E+01 g/mol
        Interaction kernel             P16
        Born radius scaling (c1)           1.1040E+00
        Born radii integrator          GBOBC
        Born offset                        0.0000E+00 a0       0.0000E+00 AA
        H-bond correction              false
        Ion screening                  false
        Surface tension                    1.0000E-05 Eh       1.5569E+01 dyn/cm
        Grid points                               230 per atom

          ...................................................
          :                      SETUP                      :
          :.................................................:
          :  # basis functions                 544          :
          :  # atomic orbitals                 535          :
          :  # shells                          281          :
          :  # electrons                       526          :
          :  max. iterations                   250          :
          :  Hamiltonian                  GFN2-xTB          :
          :  restarted?                      false          :
          :  GBSA solvation                   true          :
          :  PC potential                    false          :
          :  electronic temp.          300.0000000     K    :
          :  accuracy                    1.0000000          :
          :  -> integral cutoff          0.2500000E+02      :
          :  -> integral neglect         0.1000000E-07      :
          :  -> SCF convergence          0.1000000E-05 Eh   :
          :  -> wf. convergence          0.1000000E-03 e    :
          :  Broyden damping             0.4000000          :
          ...................................................

 iter      E             dE          RMSdq      gap      omega  full diag
   1   -290.5089277 -0.290509E+03  0.477E+00    0.55       0.0  T
   2   -290.6945244 -0.185597E+00  0.280E+00    0.70       1.0  T
   3   -290.4588830  0.235641E+00  0.148E+00    0.37       1.0  T
   4   -290.7285712 -0.269688E+00  0.606E-01    0.57       1.0  T
   5   -290.7758699 -0.472987E-01  0.230E-01    0.48       1.0  T
   6   -290.7774879 -0.161799E-02  0.136E-01    0.44       1.0  T
   7   -290.7798538 -0.236586E-02  0.616E-02    0.44       1.0  T
   8   -290.7801620 -0.308198E-03  0.269E-02    0.45       1.0  T
   9   -290.7802044 -0.424354E-04  0.137E-02    0.45       1.0  T
  10   -290.7802098 -0.536289E-05  0.773E-03    0.45       1.0  T
  11   -290.7802146 -0.485006E-05  0.324E-03    0.45       2.4  T
  12   -290.7802153 -0.663070E-06  0.163E-03    0.45       4.8  T
  13   -290.7802154 -0.598303E-07  0.738E-04    0.45      10.6  T
  14   -290.7802154 -0.235198E-07  0.341E-04    0.45      23.0  T

   *** convergence criteria satisfied after 14 iterations ***

         #    Occupation            Energy/Eh            Energy/eV
      -------------------------------------------------------------
         1        2.0000           -0.7700758             -20.9548
       ...           ...                  ...                  ...
       257        2.0000           -0.3860631             -10.5053
       258        2.0000           -0.3829282             -10.4200
       259        2.0000           -0.3758729             -10.2280
       260        2.0000           -0.3743283             -10.1860
       261        2.0000           -0.3720064             -10.1228
       262        2.0000           -0.3604390              -9.8080
       263        1.9997           -0.3574367              -9.7263 (HOMO)
       264        0.0003           -0.3409227              -9.2770 (LUMO)
       265                         -0.3250254              -8.8444
       266                         -0.3189507              -8.6791
       267                         -0.3114821              -8.4759
       268                         -0.3008908              -8.1877
       ...                                ...                  ...
       535                          1.1631663              31.6514
      -------------------------------------------------------------
                  HL-Gap            0.0165140 Eh            0.4494 eV
             Fermi-level           -0.3491600 Eh           -9.5011 eV

 SCC (total)                   0 d,  0 h,  0 min,  0.626 sec
 SCC setup                      ...        0 min,  0.005 sec (  0.756%)
 Dispersion                     ...        0 min,  0.011 sec (  1.707%)
 classical contributions        ...        0 min,  0.000 sec (  0.044%)
 integral evaluation            ...        0 min,  0.046 sec (  7.420%)
 iterations                     ...        0 min,  0.474 sec ( 75.686%)
 molecular gradient             ...        0 min,  0.087 sec ( 13.904%)
 printout                       ...        0 min,  0.003 sec (  0.470%)

         :::::::::::::::::::::::::::::::::::::::::::::::::::::
         ::                     SUMMARY                     ::
         :::::::::::::::::::::::::::::::::::::::::::::::::::::
         :: total energy            -286.355939278357 Eh    ::
         :: total w/o Gsasa/hb      -286.269206831601 Eh    ::
         :: gradient norm              0.023045534686 Eh/a0 ::
         :: HOMO-LUMO gap              0.449367592502 eV    ::
         ::.................................................::
         :: SCC energy              -290.780215389972 Eh    ::
         :: -> isotropic ES            0.203558894457 Eh    ::
         :: -> anisotropic ES          0.009553206955 Eh    ::
         :: -> anisotropic XC          0.182573424760 Eh    ::
         :: -> dispersion             -0.311035261505 Eh    ::
         :: -> Gsolv                  -0.117867364285 Eh    ::
         ::    -> Gelec               -0.031134917529 Eh    ::
         ::    -> Gsasa               -0.091545802576 Eh    ::
         ::    -> Ghb                  0.000000000000 Eh    ::
         ::    -> Gshift               0.004813355820 Eh    ::
         :: repulsion energy           4.415795251938 Eh    ::
         :: add. restraining           0.000000000000 Eh    ::
         :: total charge              -0.000000000010 e     ::
         :::::::::::::::::::::::::::::::::::::::::::::::::::::

           -------------------------------------------------
          |                Property Printout                |
           -------------------------------------------------

    * Orbital Energies and Occupations

         #    Occupation            Energy/Eh            Energy/eV
      -------------------------------------------------------------
         1        2.0000           -0.7700758             -20.9548
       ...           ...                  ...                  ...
       251        2.0000           -0.4016300             -10.9289
       252        2.0000           -0.3990796             -10.8595
       253        2.0000           -0.3976590             -10.8209
       254        2.0000           -0.3934543             -10.7064
       255        2.0000           -0.3932800             -10.7017
       256        2.0000           -0.3923641             -10.6768
       257        2.0000           -0.3860631             -10.5053
       258        2.0000           -0.3829282             -10.4200
       259        2.0000           -0.3758729             -10.2280
       260        2.0000           -0.3743283             -10.1860
       261        2.0000           -0.3720064             -10.1228
       262        2.0000           -0.3604390              -9.8080
       263        1.9997           -0.3574367              -9.7263 (HOMO)
       264        0.0003           -0.3409227              -9.2770 (LUMO)
       265                         -0.3250254              -8.8444
       266                         -0.3189507              -8.6791
       267                         -0.3114821              -8.4759
       268                         -0.3008908              -8.1877
       269                         -0.2896617              -7.8821
       270                         -0.2827360              -7.6936
       271                         -0.2591873              -7.0528
       272                         -0.2558630              -6.9624
       273                         -0.2514539              -6.8424
       274                         -0.2480846              -6.7507
       ...                                ...                  ...
       535                          1.1631663              31.6514
      -------------------------------------------------------------
                  HL-Gap            0.0165140 Eh            0.4494 eV
             Fermi-level           -0.3491600 Eh           -9.5011 eV

     #   Z          covCN         q      C6AA      α(0)
     1   6 C        2.902    -0.001    28.058     8.685
     2   6 C        3.005    -0.031    28.761     8.797
     3   6 C        2.869     0.239    23.015     7.864
     4   8 O        0.856    -0.436    22.413     6.347
     5   6 C        3.060    -0.021    28.463     8.749
     6   6 C        2.904    -0.022    28.565     8.763
     7   6 C        3.259     0.010    26.656     8.344
     8   6 C        3.256     0.012    26.650     8.348
     9   6 C        2.904    -0.034    28.848     8.807
    10   6 C        3.045     0.006    27.834     8.653
    11   6 C        3.022     0.038    27.127     8.543
    12   6 C        2.947     0.006    27.878     8.660
    13   6 C        1.943     0.134    27.812     8.517
    14   7 N        0.911    -0.271    27.006     7.516
    15   6 C        1.943     0.132    27.857     8.523
    16   7 N        0.911    -0.277    27.158     7.537
    17   6 C        4.162    -0.022    20.882     6.490
    18   6 C        4.013    -0.015    20.770     6.474
    19   6 C        2.995    -0.041    29.019     8.837
    20   6 C        2.995    -0.042    29.040     8.840
    21   6 C        4.013    -0.015    20.767     6.474
    22   6 C        3.915    -0.060    21.589     6.604
    23   6 C        4.160    -0.022    20.884     6.490
    24   6 C        2.959    -0.017    28.429     8.745
    25   6 C        3.342     0.071    23.952     7.734
    26   6 C        3.341     0.068    24.044     7.752
    27   7 N        1.851    -0.310    28.880     7.965
    28  16 S        2.665     0.412   125.388    18.846
    29   7 N        1.853    -0.303    28.696     7.940
    30   6 C        3.024    -0.013    28.306     8.727
    31   6 C        3.352     0.070    23.766     7.676
    32   7 N        1.870    -0.310    28.897     7.968
    33  16 S        2.755     0.448   124.125    18.751
    34   7 N        1.854    -0.307    28.805     7.955
    35   6 C        3.342     0.084    23.703     7.694
    36   6 C        2.999     0.010    27.784     8.647
    37   6 C        3.050     0.056    26.698     8.474
    38   7 N        2.749    -0.036    21.930     6.955
    39   6 C        2.925     0.061    26.643     8.465
    40   6 C        2.922    -0.042    29.044     8.838
    41   6 C        2.979    -0.044    29.083     8.846
    42   6 C        2.965     0.044    27.008     8.524
    43  16 S        2.033    -0.146   147.214    20.421
    44   6 C        3.745    -0.054    21.613     6.632
    45   6 C        2.946    -0.044    29.094     8.847
    46   6 C        2.923    -0.048    29.187     8.859
    47   6 C        2.934     0.060    26.653     8.467
    48   6 C        2.926    -0.038    28.945     8.823
    49   6 C        2.985    -0.036    28.895     8.818
    50   6 C        2.966     0.050    26.882     8.504
    51  16 S        2.035    -0.180   148.670    20.522
    52   6 C        3.744    -0.054    21.624     6.634
    53   6 C        2.943    -0.043    29.068     8.843
    54   6 C        2.923    -0.041    29.026     8.835
    55   6 C        3.178     0.000    27.612     8.580
    56  16 S        2.307    -0.036   142.543    20.094
    57   6 C        3.018     0.005    27.891     8.663
    58   6 C        3.046     0.051    26.815     8.493
    59   7 N        2.748    -0.053    22.270     7.009
    60   6 C        2.948     0.063    26.589     8.457
    61   6 C        2.922    -0.039    28.959     8.825
    62   6 C        2.953    -0.036    28.884     8.815
    63   6 C        2.967     0.052    26.839     8.498
    64  16 S        2.113    -0.153   147.503    20.441
    65   6 C        3.744    -0.055    21.628     6.634
    66   6 C        2.965    -0.030    28.743     8.794
    67   6 C        2.924    -0.035    28.875     8.812
    68   6 C        2.929     0.061    26.625     8.462
    69   6 C        2.925    -0.048    29.195     8.861
    70   6 C        2.946    -0.041    29.016     8.835
    71   6 C        2.966     0.046    26.971     8.518
    72  16 S        2.028    -0.199   149.503    20.579
    73   6 C        3.744    -0.045    21.453     6.607
    74   6 C        2.975    -0.037    28.913     8.820
    75   6 C        2.923    -0.044    29.099     8.846
    76   6 C        3.182     0.004    27.488     8.558
    77  16 S        2.330    -0.047   143.014    20.128
    78   6 C        3.035     0.008    27.818     8.651
    79  16 S        2.354    -0.042   142.783    20.111
    80   6 C        2.976    -0.001    28.051     8.688
    81   6 C        3.068     0.119    25.324     8.252
    82   6 C        3.082     0.104    25.606     8.296
    83   8 O        1.722    -0.274    18.538     5.813
    84   6 C        3.726     0.070    19.502     6.305
    85   6 C        3.725     0.070    19.513     6.308
    86   8 O        1.704    -0.268    18.449     5.799
    87   6 C        2.925    -0.010    28.255     8.717
    88   6 C        3.012    -0.039    28.939     8.824
    89   6 C        2.873     0.234    23.118     7.882
    90   8 O        0.856    -0.419    22.058     6.297
    91   6 C        3.062    -0.018    28.406     8.740
    92   6 C        2.904    -0.020    28.505     8.754
    93   6 C        3.261     0.013    26.569     8.328
    94   6 C        3.259     0.016    26.522     8.323
    95   6 C        2.904    -0.029    28.727     8.788
    96   6 C        3.052     0.010    27.751     8.640
    97   6 C        3.024     0.040    27.074     8.535
    98   6 C        2.949     0.006    27.889     8.662
    99   6 C        1.929     0.133    27.830     8.519
   100   7 N        0.911    -0.272    27.044     7.521
   101   6 C        1.940     0.132    27.851     8.523
   102   7 N        0.911    -0.275    27.111     7.531
   103   6 C        4.164    -0.025    20.925     6.497
   104   6 C        4.012    -0.015    20.768     6.474
   105   6 C        2.988    -0.041    29.013     8.836
   106   6 C        2.987    -0.042    29.034     8.839
   107   6 C        4.012    -0.015    20.767     6.474
   108   6 C        3.926    -0.060    21.595     6.604
   109   6 C        4.162    -0.025    20.928     6.497
   110   1 H        0.925     0.074     2.042     2.235
   111   1 H        0.926     0.056     2.249     2.345
   112   1 H        0.926     0.058     2.219     2.330
   113   1 H        0.925     0.045     2.381     2.413
   114   1 H        0.925     0.040     2.446     2.446
   115   1 H        0.926     0.038     2.471     2.458
   116   1 H        0.926     0.038     2.480     2.463
   117   1 H        0.925     0.039     2.468     2.457
   118   1 H        0.925     0.036     2.505     2.475
   119   1 H        0.925     0.041     2.439     2.442
   120   1 H        0.925     0.044     2.395     2.420
   121   1 H        0.926     0.053     2.287     2.365
   122   1 H        0.926     0.056     2.244     2.343
   123   1 H        0.925     0.093     1.846     2.125
   124   1 H        0.925     0.052     2.300     2.372
   125   1 H        0.925     0.058     2.218     2.329
   126   1 H        0.926     0.045     2.385     2.415
   127   1 H        0.926     0.038     2.470     2.458
   128   1 H        0.926     0.051     2.309     2.376
   129   1 H        0.926     0.054     2.274     2.358
   130   1 H        0.925     0.063     2.166     2.301
   131   1 H        0.925     0.072     2.062     2.246
   132   1 H        0.925     0.066     2.129     2.282
   133   1 H        0.926     0.052     2.298     2.370
   134   1 H        0.926     0.048     2.347     2.396
   135   1 H        0.926     0.051     2.312     2.378
   136   1 H        0.926     0.058     2.228     2.334
   137   1 H        0.925     0.064     2.149     2.293
   138   1 H        0.925     0.061     2.186     2.312
   139   1 H        0.925     0.077     2.014     2.219
   140   1 H        0.926     0.063     2.168     2.303
   141   1 H        0.926     0.053     2.285     2.364
   142   1 H        0.926     0.038     2.475     2.460
   143   1 H        0.926     0.047     2.362     2.403
   144   1 H        0.925     0.062     2.174     2.306
   145   1 H        0.925     0.068     2.106     2.269
   146   1 H        0.925     0.052     2.295     2.369
   147   1 H        0.926     0.054     2.271     2.357
   148   1 H        0.926     0.053     2.283     2.363
   149   1 H        0.923     0.057     2.234     2.337
   150   1 H        0.925     0.083     1.948     2.183
   151   1 H        0.924     0.080     1.981     2.201
   152   1 H        0.924     0.062     2.175     2.306
   153   1 H        0.925     0.087     1.904     2.158
   154   1 H        0.926     0.059     2.215     2.327
   155   1 H        0.926     0.057     2.240     2.340
   156   1 H        0.925     0.051     2.303     2.373
   157   1 H        0.925     0.039     2.461     2.453
   158   1 H        0.926     0.032     2.552     2.498
   159   1 H        0.926     0.032     2.561     2.503
   160   1 H        0.925     0.038     2.481     2.463
   161   1 H        0.925     0.042     2.423     2.434
   162   1 H        0.925     0.041     2.429     2.437
   163   1 H        0.925     0.050     2.321     2.382

 Mol. C6AA /au·bohr⁶  :     486897.164050
 Mol. C8AA /au·bohr⁸  :   13837968.740054
 Mol. α(0) /au        :       1112.268510


Wiberg/Mayer (AO) data.
largest (>0.10) Wiberg bond orders for each atom

 ---------------------------------------------------------------------------
     #   Z sym  total        # sym  WBO       # sym  WBO       # sym  WBO
 ---------------------------------------------------------------------------
     1   6 C    3.943 --     2 C    1.521    24 C    1.241   110 H    0.944
     2   6 C    3.941 --     1 C    1.521    11 C    1.148     3 C    1.039
     3   6 C    3.906 --     4 O    1.716     2 C    1.039     5 C    1.027
     4   8 O    2.000 --     3 C    1.716
     5   6 C    3.972 --     6 C    1.380    10 C    1.310     3 C    1.027
     6   6 C    3.980 --     7 C    1.443     5 C    1.380   111 H    0.964
     7   6 C    3.955 --     6 C    1.443     8 C    1.324    23 C    0.992
     8   6 C    3.964 --     9 C    1.449     7 C    1.324    17 C    0.993
     9   6 C    3.976 --     8 C    1.449    10 C    1.365   112 H    0.958
    10   6 C    3.977 --     9 C    1.365     5 C    1.310    11 C    1.088
    11   6 C    3.970 --    12 C    1.466     2 C    1.148    10 C    1.088
    12   6 C    3.952 --    11 C    1.466    15 C    1.104    13 C    1.102
    13   6 C    3.942 --    14 N    2.751    12 C    1.102
    14   7 N    2.957 --    13 C    2.751
    15   6 C    3.942 --    16 N    2.741    12 C    1.104
    16   7 N    2.956 --    15 C    2.741
    17   6 C    3.984 --     8 C    0.993    23 C    0.975   113 H    0.961
                            18 C    0.951
    18   6 C    3.989 --    19 C    1.004    22 C    0.989   114 H    0.971
                            17 C    0.951
    19   6 C    3.982 --    20 C    1.923    18 C    1.004   115 H    0.971
    20   6 C    3.982 --    19 C    1.923    21 C    1.004   116 H    0.971
    21   6 C    3.988 --    20 C    1.004    22 C    0.989   117 H    0.971
                            23 C    0.950
    22   6 C    3.994 --    21 C    0.989    18 C    0.989   119 H    0.978
                           118 H    0.974
    23   6 C    3.983 --     7 C    0.992    17 C    0.975   120 H    0.961
                            21 C    0.950
    24   6 C    3.930 --     1 C    1.241    35 C    1.225    25 C    1.216
    25   6 C    3.962 --    29 N    1.386    24 C    1.216    26 C    1.142
    26   6 C    3.967 --    27 N    1.365    30 C    1.238    25 C    1.142
    27   7 N    3.051 --    28 S    1.427    26 C    1.365    29 N    0.151
    28  16 S    3.156 --    27 N    1.427    29 N    1.411
    29   7 N    3.058 --    28 S    1.411    25 C    1.386    27 N    0.151
    30   6 C    3.937 --    31 C    1.239    26 C    1.238    36 C    1.183
    31   6 C    3.966 --    32 N    1.348    30 C    1.239    35 C    1.154
    32   7 N    3.069 --    33 S    1.439    31 C    1.348    34 N    0.146
    33  16 S    3.210 --    32 N    1.439    34 N    1.430
    34   7 N    3.060 --    33 S    1.430    35 C    1.368    32 N    0.146
    35   6 C    3.965 --    34 N    1.368    24 C    1.225    31 C    1.154
    36   6 C    3.908 --    37 C    1.359    30 C    1.183    77 S    1.092
    37   6 C    3.922 --    36 C    1.359    55 C    1.220    38 N    1.132
    38   7 N    3.511 --    37 C    1.132    39 C    1.056    47 C    1.038
    39   6 C    3.962 --    46 C    1.359    40 C    1.347    38 N    1.056
    40   6 C    3.978 --    41 C    1.478    39 C    1.347   121 H    0.965
    41   6 C    3.987 --    40 C    1.478    42 C    1.364   122 H    0.966
    42   6 C    3.956 --    45 C    1.369    41 C    1.364    43 S    1.069
    43  16 S    2.281 --    42 C    1.069    44 C    1.006
    44   6 C    3.967 --    43 S    1.006   125 H    0.982   124 H    0.979
                           123 H    0.967
    45   6 C    3.986 --    46 C    1.466    42 C    1.369   126 H    0.965
    46   6 C    3.984 --    45 C    1.466    39 C    1.359   127 H    0.966
    47   6 C    3.959 --    54 C    1.372    48 C    1.347    38 N    1.038
    48   6 C    3.979 --    49 C    1.473    47 C    1.347   128 H    0.966
    49   6 C    3.987 --    48 C    1.473    50 C    1.368   129 H    0.966
                            54 C    0.100
    50   6 C    3.948 --    53 C    1.384    49 C    1.368    51 S    1.050
    51  16 S    2.253 --    50 C    1.050    52 C    1.009
    52   6 C    3.972 --    51 S    1.009   130 H    0.981   132 H    0.980
                           131 H    0.977
    53   6 C    3.987 --    54 C    1.454    50 C    1.384   133 H    0.963
    54   6 C    3.975 --    53 C    1.454    47 C    1.372   134 H    0.966
                            49 C    0.100
    55   6 C    3.925 --    76 C    1.365    37 C    1.220    56 S    1.112
    56  16 S    2.592 --    55 C    1.112    57 C    1.082
    57   6 C    3.905 --    58 C    1.354    78 C    1.234    56 S    1.082
    58   6 C    3.937 --    57 C    1.354    76 C    1.229    59 N    1.112
    59   7 N    3.490 --    58 C    1.112    68 C    1.070    60 C    1.015
    60   6 C    3.959 --    61 C    1.373    67 C    1.368    59 N    1.015
    61   6 C    3.981 --    62 C    1.456    60 C    1.373   135 H    0.966
                            66 C    0.101
    62   6 C    3.986 --    61 C    1.456    63 C    1.389   136 H    0.965
    63   6 C    3.955 --    62 C    1.389    66 C    1.387    64 S    1.029
    64  16 S    2.272 --    63 C    1.029    65 C    1.000
    65   6 C    3.968 --    64 S    1.000   137 H    0.983   138 H    0.981
                           139 H    0.974
    66   6 C    3.987 --    67 C    1.461    63 C    1.387   140 H    0.966
                            61 C    0.101
    67   6 C    3.984 --    66 C    1.461    60 C    1.368   141 H    0.966
    68   6 C    3.964 --    69 C    1.353    75 C    1.342    59 N    1.070
    69   6 C    3.984 --    70 C    1.453    68 C    1.353   142 H    0.966
    70   6 C    3.989 --    69 C    1.453    71 C    1.391   143 H    0.965
    71   6 C    3.950 --    70 C    1.391    74 C    1.369    72 S    1.037
    72  16 S    2.218 --    71 C    1.037    73 C    1.004
    73   6 C    3.973 --    72 S    1.004   146 H    0.982   144 H    0.982
                           145 H    0.978
    74   6 C    3.989 --    75 C    1.480    71 C    1.369   147 H    0.965
    75   6 C    3.980 --    74 C    1.480    68 C    1.342   148 H    0.965
    76   6 C    3.925 --    55 C    1.365    58 C    1.229    77 S    1.118
    77  16 S    2.589 --    76 C    1.118    36 C    1.092
    78   6 C    3.930 --    82 C    1.342    57 C    1.234    79 S    1.124
    79  16 S    2.600 --    78 C    1.124    80 C    1.089
    80   6 C    3.914 --    81 C    1.314    87 C    1.281    79 S    1.089
    81   6 C    3.918 --    80 C    1.314    82 C    1.284    86 O    1.073
    82   6 C    3.902 --    78 C    1.342    81 C    1.284    83 O    1.042
    83   8 O    2.227 --    82 C    1.042    84 C    0.956
    84   6 C    3.932 --    85 C    0.994   149 H    0.967   150 H    0.965
                            83 O    0.956
    85   6 C    3.934 --    84 C    0.994   151 H    0.967   152 H    0.966
                            86 O    0.960
    86   8 O    2.231 --    81 C    1.073    85 C    0.960
    87   6 C    3.950 --    88 C    1.515    80 C    1.281   153 H    0.944
    88   6 C    3.945 --    87 C    1.515    97 C    1.143    89 C    1.023
    89   6 C    3.916 --    90 O    1.734    91 C    1.025    88 C    1.023
    90   8 O    2.011 --    89 C    1.734
    91   6 C    3.969 --    92 C    1.380    96 C    1.304    89 C    1.025
    92   6 C    3.981 --    93 C    1.442    91 C    1.380   154 H    0.964
    93   6 C    3.955 --    92 C    1.442    94 C    1.325   109 C    0.996
    94   6 C    3.964 --    95 C    1.448    93 C    1.325   103 C    0.997
    95   6 C    3.979 --    94 C    1.448    96 C    1.367   155 H    0.958
    96   6 C    3.976 --    95 C    1.367    91 C    1.304    97 C    1.086
    97   6 C    3.972 --    98 C    1.460    88 C    1.143    96 C    1.086
    98   6 C    3.965 --    97 C    1.460    99 C    1.109   101 C    1.098
    99   6 C    3.943 --   100 N    2.750    98 C    1.109
   100   7 N    2.957 --    99 C    2.750
   101   6 C    3.944 --   102 N    2.754    98 C    1.098
   102   7 N    2.965 --   101 C    2.754
   103   6 C    3.984 --    94 C    0.997   109 C    0.977   156 H    0.959
                           104 C    0.948
   104   6 C    3.989 --   105 C    1.010   108 C    0.985   157 H    0.972
                           103 C    0.948
   105   6 C    3.987 --   106 C    1.924   104 C    1.010   158 H    0.971
   106   6 C    3.987 --   105 C    1.924   107 C    1.010   159 H    0.971
   107   6 C    3.989 --   106 C    1.010   108 C    0.985   160 H    0.972
                           109 C    0.947
   108   6 C    3.993 --   104 C    0.985   107 C    0.985   162 H    0.977
                           161 H    0.976
   109   6 C    3.984 --    93 C    0.996   103 C    0.977   163 H    0.959
                           107 C    0.947
   110   1 H    0.991 --     1 C    0.944
   111   1 H    0.996 --     6 C    0.964
   112   1 H    0.996 --     9 C    0.958
   113   1 H    0.996 --    17 C    0.961
   114   1 H    0.998 --    18 C    0.971
   115   1 H    0.998 --    19 C    0.971
   116   1 H    0.998 --    20 C    0.971
   117   1 H    0.998 --    21 C    0.971
   118   1 H    0.999 --    22 C    0.974
   119   1 H    0.998 --    22 C    0.978
   120   1 H    0.996 --    23 C    0.961
   121   1 H    0.997 --    40 C    0.965
   122   1 H    0.996 --    41 C    0.966
   123   1 H    0.991 --    44 C    0.967
   124   1 H    0.997 --    44 C    0.979
   125   1 H    0.995 --    44 C    0.982
   126   1 H    0.997 --    45 C    0.965
   127   1 H    0.998 --    46 C    0.966
   128   1 H    0.997 --    48 C    0.966
   129   1 H    0.996 --    49 C    0.966
   130   1 H    0.995 --    52 C    0.981
   131   1 H    0.994 --    52 C    0.977
   132   1 H    0.995 --    52 C    0.980
   133   1 H    0.997 --    53 C    0.963
   134   1 H    0.998 --    54 C    0.966
   135   1 H    0.997 --    61 C    0.966
   136   1 H    0.996 --    62 C    0.965
   137   1 H    0.995 --    65 C    0.983
   138   1 H    0.996 --    65 C    0.981
   139   1 H    0.993 --    65 C    0.974
   140   1 H    0.995 --    66 C    0.966
   141   1 H    0.997 --    67 C    0.966
   142   1 H    0.998 --    69 C    0.966
   143   1 H    0.997 --    70 C    0.965
   144   1 H    0.996 --    73 C    0.982
   145   1 H    0.995 --    73 C    0.978
   146   1 H    0.997 --    73 C    0.982
   147   1 H    0.997 --    74 C    0.965
   148   1 H    0.997 --    75 C    0.965
   149   1 H    0.995 --    84 C    0.967
   150   1 H    0.992 --    84 C    0.965
   151   1 H    0.992 --    85 C    0.967
   152   1 H    0.994 --    85 C    0.966
   153   1 H    0.990 --    87 C    0.944
   154   1 H    0.996 --    92 C    0.964
   155   1 H    0.996 --    95 C    0.958
   156   1 H    0.996 --   103 C    0.959
   157   1 H    0.998 --   104 C    0.972
   158   1 H    0.999 --   105 C    0.971
   159   1 H    0.999 --   106 C    0.971
   160   1 H    0.998 --   107 C    0.972
   161   1 H    0.996 --   108 C    0.976
   162   1 H    0.998 --   108 C    0.977
   163   1 H    0.995 --   109 C    0.959
 ---------------------------------------------------------------------------

Topologies differ in bond orders
Writing corrected topology to xtbtopo.mol

molecular dipole:
                 x           y           z       tot (Debye)
 q only:        0.941       1.486      -2.055
   full:        0.981       2.160      -2.299       8.396
molecular quadrupole (traceless):
                xx          xy          yy          xz          yz          zz
 q only:       89.487     -68.021      39.103      -8.584     -36.441    -128.590
  q+dip:      105.522     -56.810      30.408       8.578     -49.981    -135.930
   full:      104.806     -49.869      35.690      10.775     -42.616    -140.496


           -------------------------------------------------
          | TOTAL ENERGY             -286.355939278357 Eh   |
          | GRADIENT NORM               0.023045534686 Eh/α |
          | HOMO-LUMO GAP               0.449367592502 eV   |
           -------------------------------------------------

------------------------------------------------------------------------
 * finished run on 2022/02/04 at 16:46:20.681     
------------------------------------------------------------------------
 total:
 * wall-time:     0 d,  0 h,  0 min,  0.725 sec
 *  cpu-time:     0 d,  0 h,  0 min,  5.721 sec
 * ratio c/w:     7.891 speedup
 SCF:
 * wall-time:     0 d,  0 h,  0 min,  0.631 sec
 *  cpu-time:     0 d,  0 h,  0 min,  5.048 sec
 * ratio c/w:     7.994 speedup

