      -----------------------------------------------------------      
     |                   =====================                   |     
     |                           x T B                           |     
     |                   =====================                   |     
     |                         S. Grimme                         |     
     |          Mulliken Center for Theoretical Chemistry        |     
     |                    University of Bonn                     |     
      -----------------------------------------------------------      

   * xtb version 6.4.1 (unknown) compiled by 'oda6@login1.crc.pitt.edu' on 2021-06-25

   xtb is free software: you can redistribute it and/or modify it under
   the terms of the GNU Lesser General Public License as published by
   the Free Software Foundation, either version 3 of the License, or
   (at your option) any later version.
   
   xtb is distributed in the hope that it will be useful,
   but WITHOUT ANY WARRANTY; without even the implied warranty of
   MERCHANTABILITY or FITNESS FOR A PARTICULAR PURPOSE.  See the
   GNU Lesser General Public License for more details.
   
   Cite this work as:
   * C. Bannwarth, E. Caldeweyher, S. Ehlert, A. Hansen, P. Pracht,
     J. Seibert, S. Spicher, S. Grimme, WIREs Comput. Mol. Sci., 2020, 11,
     e01493. DOI: 10.1002/wcms.1493
   
   for GFN2-xTB:
   * C. Bannwarth, S. Ehlert and S. Grimme., J. Chem. Theory Comput., 2019,
     15, 1652-1671. DOI: 10.1021/acs.jctc.8b01176
   for GFN1-xTB:
   * S. Grimme, C. Bannwarth, P. Shushkov, J. Chem. Theory Comput., 2017,
     13, 1989-2009. DOI: 10.1021/acs.jctc.7b00118
   for GFN0-xTB:
   * P. Pracht, E. Caldeweyher, S. Ehlert, S. Grimme, ChemRxiv, 2019, preprint.
     DOI: 10.26434/chemrxiv.8326202.v1
   for GFN-FF:
   * S. Spicher and S. Grimme, Angew. Chem. Int. Ed., 2020, 59, 15665-15673.
     DOI: 10.1002/anie.202004239
   
   for DFT-D4:
   * E. Caldeweyher, C. Bannwarth and S. Grimme, J. Chem. Phys., 2017,
     147, 034112. DOI: 10.1063/1.4993215
   * E. Caldeweyher, S. Ehlert, A. Hansen, H. Neugebauer, S. Spicher,
     C. Bannwarth and S. Grimme, J. Chem. Phys., 2019, 150, 154122.
     DOI: 10.1063/1.5090222
   * E. Caldeweyher, J.-M. Mewes, S. Ehlert and S. Grimme, Phys. Chem. Chem. Phys.
     2020, 22, 8499-8512. DOI: 10.1039/D0CP00502A
   
   for sTDA-xTB:
   * S. Grimme and C. Bannwarth, J. Chem. Phys., 2016, 145, 054103.
     DOI: 10.1063/1.4959605
   
   in the mass-spec context:
   * V. Asgeirsson, C. Bauer and S. Grimme, Chem. Sci., 2017, 8, 4879.
     DOI: 10.1039/c7sc00601b
   * J. Koopman and S. Grimme, ACS Omega 2019, 4, 12, 15120-15133.
     DOI: 10.1021/acsomega.9b02011
   
   for metadynamics refer to:
   * S. Grimme, J. Chem. Theory Comput., 2019, 155, 2847-2862
     DOI: 10.1021/acs.jctc.9b00143
   
   for SPH calculations refer to:
   * S. Spicher and S. Grimme, J. Chem. Theory Comput., 2021, 17, 1701-1714
     DOI: 10.1021/acs.jctc.0c01306
   
   with help from (in alphabetical order)
   P. Atkinson, C. Bannwarth, F. Bohle, G. Brandenburg, E. Caldeweyher
   M. Checinski, S. Dohm, S. Ehlert, S. Ehrlich, I. Gerasimov, J. Koopman
   C. Lavigne, S. Lehtola, F. März, M. Müller, F. Musil, H. Neugebauer
   J. Pisarek, C. Plett, P. Pracht, J. Seibert, P. Shushkov, S. Spicher
   M. Stahn, M. Steiner, T. Strunk, J. Stückrath, T. Rose, and J. Unsleber
   
 * started run on 2022/02/16 at 08:47:00.032     

           -------------------------------------------------
          |                Calculation Setup                |
           -------------------------------------------------

          program call               : /ihome/ghutchison/oda6/xtb/xtb-641/bin/xtb ../../GFN2_output/39_130_13_3_39.mol --sp --alpb hexane
          hostname                   : smp-n25
          coordinate file            : ../../GFN2_output/39_130_13_3_39.mol
          omp threads                :                     8
          number of atoms            :                   171
          number of electrons        :                   532
          charge                     :                     0
          spin                       :                   0.0
          first test random number   :      0.31829889633479

   ID    Z sym.   atoms
    1    6 C      1-3, 5-13, 15, 17-25, 27-30, 32-38, 40-43, 45, 46, 48-51,
                  53-59, 61-64, 66, 67, 69, 71, 73-75, 77-90, 92-100, 102,
                  104-110
    2    8 O      4, 91
    3    7 N      14, 16, 26, 47, 76, 101, 103
    4   16 S      31, 39, 44, 52, 60, 65, 72
    5    9 F      68, 70
    6    1 H      111-171

           -------------------------------------------------
          |                 G F N 2 - x T B                 |
           -------------------------------------------------

        Reference                      10.1021/acs.jctc.8b01176
      * Hamiltonian:
        H0-scaling (s, p, d)           1.850000    2.230000    2.230000
        zeta-weighting                 0.500000
      * Dispersion:
        s8                             2.700000
        a1                             0.520000
        a2                             5.000000
        s9                             5.000000
      * Repulsion:
        kExp                           1.500000    1.000000
        rExp                           1.000000
      * Coulomb:
        alpha                          2.000000
        third order                    shell-resolved
        anisotropic                    true
        a3                             3.000000
        a5                             4.000000
        cn-shift                       1.200000
        cn-exp                         4.000000
        max-rad                        5.000000

      * Solvation model:               ALPB
        Solvent                        hexane
        Parameter file                 internal GFN2-xTB/ALPB
        Dielectric constant                1.8800E+00
        Reference state                gsolv [1 M gas/solution]
        Free energy shift                  4.8134E-03 Eh       3.0204E+00 kcal/mol
        Temperature                        2.9815E+02 K
        Density                            6.6000E-01 kg/L
        Solvent mass                       8.6180E+01 g/mol
        Interaction kernel             P16
        Born radius scaling (c1)           1.1040E+00
        Born radii integrator          GBOBC
        Born offset                        0.0000E+00 a0       0.0000E+00 AA
        H-bond correction              false
        Ion screening                  false
        Surface tension                    1.0000E-05 Eh       1.5569E+01 dyn/cm
        Grid points                               230 per atom

          ...................................................
          :                      SETUP                      :
          :.................................................:
          :  # basis functions                 543          :
          :  # atomic orbitals                 536          :
          :  # shells                          288          :
          :  # electrons                       532          :
          :  max. iterations                   250          :
          :  Hamiltonian                  GFN2-xTB          :
          :  restarted?                      false          :
          :  GBSA solvation                   true          :
          :  PC potential                    false          :
          :  electronic temp.          300.0000000     K    :
          :  accuracy                    1.0000000          :
          :  -> integral cutoff          0.2500000E+02      :
          :  -> integral neglect         0.1000000E-07      :
          :  -> SCF convergence          0.1000000E-05 Eh   :
          :  -> wf. convergence          0.1000000E-03 e    :
          :  Broyden damping             0.4000000          :
          ...................................................

 iter      E             dE          RMSdq      gap      omega  full diag
   1   -293.2941033 -0.293294E+03  0.457E+00    0.96       0.0  T
   2   -293.4810562 -0.186953E+00  0.264E+00    1.06       1.0  T
   3   -293.3707233  0.110333E+00  0.124E+00    0.63       1.0  T
   4   -293.5124467 -0.141723E+00  0.477E-01    0.70       1.0  T
   5   -293.5331608 -0.207141E-01  0.159E-01    0.64       1.0  T
   6   -293.5338845 -0.723716E-03  0.672E-02    0.69       1.0  T
   7   -293.5342321 -0.347554E-03  0.246E-02    0.69       1.0  T
   8   -293.5342543 -0.221635E-04  0.139E-02    0.69       1.0  T
   9   -293.5342653 -0.110918E-04  0.663E-03    0.70       1.2  T
  10   -293.5342671 -0.178766E-05  0.293E-03    0.69       2.6  T
  11   -293.5342677 -0.606532E-06  0.143E-03    0.69       5.3  T
  12   -293.5342678 -0.392444E-07  0.770E-04    0.69       9.9  T
  13   -293.5342678 -0.277927E-07  0.297E-04    0.69      25.7  T

   *** convergence criteria satisfied after 13 iterations ***

         #    Occupation            Energy/Eh            Energy/eV
      -------------------------------------------------------------
         1        2.0000           -0.8430426             -22.9404
       ...           ...                  ...                  ...
       260        2.0000           -0.3843070             -10.4575
       261        2.0000           -0.3747685             -10.1980
       262        2.0000           -0.3742982             -10.1852
       263        2.0000           -0.3715609             -10.1107
       264        2.0000           -0.3673306              -9.9956
       265        2.0000           -0.3613732              -9.8335
       266        2.0000           -0.3520910              -9.5809 (HOMO)
       267        0.0000           -0.3266021              -8.8873 (LUMO)
       268                         -0.3229414              -8.7877
       269                         -0.3151078              -8.5745
       270                         -0.3128374              -8.5127
       271                         -0.2928282              -7.9683
       ...                                ...                  ...
       536                          1.1612477              31.5992
      -------------------------------------------------------------
                  HL-Gap            0.0254889 Eh            0.6936 eV
             Fermi-level           -0.3393565 Eh           -9.2344 eV

 SCC (total)                   0 d,  0 h,  0 min,  1.728 sec
 SCC setup                      ...        0 min,  0.008 sec (  0.475%)
 Dispersion                     ...        0 min,  0.014 sec (  0.839%)
 classical contributions        ...        0 min,  0.001 sec (  0.047%)
 integral evaluation            ...        0 min,  0.043 sec (  2.511%)
 iterations                     ...        0 min,  1.535 sec ( 88.821%)
 molecular gradient             ...        0 min,  0.122 sec (  7.076%)
 printout                       ...        0 min,  0.004 sec (  0.227%)

         :::::::::::::::::::::::::::::::::::::::::::::::::::::
         ::                     SUMMARY                     ::
         :::::::::::::::::::::::::::::::::::::::::::::::::::::
         :: total energy            -288.855091924222 Eh    ::
         :: total w/o Gsasa/hb      -288.760544346390 Eh    ::
         :: gradient norm              0.022261839736 Eh/a0 ::
         :: HOMO-LUMO gap              0.693587021473 eV    ::
         ::.................................................::
         :: SCC energy              -293.534267803776 Eh    ::
         :: -> isotropic ES            0.151671275731 Eh    ::
         :: -> anisotropic ES          0.011471184538 Eh    ::
         :: -> anisotropic XC          0.178218153036 Eh    ::
         :: -> dispersion             -0.297084254887 Eh    ::
         :: -> Gsolv                  -0.119239762078 Eh    ::
         ::    -> Gelec               -0.024692184245 Eh    ::
         ::    -> Gsasa               -0.099360933653 Eh    ::
         ::    -> Ghb                  0.000000000000 Eh    ::
         ::    -> Gshift               0.004813355820 Eh    ::
         :: repulsion energy           4.673870833003 Eh    ::
         :: add. restraining           0.000000000000 Eh    ::
         :: total charge              -0.000000000002 e     ::
         :::::::::::::::::::::::::::::::::::::::::::::::::::::

           -------------------------------------------------
          |                Property Printout                |
           -------------------------------------------------

    * Orbital Energies and Occupations

         #    Occupation            Energy/Eh            Energy/eV
      -------------------------------------------------------------
         1        2.0000           -0.8430426             -22.9404
       ...           ...                  ...                  ...
       254        2.0000           -0.4030972             -10.9688
       255        2.0000           -0.3994000             -10.8682
       256        2.0000           -0.3958274             -10.7710
       257        2.0000           -0.3944072             -10.7324
       258        2.0000           -0.3921035             -10.6697
       259        2.0000           -0.3886864             -10.5767
       260        2.0000           -0.3843070             -10.4575
       261        2.0000           -0.3747685             -10.1980
       262        2.0000           -0.3742982             -10.1852
       263        2.0000           -0.3715609             -10.1107
       264        2.0000           -0.3673306              -9.9956
       265        2.0000           -0.3613732              -9.8335
       266        2.0000           -0.3520910              -9.5809 (HOMO)
       267        0.0000           -0.3266021              -8.8873 (LUMO)
       268                         -0.3229414              -8.7877
       269                         -0.3151078              -8.5745
       270                         -0.3128374              -8.5127
       271                         -0.2928282              -7.9683
       272                         -0.2645635              -7.1991
       273                         -0.2545425              -6.9265
       274                         -0.2525489              -6.8722
       275                         -0.2474895              -6.7345
       276                         -0.2471133              -6.7243
       277                         -0.2456364              -6.6841
       ...                                ...                  ...
       536                          1.1612477              31.5992
      -------------------------------------------------------------
                  HL-Gap            0.0254889 Eh            0.6936 eV
             Fermi-level           -0.3393565 Eh           -9.2344 eV

     #   Z          covCN         q      C6AA      α(0)
     1   6 C        2.970    -0.015    28.370     8.737
     2   6 C        3.011    -0.043    29.060     8.843
     3   6 C        2.876     0.231    23.163     7.890
     4   8 O        0.856    -0.423    22.145     6.309
     5   6 C        3.061    -0.025    28.567     8.765
     6   6 C        2.904    -0.022    28.543     8.760
     7   6 C        3.262     0.012    26.572     8.326
     8   6 C        3.257     0.014    26.589     8.336
     9   6 C        2.904    -0.033    28.816     8.802
    10   6 C        3.053     0.003    27.896     8.662
    11   6 C        3.024     0.034    27.212     8.557
    12   6 C        2.948    -0.005    28.136     8.700
    13   6 C        1.933     0.131    27.892     8.529
    14   7 N        0.911    -0.283    27.293     7.556
    15   6 C        1.936     0.132    27.865     8.525
    16   7 N        0.911    -0.294    27.564     7.593
    17   6 C        4.165    -0.024    20.914     6.495
    18   6 C        4.012    -0.015    20.765     6.473
    19   6 C        2.987    -0.041    29.012     8.836
    20   6 C        2.987    -0.042    29.034     8.839
    21   6 C        4.012    -0.015    20.767     6.474
    22   6 C        3.927    -0.060    21.594     6.604
    23   6 C        4.161    -0.024    20.920     6.496
    24   6 C        2.987     0.006    27.889     8.663
    25   6 C        3.033     0.061    26.598     8.459
    26   7 N        2.746    -0.049    22.195     6.997
    27   6 C        2.923     0.059    26.669     8.469
    28   6 C        2.924    -0.042    29.040     8.837
    29   6 C        2.983    -0.039    28.956     8.827
    30   6 C        2.966     0.046    26.966     8.518
    31  16 S        2.036    -0.164   148.006    20.476
    32   6 C        3.744    -0.054    21.609     6.631
    33   6 C        2.945    -0.044    29.089     8.846
    34   6 C        2.922    -0.046    29.143     8.853
    35   6 C        2.940     0.056    26.754     8.483
    36   6 C        2.928    -0.037    28.920     8.819
    37   6 C        2.948    -0.037    28.911     8.819
    38   6 C        2.966     0.055    26.754     8.484
    39  16 S        2.035    -0.166   148.059    20.480
    40   6 C        3.744    -0.053    21.600     6.630
    41   6 C        2.981    -0.036    28.889     8.817
    42   6 C        2.921    -0.038    28.947     8.823
    43   6 C        3.171     0.001    27.635     8.588
    44  16 S        2.302    -0.041   142.756    20.109
    45   6 C        3.016     0.005    27.885     8.662
    46   6 C        3.054     0.048    26.866     8.500
    47   7 N        2.748    -0.057    22.348     7.021
    48   6 C        2.935     0.059    26.681     8.471
    49   6 C        2.924    -0.050    29.242     8.868
    50   6 C        2.942    -0.045    29.106     8.848
    51   6 C        2.965     0.046    26.963     8.517
    52  16 S        2.035    -0.180   148.686    20.523
    53   6 C        3.745    -0.051    21.565     6.624
    54   6 C        2.985    -0.039    28.953     8.826
    55   6 C        2.922    -0.046    29.133     8.851
    56   6 C        2.933     0.057    26.726     8.478
    57   6 C        2.923    -0.045    29.121     8.849
    58   6 C        2.943    -0.045    29.114     8.849
    59   6 C        2.966     0.049    26.887     8.505
    60  16 S        2.036    -0.180   148.680    20.522
    61   6 C        3.744    -0.052    21.586     6.628
    62   6 C        2.986    -0.036    28.884     8.816
    63   6 C        2.922    -0.041    29.011     8.833
    64   6 C        3.185     0.014    27.236     8.516
    65  16 S        2.292    -0.043   142.817    20.114
    66   6 C        3.023    -0.003    28.078     8.692
    67   6 C        2.987     0.131    25.131     8.223
    68   9 F        0.790    -0.219    11.430     3.994
    69   6 C        2.980     0.135    25.046     8.209
    70   9 F        0.785    -0.225    11.500     4.006
    71   6 C        2.989    -0.002    28.068     8.691
    72  16 S        2.423    -0.006   141.314    20.008
    73   6 C        3.008     0.014    27.689     8.632
    74   6 C        2.914    -0.055    29.357     8.885
    75   6 C        3.085     0.053    26.726     8.475
    76   7 N        2.797    -0.034    21.897     6.950
    77   6 C        3.739     0.000    20.655     6.485
    78   6 C        3.752    -0.116    22.787     6.807
    79   6 C        3.088     0.053    26.711     8.472
    80   6 C        3.071    -0.010    28.194     8.706
    81   6 C        3.073    -0.015    28.315     8.725
    82   6 C        2.909    -0.029    28.715     8.787
    83   6 C        2.928    -0.046    29.143     8.853
    84   6 C        2.908    -0.032    28.795     8.799
    85   6 C        2.928    -0.041    29.028     8.836
    86   6 C        2.974     0.017    27.622     8.621
    87   6 C        2.913    -0.035    28.869     8.811
    88   6 C        2.906    -0.002    28.087     8.690
    89   6 C        3.000    -0.034    28.836     8.809
    90   6 C        2.865     0.237    23.057     7.871
    91   8 O        0.856    -0.415    21.988     6.287
    92   6 C        3.060    -0.021    28.458     8.748
    93   6 C        2.904    -0.022    28.554     8.762
    94   6 C        3.259     0.011    26.623     8.340
    95   6 C        3.256     0.013    26.617     8.343
    96   6 C        2.904    -0.034    28.846     8.807
    97   6 C        3.043     0.007    27.831     8.653
    98   6 C        3.022     0.037    27.146     8.546
    99   6 C        2.947     0.009    27.816     8.650
   100   6 C        1.941     0.134    27.811     8.516
   101   7 N        0.911    -0.266    26.886     7.499
   102   6 C        1.940     0.130    27.895     8.529
   103   7 N        0.911    -0.266    26.881     7.499
   104   6 C        4.162    -0.022    20.881     6.490
   105   6 C        4.013    -0.015    20.767     6.474
   106   6 C        2.995    -0.041    29.016     8.836
   107   6 C        2.995    -0.042    29.037     8.839
   108   6 C        4.013    -0.015    20.764     6.473
   109   6 C        3.915    -0.060    21.583     6.603
   110   6 C        4.160    -0.022    20.883     6.490
   111   1 H        0.925     0.077     2.011     2.218
   112   1 H        0.926     0.056     2.243     2.342
   113   1 H        0.926     0.054     2.268     2.355
   114   1 H        0.925     0.051     2.309     2.376
   115   1 H        0.925     0.039     2.465     2.455
   116   1 H        0.926     0.032     2.561     2.502
   117   1 H        0.926     0.031     2.565     2.505
   118   1 H        0.925     0.037     2.483     2.464
   119   1 H        0.925     0.042     2.423     2.434
   120   1 H        0.925     0.042     2.424     2.435
   121   1 H        0.925     0.051     2.303     2.373
   122   1 H        0.926     0.049     2.338     2.391
   123   1 H        0.926     0.053     2.278     2.360
   124   1 H        0.925     0.073     2.053     2.241
   125   1 H        0.925     0.064     2.147     2.291
   126   1 H        0.925     0.067     2.117     2.275
   127   1 H        0.926     0.051     2.309     2.376
   128   1 H        0.926     0.042     2.416     2.430
   129   1 H        0.926     0.046     2.368     2.406
   130   1 H        0.926     0.056     2.241     2.341
   131   1 H        0.925     0.069     2.099     2.266
   132   1 H        0.925     0.071     2.075     2.253
   133   1 H        0.925     0.061     2.185     2.312
   134   1 H        0.926     0.058     2.218     2.329
   135   1 H        0.926     0.046     2.364     2.404
   136   1 H        0.926     0.035     2.519     2.482
   137   1 H        0.926     0.045     2.379     2.412
   138   1 H        0.925     0.062     2.180     2.309
   139   1 H        0.925     0.061     2.185     2.312
   140   1 H        0.925     0.069     2.092     2.262
   141   1 H        0.926     0.053     2.288     2.365
   142   1 H        0.926     0.050     2.316     2.380
   143   1 H        0.926     0.044     2.391     2.418
   144   1 H        0.926     0.048     2.345     2.395
   145   1 H        0.925     0.070     2.086     2.259
   146   1 H        0.925     0.063     2.164     2.301
   147   1 H        0.925     0.063     2.164     2.300
   148   1 H        0.926     0.054     2.270     2.356
   149   1 H        0.926     0.046     2.372     2.408
   150   1 H        0.926     0.052     2.298     2.371
   151   1 H        0.924     0.055     2.253     2.347
   152   1 H        0.924     0.059     2.212     2.326
   153   1 H        0.925     0.044     2.394     2.420
   154   1 H        0.925     0.048     2.341     2.393
   155   1 H        0.925     0.065     2.136     2.286
   156   1 H        0.926     0.048     2.341     2.392
   157   1 H        0.926     0.047     2.363     2.404
   158   1 H        0.926     0.046     2.375     2.410
   159   1 H        0.926     0.042     2.424     2.435
   160   1 H        0.926     0.061     2.190     2.314
   161   1 H        0.925     0.067     2.120     2.277
   162   1 H        0.926     0.061     2.182     2.310
   163   1 H        0.926     0.058     2.220     2.330
   164   1 H        0.925     0.046     2.371     2.408
   165   1 H        0.925     0.041     2.440     2.443
   166   1 H        0.926     0.039     2.464     2.454
   167   1 H        0.926     0.038     2.472     2.459
   168   1 H        0.925     0.039     2.462     2.454
   169   1 H        0.925     0.041     2.437     2.441
   170   1 H        0.925     0.035     2.514     2.479
   171   1 H        0.925     0.045     2.377     2.411

 Mol. C6AA /au·bohr⁶  :     492856.534621
 Mol. C8AA /au·bohr⁸  :   13663586.626663
 Mol. α(0) /au        :       1120.632086


Wiberg/Mayer (AO) data.
largest (>0.10) Wiberg bond orders for each atom

 ---------------------------------------------------------------------------
     #   Z sym  total        # sym  WBO       # sym  WBO       # sym  WBO
 ---------------------------------------------------------------------------
     1   6 C    3.950 --     2 C    1.484    24 C    1.306   111 H    0.948
     2   6 C    3.954 --     1 C    1.484    11 C    1.167     3 C    1.028
     3   6 C    3.918 --     4 O    1.732     2 C    1.028     5 C    1.026
     4   8 O    2.000 --     3 C    1.732
     5   6 C    3.973 --     6 C    1.380    10 C    1.309     3 C    1.026
     6   6 C    3.983 --     7 C    1.441     5 C    1.380   112 H    0.963
     7   6 C    3.956 --     6 C    1.441     8 C    1.326    23 C    0.996
     8   6 C    3.965 --     9 C    1.446     7 C    1.326    17 C    0.997
     9   6 C    3.979 --     8 C    1.446    10 C    1.369   113 H    0.960
    10   6 C    3.982 --     9 C    1.369     5 C    1.309    11 C    1.082
    11   6 C    3.977 --    12 C    1.425     2 C    1.167    10 C    1.082
    12   6 C    3.962 --    11 C    1.425    15 C    1.117    13 C    1.112
    13   6 C    3.943 --    14 N    2.742    12 C    1.112
    14   7 N    2.956 --    13 C    2.742
    15   6 C    3.941 --    16 N    2.731    12 C    1.117
    16   7 N    2.958 --    15 C    2.731
    17   6 C    3.985 --     8 C    0.997    23 C    0.977   114 H    0.959
                            18 C    0.947
    18   6 C    3.989 --    19 C    1.010    22 C    0.985   115 H    0.972
                            17 C    0.947
    19   6 C    3.987 --    20 C    1.924    18 C    1.010   116 H    0.971
    20   6 C    3.987 --    19 C    1.924    21 C    1.010   117 H    0.971
    21   6 C    3.989 --    20 C    1.010    22 C    0.985   118 H    0.972
                            23 C    0.947
    22   6 C    3.993 --    21 C    0.985    18 C    0.985   120 H    0.977
                           119 H    0.977
    23   6 C    3.984 --     7 C    0.996    17 C    0.977   121 H    0.959
                            21 C    0.947
    24   6 C    3.917 --    25 C    1.311     1 C    1.306    65 S    1.063
    25   6 C    3.949 --    24 C    1.311    43 C    1.230    26 N    1.154
    26   7 N    3.543 --    25 C    1.154    27 C    1.063    35 C    1.006
    27   6 C    3.960 --    34 C    1.360    28 C    1.334    26 N    1.063
    28   6 C    3.984 --    29 C    1.490    27 C    1.334   122 H    0.964
    29   6 C    3.988 --    28 C    1.490    30 C    1.354   123 H    0.966
    30   6 C    3.955 --    33 C    1.385    29 C    1.354    31 S    1.060
    31  16 S    2.266 --    30 C    1.060    32 C    1.008
    32   6 C    3.970 --    31 S    1.008   125 H    0.981   126 H    0.977
                           124 H    0.977
    33   6 C    3.986 --    34 C    1.451    30 C    1.385   127 H    0.964
    34   6 C    3.983 --    33 C    1.451    27 C    1.360   128 H    0.965
    35   6 C    3.957 --    36 C    1.377    42 C    1.363    26 N    1.006
    36   6 C    3.985 --    37 C    1.445    35 C    1.377   129 H    0.963
    37   6 C    3.987 --    36 C    1.445    38 C    1.389   130 H    0.964
    38   6 C    3.957 --    37 C    1.389    41 C    1.367    39 S    1.059
    39  16 S    2.254 --    38 C    1.059    40 C    1.005
    40   6 C    3.971 --    39 S    1.005   133 H    0.981   131 H    0.981
                           132 H    0.978
    41   6 C    3.988 --    42 C    1.476    38 C    1.367   134 H    0.966
    42   6 C    3.982 --    41 C    1.476    35 C    1.363   135 H    0.966
    43   6 C    3.933 --    64 C    1.365    25 C    1.230    44 S    1.109
    44  16 S    2.576 --    43 C    1.109    45 C    1.090
    45   6 C    3.912 --    46 C    1.381    66 C    1.200    44 S    1.090
    46   6 C    3.953 --    45 C    1.381    64 C    1.228    47 N    1.093
    47   7 N    3.503 --    46 C    1.093    48 C    1.068    56 C    1.035
    48   6 C    3.963 --    49 C    1.359    55 C    1.331    47 N    1.068
    49   6 C    3.984 --    50 C    1.448    48 C    1.359   136 H    0.967
    50   6 C    3.989 --    49 C    1.448    51 C    1.390   137 H    0.964
    51   6 C    3.954 --    50 C    1.390    54 C    1.356    52 S    1.050
    52  16 S    2.253 --    51 C    1.050    53 C    1.009
    53   6 C    3.974 --    52 S    1.009   138 H    0.981   139 H    0.981
                           140 H    0.977
    54   6 C    3.989 --    55 C    1.489    51 C    1.356   141 H    0.966
    55   6 C    3.981 --    54 C    1.489    48 C    1.331   142 H    0.965
    56   6 C    3.960 --    57 C    1.374    63 C    1.353    47 N    1.035
    57   6 C    3.981 --    58 C    1.450    56 C    1.374   143 H    0.966
                            62 C    0.101
    58   6 C    3.988 --    57 C    1.450    59 C    1.386   144 H    0.964
    59   6 C    3.952 --    58 C    1.386    62 C    1.365    60 S    1.053
    60  16 S    2.257 --    59 C    1.053    61 C    1.009
    61   6 C    3.973 --    60 S    1.009   147 H    0.981   146 H    0.981
                           145 H    0.977
    62   6 C    3.989 --    63 C    1.478    59 C    1.365   148 H    0.966
                            57 C    0.101
    63   6 C    3.983 --    62 C    1.478    56 C    1.353   149 H    0.966
    64   6 C    3.936 --    43 C    1.365    46 C    1.228    65 S    1.124
    65  16 S    2.519 --    64 C    1.124    24 C    1.063
    66   6 C    3.936 --    67 C    1.398    45 C    1.200    72 S    1.123
    67   6 C    3.837 --    66 C    1.398    69 C    1.276    68 F    0.950
    68   9 F    1.101 --    67 C    0.950
    69   6 C    3.859 --    71 C    1.433    67 C    1.276    70 F    0.952
    70   9 F    1.084 --    69 C    0.952
    71   6 C    3.919 --    69 C    1.433    72 S    1.134    73 C    1.118
    72  16 S    2.623 --    71 C    1.134    66 C    1.123
    73   6 C    3.955 --    74 C    1.388    83 C    1.302    71 C    1.118
    74   6 C    3.969 --    73 C    1.388    75 C    1.365   150 H    0.962
    75   6 C    3.955 --    74 C    1.365    81 C    1.229    76 N    1.167
    76   7 N    3.576 --    75 C    1.167    79 C    1.155    77 C    0.987
    77   6 C    3.968 --    78 C    1.006    76 N    0.987   152 H    0.968
                           151 H    0.968
    78   6 C    3.988 --    77 C    1.006   153 H    0.987   154 H    0.984
                           155 H    0.982
    79   6 C    3.959 --    87 C    1.380    80 C    1.229    76 N    1.155
    80   6 C    3.970 --    84 C    1.330    79 C    1.229    81 C    1.185
    81   6 C    3.965 --    82 C    1.335    75 C    1.229    80 C    1.185
    82   6 C    3.975 --    83 C    1.514    81 C    1.335   156 H    0.967
    83   6 C    3.970 --    82 C    1.514    73 C    1.302   157 H    0.957
    84   6 C    3.975 --    85 C    1.522    80 C    1.330   158 H    0.967
    85   6 C    3.968 --    84 C    1.522    86 C    1.286   159 H    0.969
    86   6 C    3.964 --    87 C    1.366    85 C    1.286    88 C    1.163
    87   6 C    3.967 --    79 C    1.380    86 C    1.366   160 H    0.960
    88   6 C    3.941 --    89 C    1.601    86 C    1.163   161 H    0.945
    89   6 C    3.966 --    88 C    1.601    98 C    1.117    90 C    1.023
    90   6 C    3.914 --    91 O    1.736    92 C    1.031    89 C    1.023
    91   8 O    2.027 --    90 C    1.736
    92   6 C    3.973 --    93 C    1.374    97 C    1.307    90 C    1.031
    93   6 C    3.981 --    94 C    1.447    92 C    1.374   162 H    0.963
    94   6 C    3.955 --    93 C    1.447    95 C    1.319   110 C    0.993
    95   6 C    3.966 --    96 C    1.455    94 C    1.319   104 C    0.994
    96   6 C    3.978 --    95 C    1.455    97 C    1.358   163 H    0.959
    97   6 C    3.982 --    96 C    1.358    92 C    1.307    98 C    1.096
    98   6 C    3.974 --    99 C    1.491    89 C    1.117    97 C    1.096
    99   6 C    3.960 --    98 C    1.491   100 C    1.098   102 C    1.096
   100   6 C    3.943 --   101 N    2.758    99 C    1.098
   101   7 N    2.965 --   100 C    2.758
   102   6 C    3.944 --   103 N    2.755    99 C    1.096
   103   7 N    2.961 --   102 C    2.755
   104   6 C    3.984 --    95 C    0.994   110 C    0.975   164 H    0.961
                           105 C    0.950
   105   6 C    3.989 --   106 C    1.004   109 C    0.989   165 H    0.971
                           104 C    0.950
   106   6 C    3.982 --   107 C    1.923   105 C    1.004   166 H    0.971
   107   6 C    3.982 --   106 C    1.923   108 C    1.004   167 H    0.971
   108   6 C    3.988 --   107 C    1.004   109 C    0.989   168 H    0.971
                           110 C    0.950
   109   6 C    3.994 --   108 C    0.989   105 C    0.989   169 H    0.978
                           170 H    0.974
   110   6 C    3.983 --    94 C    0.993   104 C    0.975   171 H    0.961
                           108 C    0.950
   111   1 H    0.991 --     1 C    0.948
   112   1 H    0.996 --     6 C    0.963
   113   1 H    0.997 --     9 C    0.960
   114   1 H    0.996 --    17 C    0.959
   115   1 H    0.998 --    18 C    0.972
   116   1 H    0.999 --    19 C    0.971
   117   1 H    0.999 --    20 C    0.971
   118   1 H    0.998 --    21 C    0.972
   119   1 H    0.996 --    22 C    0.977
   120   1 H    0.998 --    22 C    0.977
   121   1 H    0.995 --    23 C    0.959
   122   1 H    0.997 --    28 C    0.964
   123   1 H    0.997 --    29 C    0.966
   124   1 H    0.994 --    32 C    0.977
   125   1 H    0.995 --    32 C    0.981
   126   1 H    0.995 --    32 C    0.977
   127   1 H    0.997 --    33 C    0.964
   128   1 H    0.998 --    34 C    0.965
   129   1 H    0.998 --    36 C    0.963
   130   1 H    0.996 --    37 C    0.964
   131   1 H    0.995 --    40 C    0.981
   132   1 H    0.994 --    40 C    0.978
   133   1 H    0.996 --    40 C    0.981
   134   1 H    0.996 --    41 C    0.966
   135   1 H    0.997 --    42 C    0.966
   136   1 H    0.999 --    49 C    0.967
   137   1 H    0.997 --    50 C    0.964
   138   1 H    0.996 --    53 C    0.981
   139   1 H    0.996 --    53 C    0.981
   140   1 H    0.995 --    53 C    0.977
   141   1 H    0.997 --    54 C    0.966
   142   1 H    0.997 --    55 C    0.965
   143   1 H    0.998 --    57 C    0.966
   144   1 H    0.997 --    58 C    0.964
   145   1 H    0.995 --    61 C    0.977
   146   1 H    0.996 --    61 C    0.981
   147   1 H    0.996 --    61 C    0.981
   148   1 H    0.996 --    62 C    0.966
   149   1 H    0.997 --    63 C    0.966
   150   1 H    0.997 --    74 C    0.962
   151   1 H    0.996 --    77 C    0.968
   152   1 H    0.996 --    77 C    0.968
   153   1 H    0.998 --    78 C    0.987
   154   1 H    0.997 --    78 C    0.984
   155   1 H    0.996 --    78 C    0.982
   156   1 H    0.997 --    82 C    0.967
   157   1 H    0.997 --    83 C    0.957
   158   1 H    0.997 --    84 C    0.967
   159   1 H    0.998 --    85 C    0.969
   160   1 H    0.996 --    87 C    0.960
   161   1 H    0.994 --    88 C    0.945
   162   1 H    0.996 --    93 C    0.963
   163   1 H    0.996 --    96 C    0.959
   164   1 H    0.996 --   104 C    0.961
   165   1 H    0.998 --   105 C    0.971
   166   1 H    0.998 --   106 C    0.971
   167   1 H    0.998 --   107 C    0.971
   168   1 H    0.998 --   108 C    0.971
   169   1 H    0.998 --   109 C    0.978
   170   1 H    0.999 --   109 C    0.974
   171   1 H    0.996 --   110 C    0.961
 ---------------------------------------------------------------------------

Topologies differ in bond orders
Writing corrected topology to xtbtopo.mol

molecular dipole:
                 x           y           z       tot (Debye)
 q only:        0.662      -0.128      -0.822
   full:        0.966      -0.420      -1.145       3.955
molecular quadrupole (traceless):
                xx          xy          yy          xz          yz          zz
 q only:      101.848     -38.959      10.779     -27.847     -17.124    -112.627
  q+dip:      124.879     -58.941      13.379     -23.098     -10.476    -138.257
   full:      125.490     -51.657      14.311     -16.953      -5.170    -139.801


           -------------------------------------------------
          | TOTAL ENERGY             -288.855091924222 Eh   |
          | GRADIENT NORM               0.022261839736 Eh/α |
          | HOMO-LUMO GAP               0.693587021473 eV   |
           -------------------------------------------------

------------------------------------------------------------------------
 * finished run on 2022/02/16 at 08:47:01.860     
------------------------------------------------------------------------
 total:
 * wall-time:     0 d,  0 h,  0 min,  1.827 sec
 *  cpu-time:     0 d,  0 h,  0 min,  8.651 sec
 * ratio c/w:     4.734 speedup
 SCF:
 * wall-time:     0 d,  0 h,  0 min,  1.731 sec
 *  cpu-time:     0 d,  0 h,  0 min,  8.227 sec
 * ratio c/w:     4.753 speedup

