      -----------------------------------------------------------      
     |                   =====================                   |     
     |                           x T B                           |     
     |                   =====================                   |     
     |                         S. Grimme                         |     
     |          Mulliken Center for Theoretical Chemistry        |     
     |                    University of Bonn                     |     
      -----------------------------------------------------------      

   * xtb version 6.4.1 (unknown) compiled by 'oda6@login1.crc.pitt.edu' on 2021-06-25

   xtb is free software: you can redistribute it and/or modify it under
   the terms of the GNU Lesser General Public License as published by
   the Free Software Foundation, either version 3 of the License, or
   (at your option) any later version.
   
   xtb is distributed in the hope that it will be useful,
   but WITHOUT ANY WARRANTY; without even the implied warranty of
   MERCHANTABILITY or FITNESS FOR A PARTICULAR PURPOSE.  See the
   GNU Lesser General Public License for more details.
   
   Cite this work as:
   * C. Bannwarth, E. Caldeweyher, S. Ehlert, A. Hansen, P. Pracht,
     J. Seibert, S. Spicher, S. Grimme, WIREs Comput. Mol. Sci., 2020, 11,
     e01493. DOI: 10.1002/wcms.1493
   
   for GFN2-xTB:
   * C. Bannwarth, S. Ehlert and S. Grimme., J. Chem. Theory Comput., 2019,
     15, 1652-1671. DOI: 10.1021/acs.jctc.8b01176
   for GFN1-xTB:
   * S. Grimme, C. Bannwarth, P. Shushkov, J. Chem. Theory Comput., 2017,
     13, 1989-2009. DOI: 10.1021/acs.jctc.7b00118
   for GFN0-xTB:
   * P. Pracht, E. Caldeweyher, S. Ehlert, S. Grimme, ChemRxiv, 2019, preprint.
     DOI: 10.26434/chemrxiv.8326202.v1
   for GFN-FF:
   * S. Spicher and S. Grimme, Angew. Chem. Int. Ed., 2020, 59, 15665-15673.
     DOI: 10.1002/anie.202004239
   
   for DFT-D4:
   * E. Caldeweyher, C. Bannwarth and S. Grimme, J. Chem. Phys., 2017,
     147, 034112. DOI: 10.1063/1.4993215
   * E. Caldeweyher, S. Ehlert, A. Hansen, H. Neugebauer, S. Spicher,
     C. Bannwarth and S. Grimme, J. Chem. Phys., 2019, 150, 154122.
     DOI: 10.1063/1.5090222
   * E. Caldeweyher, J.-M. Mewes, S. Ehlert and S. Grimme, Phys. Chem. Chem. Phys.
     2020, 22, 8499-8512. DOI: 10.1039/D0CP00502A
   
   for sTDA-xTB:
   * S. Grimme and C. Bannwarth, J. Chem. Phys., 2016, 145, 054103.
     DOI: 10.1063/1.4959605
   
   in the mass-spec context:
   * V. Asgeirsson, C. Bauer and S. Grimme, Chem. Sci., 2017, 8, 4879.
     DOI: 10.1039/c7sc00601b
   * J. Koopman and S. Grimme, ACS Omega 2019, 4, 12, 15120-15133.
     DOI: 10.1021/acsomega.9b02011
   
   for metadynamics refer to:
   * S. Grimme, J. Chem. Theory Comput., 2019, 155, 2847-2862
     DOI: 10.1021/acs.jctc.9b00143
   
   for SPH calculations refer to:
   * S. Spicher and S. Grimme, J. Chem. Theory Comput., 2021, 17, 1701-1714
     DOI: 10.1021/acs.jctc.0c01306
   
   with help from (in alphabetical order)
   P. Atkinson, C. Bannwarth, F. Bohle, G. Brandenburg, E. Caldeweyher
   M. Checinski, S. Dohm, S. Ehlert, S. Ehrlich, I. Gerasimov, J. Koopman
   C. Lavigne, S. Lehtola, F. März, M. Müller, F. Musil, H. Neugebauer
   J. Pisarek, C. Plett, P. Pracht, J. Seibert, P. Shushkov, S. Spicher
   M. Stahn, M. Steiner, T. Strunk, J. Stückrath, T. Rose, and J. Unsleber
   
 * started run on 2022/02/13 at 21:25:29.718     

           -------------------------------------------------
          |                Calculation Setup                |
           -------------------------------------------------

          program call               : /ihome/ghutchison/oda6/xtb/xtb-641/bin/xtb ../../GFN2_output/39_130_130_130_34.mol --sp --alpb hexane
          hostname                   : smp-n25
          coordinate file            : ../../GFN2_output/39_130_130_130_34.mol
          omp threads                :                     8
          number of atoms            :                   265
          number of electrons        :                   816
          charge                     :                     0
          spin                       :                   0.0
          first test random number   :      0.53985812137273

   ID    Z sym.   atoms
    1    6 C      1-3, 5-13, 15, 17-25, 27-30, 32-38, 40-43, 45, 46, 48-51,
                  53-59, 61-64, 66, 67, 69-72, 74-80, 82-85, 87, 88, 90-93,
                  95-101, 103-106, 108, 109, 111-114, 116-122, 124-127, 129,
                  130, 132-135, 137-143, 145-148, 150-152, 154, 155, 157-163,
                  165
    2    8 O      4, 153
    3    7 N      14, 16, 26, 47, 68, 89, 110, 131, 164, 166
    4   16 S      31, 39, 44, 52, 60, 65, 73, 81, 86, 94, 102, 107, 115, 123,
                  128, 136, 144, 149
    5   17 Cl     156
    6    1 H      167-265

           -------------------------------------------------
          |                 G F N 2 - x T B                 |
           -------------------------------------------------

        Reference                      10.1021/acs.jctc.8b01176
      * Hamiltonian:
        H0-scaling (s, p, d)           1.850000    2.230000    2.230000
        zeta-weighting                 0.500000
      * Dispersion:
        s8                             2.700000
        a1                             0.520000
        a2                             5.000000
        s9                             5.000000
      * Repulsion:
        kExp                           1.500000    1.000000
        rExp                           1.000000
      * Coulomb:
        alpha                          2.000000
        third order                    shell-resolved
        anisotropic                    true
        a3                             3.000000
        a5                             4.000000
        cn-shift                       1.200000
        cn-exp                         4.000000
        max-rad                        5.000000

      * Solvation model:               ALPB
        Solvent                        hexane
        Parameter file                 internal GFN2-xTB/ALPB
        Dielectric constant                1.8800E+00
        Reference state                gsolv [1 M gas/solution]
        Free energy shift                  4.8134E-03 Eh       3.0204E+00 kcal/mol
        Temperature                        2.9815E+02 K
        Density                            6.6000E-01 kg/L
        Solvent mass                       8.6180E+01 g/mol
        Interaction kernel             P16
        Born radius scaling (c1)           1.1040E+00
        Born radii integrator          GBOBC
        Born offset                        0.0000E+00 a0       0.0000E+00 AA
        H-bond correction              false
        Ion screening                  false
        Surface tension                    1.0000E-05 Eh       1.5569E+01 dyn/cm
        Grid points                               230 per atom

          ...................................................
          :                      SETUP                      :
          :.................................................:
          :  # basis functions                 877          :
          :  # atomic orbitals                 858          :
          :  # shells                          450          :
          :  # electrons                       816          :
          :  max. iterations                   250          :
          :  Hamiltonian                  GFN2-xTB          :
          :  restarted?                      false          :
          :  GBSA solvation                   true          :
          :  PC potential                    false          :
          :  electronic temp.          300.0000000     K    :
          :  accuracy                    1.0000000          :
          :  -> integral cutoff          0.2500000E+02      :
          :  -> integral neglect         0.1000000E-07      :
          :  -> SCF convergence          0.1000000E-05 Eh   :
          :  -> wf. convergence          0.1000000E-03 e    :
          :  Broyden damping             0.4000000          :
          ...................................................

 iter      E             dE          RMSdq      gap      omega  full diag
   1   -446.6492137 -0.446649E+03  0.479E+00    0.81       0.0  T
   2   -446.9301619 -0.280948E+00  0.271E+00    0.89       1.0  T
   3   -446.6990672  0.231095E+00  0.124E+00    0.30       1.0  T
   4   -446.9624258 -0.263359E+00  0.550E-01    0.69       1.0  T
   5   -447.0098519 -0.474261E-01  0.189E-01    0.57       1.0  T
   6   -447.0110014 -0.114952E-02  0.799E-02    0.61       1.0  T
   7   -447.0117303 -0.728866E-03  0.355E-02    0.59       1.0  T
   8   -447.0118132 -0.829195E-04  0.231E-02    0.60       1.0  T
   9   -447.0118666 -0.534055E-04  0.139E-02    0.60       1.0  T
  10   -447.0118801 -0.134782E-04  0.829E-03    0.60       1.0  T
  11   -447.0118850 -0.489194E-05  0.624E-03    0.60       1.0  T
  12   -447.0118879 -0.294259E-05  0.427E-03    0.60       1.4  T
  13   -447.0118902 -0.226090E-05  0.241E-03    0.60       2.5  T
  14   -447.0118908 -0.666268E-06  0.133E-03    0.60       4.6  T
  15   -447.0118910 -0.152639E-06  0.767E-04    0.60       8.0  T
  16   -447.0118910 -0.482501E-07  0.387E-04    0.60      15.9  T

   *** convergence criteria satisfied after 16 iterations ***

         #    Occupation            Energy/Eh            Energy/eV
      -------------------------------------------------------------
         1        2.0000           -1.0663200             -29.0160
       ...           ...                  ...                  ...
       402        2.0000           -0.3643228              -9.9137
       403        2.0000           -0.3605645              -9.8115
       404        2.0000           -0.3570238              -9.7151
       405        2.0000           -0.3541668              -9.6374
       406        2.0000           -0.3537755              -9.6267
       407        2.0000           -0.3502714              -9.5314
       408        2.0000           -0.3474126              -9.4536 (HOMO)
       409        0.0000           -0.3253618              -8.8535 (LUMO)
       410        0.0000           -0.3213843              -8.7453
       411                         -0.3147991              -8.5661
       412                         -0.3111889              -8.4679
       413                         -0.2904373              -7.9032
       ...                                ...                  ...
       858                          1.1598953              31.5624
      -------------------------------------------------------------
                  HL-Gap            0.0220508 Eh            0.6000 eV
             Fermi-level           -0.3363706 Eh           -9.1531 eV

 SCC (total)                   0 d,  0 h,  0 min,  4.879 sec
 SCC setup                      ...        0 min,  0.014 sec (  0.277%)
 Dispersion                     ...        0 min,  0.025 sec (  0.516%)
 classical contributions        ...        0 min,  0.001 sec (  0.020%)
 integral evaluation            ...        0 min,  0.107 sec (  2.190%)
 iterations                     ...        0 min,  4.357 sec ( 89.298%)
 molecular gradient             ...        0 min,  0.366 sec (  7.492%)
 printout                       ...        0 min,  0.010 sec (  0.205%)

         :::::::::::::::::::::::::::::::::::::::::::::::::::::
         ::                     SUMMARY                     ::
         :::::::::::::::::::::::::::::::::::::::::::::::::::::
         :: total energy            -440.013391966427 Eh    ::
         :: total w/o Gsasa/hb      -439.876061138993 Eh    ::
         :: gradient norm              0.024535681456 Eh/a0 ::
         :: HOMO-LUMO gap              0.600034073567 eV    ::
         ::.................................................::
         :: SCC energy              -447.011891048969 Eh    ::
         :: -> isotropic ES            0.164318958492 Eh    ::
         :: -> anisotropic ES          0.013768472653 Eh    ::
         :: -> anisotropic XC          0.273672714892 Eh    ::
         :: -> dispersion             -0.528324272995 Eh    ::
         :: -> Gsolv                  -0.167638326656 Eh    ::
         ::    -> Gelec               -0.030307499222 Eh    ::
         ::    -> Gsasa               -0.142144183254 Eh    ::
         ::    -> Ghb                  0.000000000000 Eh    ::
         ::    -> Gshift               0.004813355820 Eh    ::
         :: repulsion energy           6.968465777256 Eh    ::
         :: add. restraining           0.000000000000 Eh    ::
         :: total charge               0.000000000068 e     ::
         :::::::::::::::::::::::::::::::::::::::::::::::::::::

           -------------------------------------------------
          |                Property Printout                |
           -------------------------------------------------

    * Orbital Energies and Occupations

         #    Occupation            Energy/Eh            Energy/eV
      -------------------------------------------------------------
         1        2.0000           -1.0663200             -29.0160
       ...           ...                  ...                  ...
       396        2.0000           -0.3725114             -10.1366
       397        2.0000           -0.3716376             -10.1128
       398        2.0000           -0.3695046             -10.0547
       399        2.0000           -0.3679803             -10.0133
       400        2.0000           -0.3669227              -9.9845
       401        2.0000           -0.3655035              -9.9459
       402        2.0000           -0.3643228              -9.9137
       403        2.0000           -0.3605645              -9.8115
       404        2.0000           -0.3570238              -9.7151
       405        2.0000           -0.3541668              -9.6374
       406        2.0000           -0.3537755              -9.6267
       407        2.0000           -0.3502714              -9.5314
       408        2.0000           -0.3474126              -9.4536 (HOMO)
       409        0.0000           -0.3253618              -8.8535 (LUMO)
       410        0.0000           -0.3213843              -8.7453
       411                         -0.3147991              -8.5661
       412                         -0.3111889              -8.4679
       413                         -0.2904373              -7.9032
       414                         -0.2702135              -7.3529
       415                         -0.2626227              -7.1463
       416                         -0.2530376              -6.8855
       417                         -0.2519056              -6.8547
       418                         -0.2497517              -6.7961
       419                         -0.2479171              -6.7462
       ...                                ...                  ...
       858                          1.1598953              31.5624
      -------------------------------------------------------------
                  HL-Gap            0.0220508 Eh            0.6000 eV
             Fermi-level           -0.3363706 Eh           -9.1531 eV

     #   Z          covCN         q      C6AA      α(0)
     1   6 C        2.923    -0.015    28.384     8.737
     2   6 C        3.009    -0.043    29.043     8.840
     3   6 C        2.875     0.233    23.121     7.883
     4   8 O        0.930    -0.411    21.860     6.270
     5   6 C        3.062    -0.021    28.471     8.750
     6   6 C        2.904    -0.023    28.578     8.766
     7   6 C        3.260     0.009    26.644     8.340
     8   6 C        3.256     0.011    26.656     8.349
     9   6 C        2.904    -0.033    28.825     8.803
    10   6 C        3.052     0.005    27.859     8.656
    11   6 C        3.024     0.034    27.210     8.556
    12   6 C        2.947    -0.001    28.052     8.687
    13   6 C        1.951     0.134    27.799     8.515
    14   7 N        0.911    -0.280    27.219     7.546
    15   6 C        1.951     0.128    27.944     8.537
    16   7 N        0.911    -0.288    27.420     7.573
    17   6 C        4.162    -0.022    20.881     6.490
    18   6 C        4.013    -0.015    20.767     6.474
    19   6 C        2.995    -0.042    29.025     8.837
    20   6 C        2.995    -0.042    29.034     8.839
    21   6 C        4.013    -0.015    20.769     6.474
    22   6 C        3.915    -0.059    21.577     6.602
    23   6 C        4.161    -0.022    20.876     6.489
    24   6 C        2.986     0.005    27.893     8.663
    25   6 C        3.045     0.058    26.657     8.468
    26   7 N        2.748    -0.043    22.081     6.979
    27   6 C        2.926     0.056    26.739     8.480
    28   6 C        2.921    -0.045    29.127     8.850
    29   6 C        2.984    -0.040    28.986     8.831
    30   6 C        2.965     0.046    26.966     8.518
    31  16 S        2.035    -0.183   148.806    20.531
    32   6 C        3.745    -0.047    21.495     6.614
    33   6 C        2.944    -0.041    29.028     8.836
    34   6 C        2.923    -0.041    29.027     8.835
    35   6 C        2.931     0.059    26.686     8.472
    36   6 C        2.922    -0.038    28.954     8.824
    37   6 C        2.988    -0.038    28.941     8.825
    38   6 C        2.966     0.051    26.864     8.502
    39  16 S        2.037    -0.169   148.215    20.490
    40   6 C        3.744    -0.054    21.611     6.632
    41   6 C        2.942    -0.044    29.089     8.846
    42   6 C        2.923    -0.043    29.077     8.843
    43   6 C        3.147     0.002    27.704     8.611
    44  16 S        2.236    -0.071   144.011    20.198
    45   6 C        3.068    -0.000    27.962     8.671
    46   6 C        3.080     0.051    26.778     8.484
    47   7 N        2.750    -0.075    22.693     7.075
    48   6 C        2.934     0.062    26.621     8.462
    49   6 C        2.922    -0.044    29.104     8.847
    50   6 C        2.951    -0.039    28.961     8.827
    51   6 C        2.967     0.056    26.732     8.481
    52  16 S        2.029    -0.195   149.323    20.567
    53   6 C        3.744    -0.047    21.487     6.613
    54   6 C        2.971    -0.028    28.696     8.787
    55   6 C        2.924    -0.040    28.986     8.829
    56   6 C        2.921     0.061    26.641     8.464
    57   6 C        2.925    -0.050    29.247     8.869
    58   6 C        2.941    -0.044    29.100     8.847
    59   6 C        2.965     0.044    27.019     8.526
    60  16 S        2.029    -0.197   149.432    20.574
    61   6 C        3.744    -0.044    21.434     6.604
    62   6 C        2.980    -0.036    28.897     8.818
    63   6 C        2.921    -0.048    29.180     8.858
    64   6 C        3.164    -0.002    27.742     8.608
    65  16 S        2.287    -0.019   141.842    20.045
    66   6 C        3.012    -0.011    28.264     8.721
    67   6 C        3.034     0.053    26.770     8.487
    68   7 N        2.748    -0.072    22.630     7.065
    69   6 C        2.929     0.059    26.687     8.472
    70   6 C        2.921    -0.041    29.008     8.832
    71   6 C        2.978    -0.037    28.915     8.820
    72   6 C        2.966     0.049    26.890     8.506
    73  16 S        2.031    -0.182   148.766    20.528
    74   6 C        3.744    -0.051    21.562     6.624
    75   6 C        2.946    -0.044    29.091     8.846
    76   6 C        2.926    -0.045    29.119     8.849
    77   6 C        2.935     0.060    26.654     8.467
    78   6 C        2.939    -0.039    28.978     8.829
    79   6 C        2.948    -0.037    28.924     8.821
    80   6 C        2.966     0.048    26.913     8.509
    81  16 S        2.029    -0.207   149.865    20.604
    82   6 C        3.744    -0.045    21.449     6.607
    83   6 C        2.973    -0.038    28.932     8.823
    84   6 C        2.923    -0.042    29.046     8.838
    85   6 C        3.194    -0.001    27.523     8.554
    86  16 S        2.307    -0.076   144.221    20.212
    87   6 C        3.033     0.000    27.988     8.678
    88   6 C        3.064     0.046    26.912     8.507
    89   7 N        2.750    -0.058    22.359     7.023
    90   6 C        2.930     0.058    26.690     8.472
    91   6 C        2.921    -0.043    29.071     8.842
    92   6 C        2.985    -0.039    28.962     8.828
    93   6 C        2.966     0.052    26.837     8.497
    94  16 S        2.036    -0.178   148.593    20.516
    95   6 C        3.745    -0.048    21.503     6.615
    96   6 C        2.944    -0.036    28.898     8.817
    97   6 C        2.924    -0.040    29.000     8.831
    98   6 C        2.932     0.061    26.631     8.463
    99   6 C        2.924    -0.046    29.135     8.852
   100   6 C        2.941    -0.044    29.092     8.846
   101   6 C        2.965     0.046    26.976     8.519
   102  16 S        2.034    -0.187   149.003    20.545
   103   6 C        3.744    -0.050    21.535     6.620
   104   6 C        2.985    -0.038    28.938     8.824
   105   6 C        2.922    -0.046    29.152     8.854
   106   6 C        3.179     0.007    27.447     8.554
   107  16 S        2.321    -0.081   144.437    20.227
   108   6 C        3.033     0.009    27.792     8.647
   109   6 C        3.065     0.046    26.915     8.507
   110   7 N        2.750    -0.063    22.466     7.040
   111   6 C        2.930     0.061    26.638     8.464
   112   6 C        2.923    -0.044    29.091     8.845
   113   6 C        2.948    -0.038    28.935     8.823
   114   6 C        2.966     0.050    26.885     8.505
   115  16 S        2.030    -0.190   149.122    20.553
   116   6 C        3.744    -0.052    21.576     6.626
   117   6 C        2.976    -0.037    28.909     8.819
   118   6 C        2.923    -0.043    29.058     8.840
   119   6 C        2.931     0.061    26.644     8.465
   120   6 C        2.923    -0.050    29.240     8.868
   121   6 C        2.942    -0.045    29.105     8.848
   122   6 C        2.965     0.046    26.963     8.517
   123  16 S        2.033    -0.189   149.089    20.551
   124   6 C        3.744    -0.050    21.534     6.620
   125   6 C        2.983    -0.038    28.931     8.823
   126   6 C        2.922    -0.043    29.064     8.841
   127   6 C        3.171     0.015    27.296     8.535
   128  16 S        2.259    -0.075   144.166    20.208
   129   6 C        2.990     0.008    27.827     8.653
   130   6 C        3.043     0.062    26.564     8.453
   131   7 N        2.749    -0.042    22.051     6.974
   132   6 C        2.924     0.058    26.711     8.475
   133   6 C        2.921    -0.042    29.054     8.839
   134   6 C        2.970    -0.036    28.880     8.815
   135   6 C        2.966     0.052    26.823     8.495
   136  16 S        2.028    -0.183   148.824    20.532
   137   6 C        3.744    -0.050    21.548     6.622
   138   6 C        2.951    -0.036    28.898     8.817
   139   6 C        2.923    -0.044    29.103     8.847
   140   6 C        2.934     0.057    26.712     8.476
   141   6 C        2.921    -0.040    28.991     8.830
   142   6 C        2.986    -0.035    28.858     8.812
   143   6 C        2.966     0.049    26.887     8.505
   144  16 S        2.037    -0.180   148.669    20.522
   145   6 C        3.745    -0.049    21.525     6.618
   146   6 C        2.944    -0.043    29.069     8.843
   147   6 C        2.922    -0.041    29.015     8.833
   148   6 C        3.179     0.004    27.508     8.563
   149  16 S        2.282    -0.065   143.738    20.178
   150   6 C        2.938    -0.018    28.451     8.748
   151   6 C        3.017    -0.043    29.055     8.842
   152   6 C        2.874     0.236    23.069     7.874
   153   8 O        0.856    -0.428    22.247     6.324
   154   6 C        3.074    -0.029    28.638     8.774
   155   6 C        2.880     0.114    25.478     8.275
   156  17 Cl       0.963    -0.155   104.017    15.603
   157   6 C        2.954    -0.035    28.869     8.813
   158   6 C        2.923    -0.017    28.443     8.746
   159   6 C        2.911    -0.028    28.709     8.786
   160   6 C        3.043     0.014    27.671     8.628
   161   6 C        3.020     0.038    27.121     8.543
   162   6 C        2.948     0.003    27.959     8.672
   163   6 C        1.942     0.137    27.736     8.505
   164   7 N        0.911    -0.302    27.776     7.622
   165   6 C        1.939     0.131    27.880     8.527
   166   7 N        0.911    -0.268    26.928     7.505
   167   1 H        0.925     0.064     2.148     2.292
   168   1 H        0.926     0.066     2.132     2.284
   169   1 H        0.926     0.056     2.245     2.343
   170   1 H        0.925     0.044     2.400     2.423
   171   1 H        0.925     0.040     2.455     2.450
   172   1 H        0.926     0.037     2.486     2.466
   173   1 H        0.926     0.037     2.489     2.467
   174   1 H        0.925     0.040     2.448     2.447
   175   1 H        0.925     0.036     2.502     2.474
   176   1 H        0.925     0.040     2.446     2.446
   177   1 H        0.925     0.043     2.414     2.430
   178   1 H        0.926     0.039     2.458     2.452
   179   1 H        0.926     0.049     2.334     2.389
   180   1 H        0.925     0.074     2.041     2.234
   181   1 H        0.925     0.062     2.180     2.309
   182   1 H        0.925     0.062     2.173     2.305
   183   1 H        0.926     0.053     2.285     2.364
   184   1 H        0.926     0.055     2.263     2.352
   185   1 H        0.926     0.044     2.396     2.421
   186   1 H        0.926     0.065     2.139     2.287
   187   1 H        0.925     0.063     2.162     2.299
   188   1 H        0.925     0.064     2.156     2.296
   189   1 H        0.925     0.071     2.073     2.251
   190   1 H        0.926     0.049     2.328     2.386
   191   1 H        0.926     0.043     2.404     2.425
   192   1 H        0.926     0.039     2.465     2.455
   193   1 H        0.926     0.045     2.387     2.416
   194   1 H        0.925     0.063     2.168     2.303
   195   1 H        0.925     0.053     2.277     2.360
   196   1 H        0.925     0.068     2.107     2.270
   197   1 H        0.926     0.052     2.293     2.368
   198   1 H        0.926     0.036     2.498     2.472
   199   1 H        0.926     0.040     2.444     2.445
   200   1 H        0.926     0.043     2.411     2.428
   201   1 H        0.925     0.059     2.212     2.326
   202   1 H        0.925     0.059     2.209     2.324
   203   1 H        0.925     0.067     2.120     2.277
   204   1 H        0.926     0.042     2.418     2.432
   205   1 H        0.926     0.034     2.534     2.489
   206   1 H        0.926     0.044     2.399     2.422
   207   1 H        0.926     0.055     2.257     2.349
   208   1 H        0.925     0.070     2.085     2.258
   209   1 H        0.925     0.063     2.168     2.303
   210   1 H        0.925     0.060     2.196     2.317
   211   1 H        0.926     0.047     2.352     2.398
   212   1 H        0.926     0.042     2.428     2.437
   213   1 H        0.926     0.039     2.457     2.451
   214   1 H        0.926     0.051     2.313     2.378
   215   1 H        0.925     0.071     2.077     2.254
   216   1 H        0.925     0.063     2.169     2.303
   217   1 H        0.925     0.060     2.195     2.317
   218   1 H        0.926     0.051     2.313     2.378
   219   1 H        0.926     0.043     2.409     2.427
   220   1 H        0.926     0.043     2.412     2.429
   221   1 H        0.926     0.050     2.320     2.382
   222   1 H        0.925     0.072     2.068     2.249
   223   1 H        0.925     0.068     2.109     2.271
   224   1 H        0.925     0.055     2.264     2.353
   225   1 H        0.926     0.045     2.379     2.412
   226   1 H        0.926     0.036     2.502     2.474
   227   1 H        0.926     0.039     2.459     2.452
   228   1 H        0.926     0.045     2.380     2.412
   229   1 H        0.925     0.061     2.193     2.316
   230   1 H        0.925     0.063     2.168     2.303
   231   1 H        0.925     0.070     2.085     2.258
   232   1 H        0.926     0.046     2.370     2.407
   233   1 H        0.926     0.036     2.496     2.471
   234   1 H        0.926     0.044     2.394     2.420
   235   1 H        0.926     0.050     2.318     2.381
   236   1 H        0.925     0.057     2.230     2.335
   237   1 H        0.925     0.068     2.110     2.272
   238   1 H        0.925     0.070     2.089     2.260
   239   1 H        0.926     0.039     2.461     2.453
   240   1 H        0.926     0.031     2.567     2.505
   241   1 H        0.926     0.032     2.559     2.501
   242   1 H        0.926     0.044     2.393     2.419
   243   1 H        0.925     0.060     2.195     2.317
   244   1 H        0.925     0.070     2.088     2.260
   245   1 H        0.925     0.063     2.170     2.303
   246   1 H        0.926     0.049     2.327     2.386
   247   1 H        0.926     0.046     2.375     2.410
   248   1 H        0.926     0.048     2.348     2.396
   249   1 H        0.926     0.056     2.244     2.343
   250   1 H        0.925     0.066     2.125     2.280
   251   1 H        0.925     0.057     2.240     2.340
   252   1 H        0.925     0.077     2.014     2.219
   253   1 H        0.926     0.053     2.284     2.363
   254   1 H        0.926     0.043     2.407     2.426
   255   1 H        0.926     0.068     2.112     2.273
   256   1 H        0.926     0.053     2.282     2.362
   257   1 H        0.925     0.062     2.181     2.309
   258   1 H        0.925     0.078     2.001     2.212
   259   1 H        0.925     0.057     2.229     2.335
   260   1 H        0.926     0.047     2.352     2.398
   261   1 H        0.926     0.043     2.406     2.426
   262   1 H        0.925     0.076     2.024     2.225
   263   1 H        0.926     0.077     2.013     2.219
   264   1 H        0.926     0.071     2.076     2.253
   265   1 H        0.926     0.070     2.080     2.255

 Mol. C6AA /au·bohr⁶  :    1295627.162931
 Mol. C8AA /au·bohr⁸  :   37951158.450226
 Mol. α(0) /au        :       1836.788744


Wiberg/Mayer (AO) data.
largest (>0.10) Wiberg bond orders for each atom

 ---------------------------------------------------------------------------
     #   Z sym  total        # sym  WBO       # sym  WBO       # sym  WBO
 ---------------------------------------------------------------------------
     1   6 C    3.947 --     2 C    1.469    24 C    1.330   167 H    0.932
     2   6 C    3.951 --     1 C    1.469    11 C    1.155     3 C    1.066
     3   6 C    3.909 --     4 O    1.684     2 C    1.066     5 C    1.029
     4   8 O    2.064 --     3 C    1.684    65 S    0.109
     5   6 C    3.969 --     6 C    1.382    10 C    1.308     3 C    1.029
     6   6 C    3.978 --     7 C    1.439     5 C    1.382   168 H    0.960
     7   6 C    3.954 --     6 C    1.439     8 C    1.328    23 C    0.992
     8   6 C    3.965 --     9 C    1.445     7 C    1.328    17 C    0.993
     9   6 C    3.974 --     8 C    1.445    10 C    1.369   169 H    0.958
    10   6 C    3.977 --     9 C    1.369     5 C    1.308    11 C    1.085
    11   6 C    3.970 --    12 C    1.452     2 C    1.155    10 C    1.085
    12   6 C    3.949 --    11 C    1.452    15 C    1.108    13 C    1.105
    13   6 C    3.940 --    14 N    2.742    12 C    1.105
    14   7 N    2.952 --    13 C    2.742
    15   6 C    3.941 --    16 N    2.729    12 C    1.108
    16   7 N    2.951 --    15 C    2.729
    17   6 C    3.985 --     8 C    0.993    23 C    0.975   170 H    0.961
                            18 C    0.951
    18   6 C    3.989 --    19 C    1.004    22 C    0.989   171 H    0.971
                            17 C    0.951
    19   6 C    3.982 --    20 C    1.923    18 C    1.004   172 H    0.971
    20   6 C    3.982 --    19 C    1.923    21 C    1.004   173 H    0.971
    21   6 C    3.988 --    20 C    1.004    22 C    0.989   174 H    0.971
                            23 C    0.951
    22   6 C    3.994 --    18 C    0.989    21 C    0.989   176 H    0.978
                           175 H    0.974
    23   6 C    3.984 --     7 C    0.992    17 C    0.975   177 H    0.962
                            21 C    0.951
    24   6 C    3.925 --     1 C    1.330    25 C    1.275    65 S    1.079
    25   6 C    3.940 --    24 C    1.275    43 C    1.260    26 N    1.154
    26   7 N    3.531 --    25 C    1.154    35 C    1.040    27 C    1.029
    27   6 C    3.960 --    34 C    1.380    28 C    1.347    26 N    1.029
    28   6 C    3.987 --    29 C    1.486    27 C    1.347   178 H    0.967
    29   6 C    3.988 --    28 C    1.486    30 C    1.356   179 H    0.967
    30   6 C    3.958 --    33 C    1.392    29 C    1.356    31 S    1.055
    31  16 S    2.260 --    30 C    1.055    32 C    1.008
    32   6 C    3.971 --    31 S    1.008   182 H    0.981   181 H    0.980
                           180 H    0.976
    33   6 C    3.989 --    34 C    1.443    30 C    1.392   183 H    0.964
    34   6 C    3.982 --    33 C    1.443    27 C    1.380   184 H    0.965
    35   6 C    3.958 --    42 C    1.370    36 C    1.350    26 N    1.040
    36   6 C    3.981 --    37 C    1.477    35 C    1.350   185 H    0.966
    37   6 C    3.986 --    36 C    1.477    38 C    1.363   186 H    0.957
                            42 C    0.101
    38   6 C    3.949 --    41 C    1.382    37 C    1.363    39 S    1.058
    39  16 S    2.265 --    38 C    1.058    40 C    1.009
    40   6 C    3.973 --    39 S    1.009   188 H    0.981   187 H    0.981
                           189 H    0.977
    41   6 C    3.987 --    42 C    1.455    38 C    1.382   190 H    0.964
    42   6 C    3.974 --    41 C    1.455    35 C    1.370   191 H    0.966
                            37 C    0.101
    43   6 C    3.938 --    64 C    1.350    25 C    1.260    44 S    1.096
    44  16 S    2.541 --    43 C    1.096    45 C    1.087
    45   6 C    3.887 --    46 C    1.450    66 C    1.090    44 S    1.087
    46   6 C    3.957 --    45 C    1.450    64 C    1.215    47 N    1.077
    47   7 N    3.478 --    46 C    1.077    56 C    1.068    48 C    1.032
    48   6 C    3.963 --    49 C    1.373    55 C    1.361    47 N    1.032
    49   6 C    3.985 --    50 C    1.455    48 C    1.373   192 H    0.967
                            54 C    0.101
    50   6 C    3.989 --    49 C    1.455    51 C    1.387   193 H    0.965
    51   6 C    3.956 --    50 C    1.387    54 C    1.382    52 S    1.034
    52  16 S    2.210 --    51 C    1.034    53 C    1.004
    53   6 C    3.974 --    52 S    1.004   195 H    0.982   196 H    0.981
                           194 H    0.979
    54   6 C    3.990 --    55 C    1.463    51 C    1.382   197 H    0.967
                            49 C    0.101
    55   6 C    3.986 --    54 C    1.463    48 C    1.361   198 H    0.966
    56   6 C    3.965 --    57 C    1.364    63 C    1.347    47 N    1.068
    57   6 C    3.985 --    58 C    1.452    56 C    1.364   199 H    0.963
                            62 C    0.101
    58   6 C    3.989 --    57 C    1.452    59 C    1.388   200 H    0.965
    59   6 C    3.955 --    58 C    1.388    62 C    1.364    60 S    1.037
    60  16 S    2.232 --    59 C    1.037    61 C    1.008
    61   6 C    3.973 --    60 S    1.008   202 H    0.981   201 H    0.981
                           203 H    0.977
    62   6 C    3.990 --    63 C    1.479    59 C    1.364   204 H    0.967
                            57 C    0.101
    63   6 C    3.986 --    62 C    1.479    56 C    1.347   205 H    0.966
    64   6 C    3.937 --    43 C    1.350    46 C    1.215    65 S    1.137
    65  16 S    2.681 --    64 C    1.137    24 C    1.079     4 O    0.109
    66   6 C    3.877 --    67 C    1.453    45 C    1.090   107 S    1.056
    67   6 C    3.960 --    66 C    1.453    85 C    1.190    68 N    1.121
    68   7 N    3.486 --    67 C    1.121    77 C    1.031    69 C    1.031
    69   6 C    3.962 --    76 C    1.372    70 C    1.367    68 N    1.031
    70   6 C    3.987 --    71 C    1.464    69 C    1.367   206 H    0.964
    71   6 C    3.988 --    70 C    1.464    72 C    1.374   207 H    0.964
                            76 C    0.103
    72   6 C    3.954 --    75 C    1.383    71 C    1.374    73 S    1.048
    73  16 S    2.260 --    72 C    1.048    74 C    1.006
    74   6 C    3.973 --    73 S    1.006   210 H    0.981   209 H    0.981
                           208 H    0.977
    75   6 C    3.989 --    76 C    1.456    72 C    1.383   211 H    0.964
    76   6 C    3.986 --    75 C    1.456    69 C    1.372   212 H    0.965
                            71 C    0.103
    77   6 C    3.962 --    78 C    1.365    84 C    1.362    68 N    1.031
    78   6 C    3.986 --    79 C    1.443    77 C    1.365   213 H    0.961
    79   6 C    3.988 --    78 C    1.443    80 C    1.394   214 H    0.963
    80   6 C    3.953 --    79 C    1.394    83 C    1.372    81 S    1.038
    81  16 S    2.224 --    80 C    1.038    82 C    1.004
    82   6 C    3.970 --    81 S    1.004   216 H    0.982   215 H    0.977
                           217 H    0.976
    83   6 C    3.988 --    84 C    1.471    80 C    1.372   218 H    0.967
    84   6 C    3.984 --    83 C    1.471    77 C    1.362   219 H    0.966
    85   6 C    3.919 --   106 C    1.379    67 C    1.190    86 S    1.109
    86  16 S    2.594 --    85 C    1.109    87 C    1.082
    87   6 C    3.918 --    88 C    1.371   108 C    1.223    86 S    1.082
    88   6 C    3.930 --    87 C    1.371   106 C    1.231    89 N    1.083
    89   7 N    3.498 --    88 C    1.083    98 C    1.068    90 C    1.041
    90   6 C    3.959 --    97 C    1.369    91 C    1.353    89 N    1.041
    91   6 C    3.980 --    92 C    1.477    90 C    1.353   220 H    0.966
    92   6 C    3.988 --    91 C    1.477    93 C    1.364   221 H    0.967
    93   6 C    3.951 --    96 C    1.384    92 C    1.364    94 S    1.055
    94  16 S    2.264 --    93 C    1.055    95 C    1.008
    95   6 C    3.971 --    94 S    1.008   223 H    0.979   224 H    0.978
                           222 H    0.977
    96   6 C    3.989 --    97 C    1.453    93 C    1.384   225 H    0.962
    97   6 C    3.981 --    96 C    1.453    90 C    1.369   226 H    0.966
    98   6 C    3.962 --    99 C    1.351   105 C    1.344    89 N    1.068
    99   6 C    3.978 --   100 C    1.457    98 C    1.351   227 H    0.964
   100   6 C    3.988 --    99 C    1.457   101 C    1.384   228 H    0.964
   101   6 C    3.949 --   100 C    1.384   104 C    1.364   102 S    1.048
   102  16 S    2.246 --   101 C    1.048   103 C    1.009
   103   6 C    3.973 --   102 S    1.009   229 H    0.981   230 H    0.981
                           231 H    0.977
   104   6 C    3.989 --   105 C    1.481   101 C    1.364   232 H    0.967
   105   6 C    3.983 --   104 C    1.481    98 C    1.344   233 H    0.966
   106   6 C    3.941 --    85 C    1.379    88 C    1.231   107 S    1.114
   107  16 S    2.519 --   106 C    1.114    66 C    1.056
   108   6 C    3.906 --   109 C    1.361    87 C    1.223   149 S    1.093
   109   6 C    3.938 --   108 C    1.361   127 C    1.253   110 N    1.075
   110   7 N    3.497 --   109 C    1.075   119 C    1.058   111 C    1.051
   111   6 C    3.961 --   112 C    1.365   118 C    1.352   110 N    1.051
   112   6 C    3.982 --   113 C    1.458   111 C    1.365   234 H    0.965
   113   6 C    3.989 --   112 C    1.458   114 C    1.384   235 H    0.965
   114   6 C    3.953 --   113 C    1.384   117 C    1.373   115 S    1.044
   115  16 S    2.231 --   114 C    1.044   116 C    1.004
   116   6 C    3.971 --   115 S    1.004   236 H    0.982   238 H    0.979
                           237 H    0.978
   117   6 C    3.990 --   118 C    1.468   114 C    1.373   239 H    0.965
   118   6 C    3.983 --   117 C    1.468   111 C    1.352   240 H    0.966
   119   6 C    3.962 --   120 C    1.369   126 C    1.336   110 N    1.058
   120   6 C    3.983 --   121 C    1.447   119 C    1.369   241 H    0.966
   121   6 C    3.988 --   120 C    1.447   122 C    1.390   242 H    0.964
   122   6 C    3.952 --   121 C    1.390   125 C    1.362   123 S    1.046
   123  16 S    2.246 --   122 C    1.046   124 C    1.010
   124   6 C    3.974 --   123 S    1.010   243 H    0.981   245 H    0.981
                           244 H    0.977
   125   6 C    3.989 --   126 C    1.484   122 C    1.362   246 H    0.967
   126   6 C    3.984 --   125 C    1.484   119 C    1.336   247 H    0.963
   127   6 C    3.934 --   148 C    1.349   109 C    1.253   128 S    1.108
   128  16 S    2.502 --   127 C    1.108   129 C    1.056
   129   6 C    3.912 --   150 C    1.321   130 C    1.298   128 S    1.056
   130   6 C    3.940 --   129 C    1.298   148 C    1.243   131 N    1.155
   131   7 N    3.515 --   130 C    1.155   132 C    1.053   140 C    1.021
   132   6 C    3.960 --   133 C    1.355   139 C    1.353   131 N    1.053
   133   6 C    3.979 --   134 C    1.474   132 C    1.355   248 H    0.965
   134   6 C    3.989 --   133 C    1.474   135 C    1.375   249 H    0.967
   135   6 C    3.957 --   138 C    1.383   134 C    1.375   136 S    1.049
   136  16 S    2.223 --   135 C    1.049   137 C    1.001
   137   6 C    3.968 --   136 S    1.001   251 H    0.983   250 H    0.979
                           252 H    0.979
   138   6 C    3.988 --   139 C    1.458   135 C    1.383   253 H    0.965
   139   6 C    3.982 --   138 C    1.458   132 C    1.353   254 H    0.966
   140   6 C    3.958 --   147 C    1.381   141 C    1.353   131 N    1.021
   141   6 C    3.981 --   142 C    1.477   140 C    1.353   255 H    0.960
   142   6 C    3.988 --   141 C    1.477   143 C    1.365   256 H    0.966
                           147 C    0.101
   143   6 C    3.953 --   146 C    1.388   142 C    1.365   144 S    1.054
   144  16 S    2.261 --   143 C    1.054   145 C    1.008
   145   6 C    3.971 --   144 S    1.008   257 H    0.981   259 H    0.980
                           258 H    0.974
   146   6 C    3.988 --   147 C    1.448   143 C    1.388   260 H    0.964
   147   6 C    3.977 --   146 C    1.448   140 C    1.381   261 H    0.967
                           142 C    0.101
   148   6 C    3.926 --   127 C    1.349   130 C    1.243   149 S    1.099
   149  16 S    2.571 --   148 C    1.099   108 C    1.093
   150   6 C    3.935 --   151 C    1.457   129 C    1.321   262 H    0.931
   151   6 C    3.948 --   150 C    1.457   161 C    1.175   152 C    1.043
   152   6 C    3.915 --   153 O    1.718   151 C    1.043   154 C    1.021
   153   8 O    1.995 --   152 C    1.718
   154   6 C    3.972 --   155 C    1.391   160 C    1.285   152 C    1.021
   155   6 C    3.911 --   154 C    1.391   157 C    1.367   156 Cl   0.994
   156  17 Cl   1.145 --   155 C    0.994
   157   6 C    3.968 --   158 C    1.459   155 C    1.367   263 H    0.965
   158   6 C    3.978 --   157 C    1.459   159 C    1.404   264 H    0.966
   159   6 C    3.973 --   160 C    1.423   158 C    1.404   265 H    0.961
   160   6 C    3.981 --   159 C    1.423   154 C    1.285   161 C    1.068
   161   6 C    3.961 --   162 C    1.446   151 C    1.175   160 C    1.068
   162   6 C    3.955 --   161 C    1.446   163 C    1.111   165 C    1.104
   163   6 C    3.940 --   164 N    2.731   162 C    1.111
   164   7 N    2.958 --   163 C    2.731
   165   6 C    3.943 --   166 N    2.749   162 C    1.104
   166   7 N    2.956 --   165 C    2.749
   167   1 H    0.995 --     1 C    0.932
   168   1 H    0.995 --     6 C    0.960
   169   1 H    0.996 --     9 C    0.958
   170   1 H    0.997 --    17 C    0.961
   171   1 H    0.998 --    18 C    0.971
   172   1 H    0.998 --    19 C    0.971
   173   1 H    0.998 --    20 C    0.971
   174   1 H    0.998 --    21 C    0.971
   175   1 H    0.999 --    22 C    0.974
   176   1 H    0.998 --    22 C    0.978
   177   1 H    0.996 --    23 C    0.962
   178   1 H    0.998 --    28 C    0.967
   179   1 H    0.997 --    29 C    0.967
   180   1 H    0.994 --    32 C    0.976
   181   1 H    0.996 --    32 C    0.980
   182   1 H    0.996 --    32 C    0.981
   183   1 H    0.997 --    33 C    0.964
   184   1 H    0.997 --    34 C    0.965
   185   1 H    0.998 --    36 C    0.966
   186   1 H    0.995 --    37 C    0.957
   187   1 H    0.995 --    40 C    0.981
   188   1 H    0.996 --    40 C    0.981
   189   1 H    0.995 --    40 C    0.977
   190   1 H    0.997 --    41 C    0.964
   191   1 H    0.998 --    42 C    0.966
   192   1 H    0.998 --    49 C    0.967
   193   1 H    0.998 --    50 C    0.965
   194   1 H    0.995 --    53 C    0.979
   195   1 H    0.997 --    53 C    0.982
   196   1 H    0.995 --    53 C    0.981
   197   1 H    0.997 --    54 C    0.967
   198   1 H    0.998 --    55 C    0.966
   199   1 H    0.998 --    57 C    0.963
   200   1 H    0.998 --    58 C    0.965
   201   1 H    0.996 --    61 C    0.981
   202   1 H    0.996 --    61 C    0.981
   203   1 H    0.995 --    61 C    0.977
   204   1 H    0.998 --    62 C    0.967
   205   1 H    0.998 --    63 C    0.966
   206   1 H    0.998 --    70 C    0.964
   207   1 H    0.997 --    71 C    0.964
   208   1 H    0.995 --    74 C    0.977
   209   1 H    0.996 --    74 C    0.981
   210   1 H    0.996 --    74 C    0.981
   211   1 H    0.997 --    75 C    0.964
   212   1 H    0.998 --    76 C    0.965
   213   1 H    0.998 --    78 C    0.961
   214   1 H    0.997 --    79 C    0.963
   215   1 H    0.994 --    82 C    0.977
   216   1 H    0.996 --    82 C    0.982
   217   1 H    0.996 --    82 C    0.976
   218   1 H    0.997 --    83 C    0.967
   219   1 H    0.998 --    84 C    0.966
   220   1 H    0.998 --    91 C    0.966
   221   1 H    0.997 --    92 C    0.967
   222   1 H    0.995 --    95 C    0.977
   223   1 H    0.995 --    95 C    0.979
   224   1 H    0.996 --    95 C    0.978
   225   1 H    0.997 --    96 C    0.962
   226   1 H    0.999 --    97 C    0.966
   227   1 H    0.998 --    99 C    0.964
   228   1 H    0.997 --   100 C    0.964
   229   1 H    0.996 --   103 C    0.981
   230   1 H    0.996 --   103 C    0.981
   231   1 H    0.995 --   103 C    0.977
   232   1 H    0.997 --   104 C    0.967
   233   1 H    0.998 --   105 C    0.966
   234   1 H    0.998 --   112 C    0.965
   235   1 H    0.997 --   113 C    0.965
   236   1 H    0.996 --   116 C    0.982
   237   1 H    0.995 --   116 C    0.978
   238   1 H    0.995 --   116 C    0.979
   239   1 H    0.998 --   117 C    0.965
   240   1 H    0.999 --   118 C    0.966
   241   1 H    0.999 --   120 C    0.966
   242   1 H    0.998 --   121 C    0.964
   243   1 H    0.996 --   124 C    0.981
   244   1 H    0.995 --   124 C    0.977
   245   1 H    0.996 --   124 C    0.981
   246   1 H    0.997 --   125 C    0.967
   247   1 H    0.997 --   126 C    0.963
   248   1 H    0.997 --   133 C    0.965
   249   1 H    0.996 --   134 C    0.967
   250   1 H    0.995 --   137 C    0.979
   251   1 H    0.996 --   137 C    0.983
   252   1 H    0.994 --   137 C    0.979
   253   1 H    0.997 --   138 C    0.965
   254   1 H    0.998 --   139 C    0.966
   255   1 H    0.995 --   141 C    0.960
   256   1 H    0.996 --   142 C    0.966
   257   1 H    0.995 --   145 C    0.981
   258   1 H    0.994 --   145 C    0.974
   259   1 H    0.996 --   145 C    0.980
   260   1 H    0.997 --   146 C    0.964
   261   1 H    0.998 --   147 C    0.967
   262   1 H    0.991 --   150 C    0.931
   263   1 H    0.994 --   157 C    0.965
   264   1 H    0.994 --   158 C    0.966
   265   1 H    0.994 --   159 C    0.961
 ---------------------------------------------------------------------------

Topologies differ in bond orders
Writing corrected topology to xtbtopo.mol

molecular dipole:
                 x           y           z       tot (Debye)
 q only:       -1.900      -1.188       0.491
   full:       -2.009      -0.322       0.435       5.289
molecular quadrupole (traceless):
                xx          xy          yy          xz          yz          zz
 q only:       37.765      44.830    -123.555     -18.726      81.281      85.790
  q+dip:       57.442      26.097    -115.710       4.332      65.342      58.268
   full:       64.931      23.846    -115.105       8.317      65.304      50.174


           -------------------------------------------------
          | TOTAL ENERGY             -440.013391966427 Eh   |
          | GRADIENT NORM               0.024535681456 Eh/α |
          | HOMO-LUMO GAP               0.600034073567 eV   |
           -------------------------------------------------

------------------------------------------------------------------------
 * finished run on 2022/02/13 at 21:25:34.805     
------------------------------------------------------------------------
 total:
 * wall-time:     0 d,  0 h,  0 min,  5.087 sec
 *  cpu-time:     0 d,  0 h,  0 min, 25.253 sec
 * ratio c/w:     4.964 speedup
 SCF:
 * wall-time:     0 d,  0 h,  0 min,  4.883 sec
 *  cpu-time:     0 d,  0 h,  0 min, 24.296 sec
 * ratio c/w:     4.975 speedup

