      -----------------------------------------------------------      
     |                   =====================                   |     
     |                           x T B                           |     
     |                   =====================                   |     
     |                         S. Grimme                         |     
     |          Mulliken Center for Theoretical Chemistry        |     
     |                    University of Bonn                     |     
      -----------------------------------------------------------      

   * xtb version 6.4.1 (unknown) compiled by 'oda6@login1.crc.pitt.edu' on 2021-06-25

   xtb is free software: you can redistribute it and/or modify it under
   the terms of the GNU Lesser General Public License as published by
   the Free Software Foundation, either version 3 of the License, or
   (at your option) any later version.
   
   xtb is distributed in the hope that it will be useful,
   but WITHOUT ANY WARRANTY; without even the implied warranty of
   MERCHANTABILITY or FITNESS FOR A PARTICULAR PURPOSE.  See the
   GNU Lesser General Public License for more details.
   
   Cite this work as:
   * C. Bannwarth, E. Caldeweyher, S. Ehlert, A. Hansen, P. Pracht,
     J. Seibert, S. Spicher, S. Grimme, WIREs Comput. Mol. Sci., 2020, 11,
     e01493. DOI: 10.1002/wcms.1493
   
   for GFN2-xTB:
   * C. Bannwarth, S. Ehlert and S. Grimme., J. Chem. Theory Comput., 2019,
     15, 1652-1671. DOI: 10.1021/acs.jctc.8b01176
   for GFN1-xTB:
   * S. Grimme, C. Bannwarth, P. Shushkov, J. Chem. Theory Comput., 2017,
     13, 1989-2009. DOI: 10.1021/acs.jctc.7b00118
   for GFN0-xTB:
   * P. Pracht, E. Caldeweyher, S. Ehlert, S. Grimme, ChemRxiv, 2019, preprint.
     DOI: 10.26434/chemrxiv.8326202.v1
   for GFN-FF:
   * S. Spicher and S. Grimme, Angew. Chem. Int. Ed., 2020, 59, 15665-15673.
     DOI: 10.1002/anie.202004239
   
   for DFT-D4:
   * E. Caldeweyher, C. Bannwarth and S. Grimme, J. Chem. Phys., 2017,
     147, 034112. DOI: 10.1063/1.4993215
   * E. Caldeweyher, S. Ehlert, A. Hansen, H. Neugebauer, S. Spicher,
     C. Bannwarth and S. Grimme, J. Chem. Phys., 2019, 150, 154122.
     DOI: 10.1063/1.5090222
   * E. Caldeweyher, J.-M. Mewes, S. Ehlert and S. Grimme, Phys. Chem. Chem. Phys.
     2020, 22, 8499-8512. DOI: 10.1039/D0CP00502A
   
   for sTDA-xTB:
   * S. Grimme and C. Bannwarth, J. Chem. Phys., 2016, 145, 054103.
     DOI: 10.1063/1.4959605
   
   in the mass-spec context:
   * V. Asgeirsson, C. Bauer and S. Grimme, Chem. Sci., 2017, 8, 4879.
     DOI: 10.1039/c7sc00601b
   * J. Koopman and S. Grimme, ACS Omega 2019, 4, 12, 15120-15133.
     DOI: 10.1021/acsomega.9b02011
   
   for metadynamics refer to:
   * S. Grimme, J. Chem. Theory Comput., 2019, 155, 2847-2862
     DOI: 10.1021/acs.jctc.9b00143
   
   for SPH calculations refer to:
   * S. Spicher and S. Grimme, J. Chem. Theory Comput., 2021, 17, 1701-1714
     DOI: 10.1021/acs.jctc.0c01306
   
   with help from (in alphabetical order)
   P. Atkinson, C. Bannwarth, F. Bohle, G. Brandenburg, E. Caldeweyher
   M. Checinski, S. Dohm, S. Ehlert, S. Ehrlich, I. Gerasimov, J. Koopman
   C. Lavigne, S. Lehtola, F. März, M. Müller, F. Musil, H. Neugebauer
   J. Pisarek, C. Plett, P. Pracht, J. Seibert, P. Shushkov, S. Spicher
   M. Stahn, M. Steiner, T. Strunk, J. Stückrath, T. Rose, and J. Unsleber
   
 * started run on 2022/02/13 at 08:11:24.323     

           -------------------------------------------------
          |                Calculation Setup                |
           -------------------------------------------------

          program call               : /ihome/ghutchison/oda6/xtb/xtb-641/bin/xtb ../../GFN2_output/39_130_127_28_39.mol --sp --alpb hexane
          hostname                   : smp-n25
          coordinate file            : ../../GFN2_output/39_130_127_28_39.mol
          omp threads                :                     8
          number of atoms            :                   230
          number of electrons        :                   692
          charge                     :                     0
          spin                       :                   0.0
          first test random number   :      0.52221019025327

   ID    Z sym.   atoms
    1    6 C      1-3, 5-13, 15, 17-25, 27-30, 32-38, 40-43, 45, 46, 48-51,
                  53-59, 61-64, 66, 67, 69, 71, 72, 74-77, 79-83, 85-99, 101,
                  102, 104-118, 120-122, 124-132, 134, 136-142
    2    8 O      4, 123
    3    7 N      14, 16, 26, 47, 73, 78, 84, 103, 133, 135
    4   16 S      31, 39, 44, 52, 60, 65, 100, 119
    5    9 F      68, 70
    6    1 H      143-230

           -------------------------------------------------
          |                 G F N 2 - x T B                 |
           -------------------------------------------------

        Reference                      10.1021/acs.jctc.8b01176
      * Hamiltonian:
        H0-scaling (s, p, d)           1.850000    2.230000    2.230000
        zeta-weighting                 0.500000
      * Dispersion:
        s8                             2.700000
        a1                             0.520000
        a2                             5.000000
        s9                             5.000000
      * Repulsion:
        kExp                           1.500000    1.000000
        rExp                           1.000000
      * Coulomb:
        alpha                          2.000000
        third order                    shell-resolved
        anisotropic                    true
        a3                             3.000000
        a5                             4.000000
        cn-shift                       1.200000
        cn-exp                         4.000000
        max-rad                        5.000000

      * Solvation model:               ALPB
        Solvent                        hexane
        Parameter file                 internal GFN2-xTB/ALPB
        Dielectric constant                1.8800E+00
        Reference state                gsolv [1 M gas/solution]
        Free energy shift                  4.8134E-03 Eh       3.0204E+00 kcal/mol
        Temperature                        2.9815E+02 K
        Density                            6.6000E-01 kg/L
        Solvent mass                       8.6180E+01 g/mol
        Interaction kernel             P16
        Born radius scaling (c1)           1.1040E+00
        Born radii integrator          GBOBC
        Born offset                        0.0000E+00 a0       0.0000E+00 AA
        H-bond correction              false
        Ion screening                  false
        Surface tension                    1.0000E-05 Eh       1.5569E+01 dyn/cm
        Grid points                               230 per atom

          ...................................................
          :                      SETUP                      :
          :.................................................:
          :  # basis functions                 704          :
          :  # atomic orbitals                 696          :
          :  # shells                          380          :
          :  # electrons                       692          :
          :  max. iterations                   250          :
          :  Hamiltonian                  GFN2-xTB          :
          :  restarted?                      false          :
          :  GBSA solvation                   true          :
          :  PC potential                    false          :
          :  electronic temp.          300.0000000     K    :
          :  accuracy                    1.0000000          :
          :  -> integral cutoff          0.2500000E+02      :
          :  -> integral neglect         0.1000000E-07      :
          :  -> SCF convergence          0.1000000E-05 Eh   :
          :  -> wf. convergence          0.1000000E-03 e    :
          :  Broyden damping             0.4000000          :
          ...................................................

 iter      E             dE          RMSdq      gap      omega  full diag
   1   -380.5266806 -0.380527E+03  0.458E+00    0.81       0.0  T
   2   -380.7615194 -0.234839E+00  0.267E+00    0.85       1.0  T
   3   -380.6107910  0.150728E+00  0.116E+00    0.51       1.0  T
   4   -380.7941692 -0.183378E+00  0.476E-01    0.61       1.0  T
   5   -380.8229021 -0.287329E-01  0.154E-01    0.57       1.0  T
   6   -380.8242770 -0.137487E-02  0.669E-02    0.60       1.0  T
   7   -380.8247639 -0.486911E-03  0.255E-02    0.60       1.0  T
   8   -380.8248069 -0.430052E-04  0.138E-02    0.60       1.0  T
   9   -380.8248205 -0.136138E-04  0.662E-03    0.60       1.0  T
  10   -380.8248230 -0.244729E-05  0.257E-03    0.60       2.6  T
  11   -380.8248234 -0.434304E-06  0.139E-03    0.60       4.8  T
  12   -380.8248234 -0.366757E-07  0.692E-04    0.60       9.5  T
  13   -380.8248235 -0.404781E-07  0.298E-04    0.60      22.1  T

   *** convergence criteria satisfied after 13 iterations ***

         #    Occupation            Energy/Eh            Energy/eV
      -------------------------------------------------------------
         1        2.0000           -0.8416451             -22.9023
       ...           ...                  ...                  ...
       340        2.0000           -0.3722623             -10.1298
       341        2.0000           -0.3698459             -10.0640
       342        2.0000           -0.3643913              -9.9156
       343        2.0000           -0.3624003              -9.8614
       344        2.0000           -0.3593361              -9.7780
       345        2.0000           -0.3534769              -9.6186
       346        2.0000           -0.3487649              -9.4904 (HOMO)
       347        0.0000           -0.3265850              -8.8868 (LUMO)
       348                         -0.3206476              -8.7253
       349                         -0.3128239              -8.5124
       350                         -0.3068614              -8.3501
       351                         -0.3021242              -8.2212
       ...                                ...                  ...
       696                          1.1644557              31.6865
      -------------------------------------------------------------
                  HL-Gap            0.0221799 Eh            0.6035 eV
             Fermi-level           -0.3376725 Eh           -9.1885 eV

 SCC (total)                   0 d,  0 h,  0 min,  1.008 sec
 SCC setup                      ...        0 min,  0.010 sec (  1.020%)
 Dispersion                     ...        0 min,  0.014 sec (  1.355%)
 classical contributions        ...        0 min,  0.000 sec (  0.042%)
 integral evaluation            ...        0 min,  0.046 sec (  4.596%)
 iterations                     ...        0 min,  0.760 sec ( 75.339%)
 molecular gradient             ...        0 min,  0.170 sec ( 16.885%)
 printout                       ...        0 min,  0.008 sec (  0.753%)

         :::::::::::::::::::::::::::::::::::::::::::::::::::::
         ::                     SUMMARY                     ::
         :::::::::::::::::::::::::::::::::::::::::::::::::::::
         :: total energy            -374.696569550279 Eh    ::
         :: total w/o Gsasa/hb      -374.581243974993 Eh    ::
         :: gradient norm              0.024134146428 Eh/a0 ::
         :: HOMO-LUMO gap              0.603545576093 eV    ::
         ::.................................................::
         :: SCC energy              -380.824823474953 Eh    ::
         :: -> isotropic ES            0.183775488543 Eh    ::
         :: -> anisotropic ES          0.020524546317 Eh    ::
         :: -> anisotropic XC          0.229191237901 Eh    ::
         :: -> dispersion             -0.421115382966 Eh    ::
         :: -> Gsolv                  -0.143759253139 Eh    ::
         ::    -> Gelec               -0.028433677854 Eh    ::
         ::    -> Gsasa               -0.120138931105 Eh    ::
         ::    -> Ghb                  0.000000000000 Eh    ::
         ::    -> Gshift               0.004813355820 Eh    ::
         :: repulsion energy           6.111752061004 Eh    ::
         :: add. restraining           0.000000000000 Eh    ::
         :: total charge               0.000000000000 e     ::
         :::::::::::::::::::::::::::::::::::::::::::::::::::::

           -------------------------------------------------
          |                Property Printout                |
           -------------------------------------------------

    * Orbital Energies and Occupations

         #    Occupation            Energy/Eh            Energy/eV
      -------------------------------------------------------------
         1        2.0000           -0.8416451             -22.9023
       ...           ...                  ...                  ...
       334        2.0000           -0.3929613             -10.6930
       335        2.0000           -0.3920869             -10.6692
       336        2.0000           -0.3880271             -10.5588
       337        2.0000           -0.3842495             -10.4560
       338        2.0000           -0.3795280             -10.3275
       339        2.0000           -0.3749950             -10.2041
       340        2.0000           -0.3722623             -10.1298
       341        2.0000           -0.3698459             -10.0640
       342        2.0000           -0.3643913              -9.9156
       343        2.0000           -0.3624003              -9.8614
       344        2.0000           -0.3593361              -9.7780
       345        2.0000           -0.3534769              -9.6186
       346        2.0000           -0.3487649              -9.4904 (HOMO)
       347        0.0000           -0.3265850              -8.8868 (LUMO)
       348                         -0.3206476              -8.7253
       349                         -0.3128239              -8.5124
       350                         -0.3068614              -8.3501
       351                         -0.3021242              -8.2212
       352                         -0.2704484              -7.3593
       353                         -0.2639365              -7.1821
       354                         -0.2628846              -7.1535
       355                         -0.2493809              -6.7860
       356                         -0.2484226              -6.7599
       357                         -0.2456005              -6.6831
       ...                                ...                  ...
       696                          1.1644557              31.6865
      -------------------------------------------------------------
                  HL-Gap            0.0221799 Eh            0.6035 eV
             Fermi-level           -0.3376725 Eh           -9.1885 eV

     #   Z          covCN         q      C6AA      α(0)
     1   6 C        2.969    -0.014    28.360     8.735
     2   6 C        3.015    -0.048    29.164     8.859
     3   6 C        2.872     0.228    23.222     7.899
     4   8 O        0.856    -0.445    22.596     6.373
     5   6 C        3.063    -0.024    28.547     8.762
     6   6 C        2.904    -0.023    28.577     8.765
     7   6 C        3.260     0.009    26.653     8.341
     8   6 C        3.260     0.011    26.614     8.336
     9   6 C        2.905    -0.031    28.774     8.795
    10   6 C        3.052     0.001    27.957     8.672
    11   6 C        3.024     0.035    27.186     8.553
    12   6 C        2.948    -0.006    28.162     8.704
    13   6 C        1.942     0.132    27.865     8.525
    14   7 N        0.911    -0.287    27.407     7.572
    15   6 C        1.942     0.130    27.893     8.529
    16   7 N        0.911    -0.294    27.584     7.596
    17   6 C        4.163    -0.024    20.922     6.496
    18   6 C        4.012    -0.015    20.768     6.474
    19   6 C        2.988    -0.041    29.014     8.836
    20   6 C        2.987    -0.042    29.028     8.838
    21   6 C        4.012    -0.015    20.765     6.473
    22   6 C        3.926    -0.060    21.592     6.604
    23   6 C        4.163    -0.024    20.916     6.495
    24   6 C        2.988     0.014    27.692     8.632
    25   6 C        3.038     0.068    26.441     8.434
    26   7 N        2.749    -0.022    21.673     6.914
    27   6 C        2.944     0.059    26.681     8.472
    28   6 C        2.921    -0.032    28.798     8.800
    29   6 C        2.986    -0.034    28.844     8.810
    30   6 C        2.966     0.054    26.789     8.490
    31  16 S        2.038    -0.162   147.910    20.469
    32   6 C        3.744    -0.054    21.621     6.633
    33   6 C        2.945    -0.043    29.072     8.843
    34   6 C        2.921    -0.040    29.001     8.831
    35   6 C        2.920     0.062    26.617     8.460
    36   6 C        2.923    -0.039    28.973     8.827
    37   6 C        2.987    -0.040    28.979     8.830
    38   6 C        2.965     0.046    26.972     8.519
    39  16 S        2.038    -0.168   148.172    20.487
    40   6 C        3.745    -0.051    21.559     6.623
    41   6 C        2.941    -0.045    29.111     8.849
    42   6 C        2.922    -0.045    29.121     8.849
    43   6 C        3.173     0.002    27.600     8.581
    44  16 S        2.289    -0.038   142.610    20.099
    45   6 C        2.997     0.013    27.712     8.635
    46   6 C        3.057     0.054    26.724     8.478
    47   7 N        2.749    -0.046    22.138     6.988
    48   6 C        2.918     0.062    26.619     8.461
    49   6 C        2.926    -0.054    29.332     8.882
    50   6 C        2.945    -0.047    29.175     8.859
    51   6 C        2.966     0.041    27.077     8.535
    52  16 S        2.029    -0.193   149.273    20.563
    53   6 C        3.744    -0.050    21.545     6.621
    54   6 C        2.977    -0.045    29.106     8.850
    55   6 C        2.923    -0.053    29.319     8.880
    56   6 C        2.940     0.058    26.692     8.473
    57   6 C        2.925    -0.044    29.081     8.844
    58   6 C        2.946    -0.041    29.024     8.836
    59   6 C        2.966     0.051    26.853     8.500
    60  16 S        2.031    -0.192   149.210    20.559
    61   6 C        3.744    -0.052    21.571     6.625
    62   6 C        2.978    -0.039    28.953     8.826
    63   6 C        2.920    -0.042    29.033     8.836
    64   6 C        3.186     0.013    27.273     8.521
    65  16 S        2.295    -0.064   143.709    20.176
    66   6 C        3.002    -0.019    28.461     8.751
    67   6 C        2.784     0.147    24.788     8.155
    68   9 F        0.793    -0.209    11.328     3.976
    69   6 C        2.781     0.143    24.871     8.168
    70   9 F        0.787    -0.215    11.387     3.986
    71   6 C        3.008    -0.015    28.372     8.738
    72   6 C        2.971     0.068    26.466     8.439
    73   7 N        2.003    -0.218    26.548     7.642
    74   6 C        2.942     0.093    25.943     8.354
    75   6 C        3.810    -0.069    21.815     6.648
    76   6 C        3.755    -0.095    22.376     6.745
    77   6 C        2.941     0.095    25.884     8.344
    78   7 N        1.851    -0.252    27.405     7.759
    79   6 C        2.964     0.070    26.434     8.433
    80   6 C        3.809    -0.065    21.747     6.638
    81   6 C        3.754    -0.100    22.464     6.758
    82   6 C        2.999     0.012    27.732     8.638
    83   6 C        3.052     0.058    26.653     8.467
    84   7 N        2.749    -0.051    22.218     7.001
    85   6 C        2.932     0.061    26.623     8.462
    86   6 C        2.920    -0.046    29.133     8.851
    87   6 C        2.925    -0.040    28.987     8.829
    88   6 C        2.966     0.016    27.660     8.627
    89   6 C        3.758    -0.114    22.725     6.796
    90   6 C        2.926    -0.039    28.960     8.825
    91   6 C        2.922    -0.043    29.069     8.842
    92   6 C        2.925     0.060    26.665     8.468
    93   6 C        2.921    -0.051    29.259     8.870
    94   6 C        2.925    -0.042    29.047     8.838
    95   6 C        2.966     0.012    27.754     8.641
    96   6 C        3.757    -0.111    22.678     6.790
    97   6 C        2.925    -0.041    29.022     8.835
    98   6 C        2.921    -0.044    29.092     8.845
    99   6 C        3.166     0.012    27.399     8.554
   100  16 S        2.266    -0.054   143.293    20.147
   101   6 C        2.987     0.013    27.708     8.635
   102   6 C        3.036     0.073    26.331     8.417
   103   7 N        2.749    -0.027    21.764     6.929
   104   6 C        2.927     0.062    26.621     8.461
   105   6 C        2.920    -0.045    29.124     8.850
   106   6 C        2.925    -0.039    28.968     8.826
   107   6 C        2.965     0.016    27.663     8.627
   108   6 C        3.758    -0.112    22.691     6.791
   109   6 C        2.924    -0.041    29.024     8.835
   110   6 C        2.921    -0.042    29.042     8.837
   111   6 C        2.933     0.064    26.573     8.454
   112   6 C        2.920    -0.035    28.874     8.812
   113   6 C        2.925    -0.038    28.934     8.821
   114   6 C        2.966     0.015    27.681     8.630
   115   6 C        3.758    -0.113    22.719     6.796
   116   6 C        2.925    -0.042    29.042     8.838
   117   6 C        2.921    -0.045    29.108     8.847
   118   6 C        3.156    -0.003    27.791     8.620
   119  16 S        2.398    -0.044   142.871    20.117
   120   6 C        2.958    -0.012    28.323     8.729
   121   6 C        3.012    -0.047    29.141     8.855
   122   6 C        2.873     0.230    23.195     7.895
   123   8 O        0.856    -0.442    22.548     6.366
   124   6 C        3.062    -0.023    28.514     8.757
   125   6 C        2.905    -0.024    28.593     8.768
   126   6 C        3.260     0.006    26.713     8.351
   127   6 C        3.258     0.007    26.718     8.355
   128   6 C        2.905    -0.034    28.846     8.807
   129   6 C        3.050     0.002    27.931     8.668
   130   6 C        3.025     0.034    27.210     8.556
   131   6 C        2.948    -0.001    28.053     8.687
   132   6 C        1.940     0.129    27.925     8.534
   133   7 N        0.911    -0.280    27.218     7.545
   134   6 C        1.940     0.133    27.843     8.521
   135   7 N        0.911    -0.284    27.316     7.559
   136   6 C        4.163    -0.024    20.921     6.496
   137   6 C        4.012    -0.015    20.771     6.474
   138   6 C        2.988    -0.041    29.013     8.836
   139   6 C        2.988    -0.042    29.029     8.838
   140   6 C        4.012    -0.015    20.768     6.474
   141   6 C        3.926    -0.060    21.589     6.603
   142   6 C        4.162    -0.024    20.919     6.496
   143   1 H        0.925     0.063     2.164     2.300
   144   1 H        0.926     0.056     2.242     2.341
   145   1 H        0.926     0.054     2.268     2.355
   146   1 H        0.925     0.051     2.310     2.377
   147   1 H        0.925     0.038     2.471     2.458
   148   1 H        0.926     0.031     2.567     2.505
   149   1 H        0.926     0.032     2.564     2.504
   150   1 H        0.925     0.037     2.487     2.466
   151   1 H        0.925     0.042     2.429     2.437
   152   1 H        0.925     0.041     2.432     2.439
   153   1 H        0.925     0.047     2.352     2.398
   154   1 H        0.926     0.064     2.154     2.295
   155   1 H        0.926     0.058     2.222     2.331
   156   1 H        0.925     0.066     2.134     2.284
   157   1 H        0.925     0.072     2.065     2.247
   158   1 H        0.925     0.062     2.175     2.306
   159   1 H        0.926     0.051     2.302     2.373
   160   1 H        0.926     0.044     2.392     2.419
   161   1 H        0.926     0.053     2.277     2.360
   162   1 H        0.926     0.052     2.297     2.370
   163   1 H        0.925     0.076     2.023     2.224
   164   1 H        0.925     0.064     2.156     2.296
   165   1 H        0.925     0.062     2.170     2.304
   166   1 H        0.926     0.045     2.384     2.414
   167   1 H        0.926     0.041     2.437     2.441
   168   1 H        0.926     0.041     2.437     2.441
   169   1 H        0.926     0.042     2.421     2.433
   170   1 H        0.925     0.059     2.215     2.328
   171   1 H        0.925     0.069     2.100     2.266
   172   1 H        0.925     0.061     2.187     2.313
   173   1 H        0.926     0.054     2.270     2.356
   174   1 H        0.926     0.035     2.517     2.481
   175   1 H        0.926     0.047     2.353     2.399
   176   1 H        0.926     0.051     2.313     2.378
   177   1 H        0.925     0.081     1.973     2.196
   178   1 H        0.925     0.067     2.113     2.273
   179   1 H        0.925     0.057     2.237     2.339
   180   1 H        0.926     0.052     2.293     2.368
   181   1 H        0.926     0.046     2.374     2.410
   182   1 H        0.925     0.072     2.065     2.247
   183   1 H        0.925     0.055     2.255     2.348
   184   1 H        0.925     0.048     2.348     2.396
   185   1 H        0.925     0.036     2.505     2.475
   186   1 H        0.925     0.043     2.403     2.424
   187   1 H        0.924     0.064     2.155     2.296
   188   1 H        0.924     0.054     2.276     2.359
   189   1 H        0.925     0.039     2.467     2.456
   190   1 H        0.925     0.050     2.323     2.383
   191   1 H        0.925     0.043     2.415     2.430
   192   1 H        0.926     0.038     2.474     2.459
   193   1 H        0.926     0.039     2.459     2.452
   194   1 H        0.925     0.054     2.266     2.354
   195   1 H        0.925     0.045     2.383     2.414
   196   1 H        0.925     0.051     2.310     2.377
   197   1 H        0.926     0.043     2.414     2.430
   198   1 H        0.926     0.036     2.508     2.477
   199   1 H        0.926     0.032     2.562     2.503
   200   1 H        0.926     0.048     2.340     2.392
   201   1 H        0.925     0.048     2.344     2.394
   202   1 H        0.925     0.051     2.313     2.379
   203   1 H        0.925     0.047     2.353     2.399
   204   1 H        0.926     0.041     2.440     2.443
   205   1 H        0.926     0.045     2.377     2.411
   206   1 H        0.926     0.040     2.450     2.448
   207   1 H        0.926     0.046     2.370     2.407
   208   1 H        0.924     0.054     2.271     2.357
   209   1 H        0.925     0.048     2.341     2.393
   210   1 H        0.925     0.055     2.257     2.349
   211   1 H        0.926     0.039     2.461     2.453
   212   1 H        0.926     0.043     2.411     2.428
   213   1 H        0.926     0.057     2.234     2.337
   214   1 H        0.926     0.045     2.377     2.411
   215   1 H        0.925     0.046     2.368     2.406
   216   1 H        0.925     0.053     2.286     2.364
   217   1 H        0.925     0.049     2.328     2.386
   218   1 H        0.926     0.040     2.448     2.447
   219   1 H        0.926     0.037     2.486     2.466
   220   1 H        0.925     0.064     2.153     2.295
   221   1 H        0.926     0.055     2.255     2.348
   222   1 H        0.926     0.054     2.266     2.354
   223   1 H        0.925     0.046     2.364     2.405
   224   1 H        0.925     0.038     2.477     2.461
   225   1 H        0.926     0.032     2.562     2.503
   226   1 H        0.926     0.032     2.561     2.503
   227   1 H        0.925     0.037     2.496     2.471
   228   1 H        0.925     0.040     2.444     2.445
   229   1 H        0.925     0.041     2.433     2.439
   230   1 H        0.925     0.045     2.380     2.413

 Mol. C6AA /au·bohr⁶  :     838336.553795
 Mol. C8AA /au·bohr⁸  :   22797144.905495
 Mol. α(0) /au        :       1460.026042


Wiberg/Mayer (AO) data.
largest (>0.10) Wiberg bond orders for each atom

 ---------------------------------------------------------------------------
     #   Z sym  total        # sym  WBO       # sym  WBO       # sym  WBO
 ---------------------------------------------------------------------------
     1   6 C    3.947 --     2 C    1.423    24 C    1.354   143 H    0.945
     2   6 C    3.954 --     1 C    1.423    11 C    1.181     3 C    1.055
     3   6 C    3.925 --     4 O    1.695     2 C    1.055     5 C    1.017
     4   8 O    1.988 --     3 C    1.695
     5   6 C    3.974 --     6 C    1.391    10 C    1.310     3 C    1.017
     6   6 C    3.982 --     7 C    1.434     5 C    1.391   144 H    0.964
     7   6 C    3.955 --     6 C    1.434     8 C    1.333    23 C    0.996
     8   6 C    3.966 --     9 C    1.443     7 C    1.333    17 C    0.996
     9   6 C    3.978 --     8 C    1.443    10 C    1.372   145 H    0.959
    10   6 C    3.982 --     9 C    1.372     5 C    1.310    11 C    1.083
    11   6 C    3.970 --    12 C    1.432     2 C    1.181    10 C    1.083
    12   6 C    3.951 --    11 C    1.432    13 C    1.113    15 C    1.111
    13   6 C    3.941 --    14 N    2.734    12 C    1.113
    14   7 N    2.948 --    13 C    2.734
    15   6 C    3.941 --    16 N    2.731    12 C    1.111
    16   7 N    2.954 --    15 C    2.731
    17   6 C    3.985 --     8 C    0.996    23 C    0.978   146 H    0.959
                            18 C    0.948
    18   6 C    3.990 --    19 C    1.010    22 C    0.985   147 H    0.972
                            17 C    0.948
    19   6 C    3.987 --    20 C    1.924    18 C    1.010   148 H    0.971
    20   6 C    3.987 --    19 C    1.924    21 C    1.010   149 H    0.971
    21   6 C    3.989 --    20 C    1.010    22 C    0.985   150 H    0.972
                            23 C    0.947
    22   6 C    3.993 --    18 C    0.985    21 C    0.985   152 H    0.978
                           151 H    0.977
    23   6 C    3.984 --     7 C    0.996    17 C    0.978   153 H    0.959
                            21 C    0.947
    24   6 C    3.924 --     1 C    1.354    25 C    1.288    65 S    1.055
    25   6 C    3.951 --    24 C    1.288    43 C    1.231    26 N    1.166
    26   7 N    3.563 --    25 C    1.166    35 C    1.079    27 C    1.009
    27   6 C    3.956 --    34 C    1.381    28 C    1.357    26 N    1.009
    28   6 C    3.985 --    29 C    1.477    27 C    1.357   154 H    0.963
    29   6 C    3.988 --    28 C    1.477    30 C    1.365   155 H    0.966
                            34 C    0.101
    30   6 C    3.955 --    33 C    1.385    29 C    1.365    31 S    1.062
    31  16 S    2.267 --    30 C    1.062    32 C    1.008
    32   6 C    3.972 --    31 S    1.008   158 H    0.981   156 H    0.981
                           157 H    0.977
    33   6 C    3.987 --    34 C    1.450    30 C    1.385   159 H    0.964
    34   6 C    3.980 --    33 C    1.450    27 C    1.381   160 H    0.967
                            29 C    0.101
    35   6 C    3.962 --    42 C    1.353    36 C    1.326    26 N    1.079
    36   6 C    3.982 --    37 C    1.492    35 C    1.326   161 H    0.964
    37   6 C    3.988 --    36 C    1.492    38 C    1.352   162 H    0.966
    38   6 C    3.958 --    41 C    1.384    37 C    1.352    39 S    1.063
    39  16 S    2.273 --    38 C    1.063    40 C    1.009
    40   6 C    3.970 --    39 S    1.009   164 H    0.980   165 H    0.977
                           163 H    0.975
    41   6 C    3.989 --    42 C    1.450    38 C    1.384   166 H    0.964
    42   6 C    3.985 --    41 C    1.450    35 C    1.353   167 H    0.966
    43   6 C    3.933 --    64 C    1.367    25 C    1.231    44 S    1.115
    44  16 S    2.569 --    43 C    1.115    45 C    1.100
    45   6 C    3.896 --    46 C    1.403    66 C    1.136    44 S    1.100
    46   6 C    3.940 --    45 C    1.403    64 C    1.221    47 N    1.099
    47   7 N    3.509 --    46 C    1.099    48 C    1.082    56 C    1.029
    48   6 C    3.965 --    49 C    1.353    55 C    1.343    47 N    1.082
    49   6 C    3.980 --    50 C    1.458    48 C    1.353   168 H    0.963
    50   6 C    3.988 --    49 C    1.458    51 C    1.385   169 H    0.963
    51   6 C    3.947 --    50 C    1.385    54 C    1.369    52 S    1.039
    52  16 S    2.238 --    51 C    1.039    53 C    1.006
    53   6 C    3.971 --    52 S    1.006   172 H    0.981   170 H    0.981
                           171 H    0.978
    54   6 C    3.988 --    55 C    1.476    51 C    1.369   173 H    0.962
    55   6 C    3.985 --    54 C    1.476    48 C    1.343   174 H    0.966
    56   6 C    3.960 --    57 C    1.365    63 C    1.361    47 N    1.029
    57   6 C    3.984 --    58 C    1.452    56 C    1.365   175 H    0.965
    58   6 C    3.988 --    57 C    1.452    59 C    1.387   176 H    0.965
    59   6 C    3.955 --    58 C    1.387    62 C    1.370    60 S    1.050
    60  16 S    2.242 --    59 C    1.050    61 C    1.004
    61   6 C    3.967 --    60 S    1.004   179 H    0.982   178 H    0.977
                           177 H    0.976
    62   6 C    3.988 --    63 C    1.472    59 C    1.370   180 H    0.967
    63   6 C    3.984 --    62 C    1.472    56 C    1.361   181 H    0.966
    64   6 C    3.928 --    43 C    1.367    46 C    1.221    65 S    1.117
    65  16 S    2.511 --    64 C    1.117    24 C    1.055
    66   6 C    3.926 --    67 C    1.369    79 C    1.192    45 C    1.136
    67   6 C    3.858 --    66 C    1.369    69 C    1.318    68 F    0.961
    68   9 F    1.108 --    67 C    0.961
    69   6 C    3.860 --    71 C    1.350    67 C    1.318    70 F    0.963
    70   9 F    1.093 --    69 C    0.963
    71   6 C    3.944 --    69 C    1.350    72 C    1.183    82 C    1.183
    72   6 C    3.974 --    73 N    1.320    79 C    1.233    71 C    1.183
    73   7 N    3.163 --    74 C    1.486    72 C    1.320   119 S    0.112
    74   6 C    3.943 --    73 N    1.486    77 C    1.232    75 C    1.014
    75   6 C    3.990 --    74 C    1.014    76 C    0.991   183 H    0.967
                           182 H    0.962
    76   6 C    3.990 --    75 C    0.991   186 H    0.988   185 H    0.986
                           184 H    0.983
    77   6 C    3.955 --    78 N    1.502    74 C    1.232    80 C    1.011
    78   7 N    3.053 --    77 C    1.502    79 C    1.309
    79   6 C    3.975 --    78 N    1.309    72 C    1.233    66 C    1.192
    80   6 C    3.991 --    77 C    1.011    81 C    0.993   188 H    0.966
                           187 H    0.965
    81   6 C    3.990 --    80 C    0.993   191 H    0.988   189 H    0.987
                           190 H    0.984
    82   6 C    3.907 --    83 C    1.369    71 C    1.183   119 S    1.092
    83   6 C    3.938 --    82 C    1.369    99 C    1.223    84 N    1.123
    84   7 N    3.499 --    83 C    1.123    92 C    1.042    85 C    1.041
    85   6 C    3.961 --    86 C    1.372    91 C    1.359    84 N    1.041
    86   6 C    3.976 --    87 C    1.454    85 C    1.372   192 H    0.967
                            90 C    0.105
    87   6 C    3.989 --    86 C    1.454    88 C    1.405   193 H    0.968
                            91 C    0.101
    88   6 C    3.971 --    87 C    1.405    90 C    1.397    89 C    1.028
    89   6 C    3.995 --    88 C    1.028   195 H    0.986   196 H    0.973
                           194 H    0.969
    90   6 C    3.989 --    91 C    1.463    88 C    1.397   197 H    0.969
                            86 C    0.105
    91   6 C    3.982 --    90 C    1.463    85 C    1.359   198 H    0.967
                            87 C    0.101
    92   6 C    3.961 --    93 C    1.376    98 C    1.363    84 N    1.042
    93   6 C    3.984 --    94 C    1.452    92 C    1.376   199 H    0.968
                            97 C    0.104
    94   6 C    3.987 --    93 C    1.452    95 C    1.406   200 H    0.961
                            98 C    0.102
    95   6 C    3.978 --    94 C    1.406    97 C    1.396    96 C    1.026
    96   6 C    3.995 --    95 C    1.026   203 H    0.985   201 H    0.972
                           202 H    0.971
    97   6 C    3.990 --    98 C    1.466    95 C    1.396   204 H    0.969
                            93 C    0.104
    98   6 C    3.982 --    97 C    1.466    92 C    1.363   205 H    0.967
                            94 C    0.102
    99   6 C    3.931 --   118 C    1.362    83 C    1.223   100 S    1.122
   100  16 S    2.519 --    99 C    1.122   101 C    1.061
   101   6 C    3.919 --   120 C    1.336   102 C    1.293   100 S    1.061
   102   6 C    3.944 --   101 C    1.293   118 C    1.235   103 N    1.165
   103   7 N    3.564 --   102 C    1.165   104 C    1.050   111 C    1.028
   104   6 C    3.963 --   110 C    1.364   105 C    1.356   103 N    1.050
   105   6 C    3.987 --   106 C    1.475   104 C    1.356   206 H    0.968
                           109 C    0.103
   106   6 C    3.989 --   105 C    1.475   107 C    1.383   207 H    0.968
   107   6 C    3.980 --   109 C    1.414   106 C    1.383   108 C    1.030
   108   6 C    3.994 --   107 C    1.030   209 H    0.984   210 H    0.975
                           208 H    0.964
   109   6 C    3.990 --   110 C    1.443   107 C    1.414   211 H    0.968
                           105 C    0.103
   110   6 C    3.982 --   109 C    1.443   104 C    1.364   212 H    0.966
   111   6 C    3.958 --   112 C    1.373   117 C    1.369   103 N    1.028
   112   6 C    3.984 --   113 C    1.450   111 C    1.373   213 H    0.964
                           116 C    0.104
   113   6 C    3.988 --   112 C    1.450   114 C    1.404   214 H    0.967
                           117 C    0.102
   114   6 C    3.973 --   113 C    1.404   116 C    1.397   115 C    1.027
   115   6 C    3.995 --   114 C    1.027   215 H    0.984   217 H    0.975
                           216 H    0.968
   116   6 C    3.989 --   117 C    1.463   114 C    1.397   218 H    0.969
                           112 C    0.104
   117   6 C    3.976 --   116 C    1.463   111 C    1.369   219 H    0.967
                           113 C    0.102
   118   6 C    3.933 --    99 C    1.362   102 C    1.235   119 S    1.101
   119  16 S    2.646 --   118 C    1.101    82 C    1.092    73 N    0.112
   120   6 C    3.952 --   121 C    1.445   101 C    1.336   220 H    0.947
   121   6 C    3.953 --   120 C    1.445   130 C    1.175   122 C    1.053
   122   6 C    3.926 --   123 O    1.697   121 C    1.053   124 C    1.015
   123   8 O    1.996 --   122 C    1.697
   124   6 C    3.975 --   125 C    1.391   129 C    1.314   122 C    1.015
   125   6 C    3.981 --   126 C    1.435   124 C    1.391   221 H    0.964
   126   6 C    3.958 --   125 C    1.435   127 C    1.336   142 C    0.995
   127   6 C    3.966 --   128 C    1.443   126 C    1.336   136 C    0.996
   128   6 C    3.978 --   127 C    1.443   129 C    1.374   222 H    0.959
   129   6 C    3.981 --   128 C    1.374   124 C    1.314   130 C    1.080
   130   6 C    3.972 --   131 C    1.445   121 C    1.175   129 C    1.080
   131   6 C    3.948 --   130 C    1.445   134 C    1.111   132 C    1.105
   132   6 C    3.942 --   133 N    2.744   131 C    1.105
   133   7 N    2.956 --   132 C    2.744
   134   6 C    3.941 --   135 N    2.739   131 C    1.111
   135   7 N    2.948 --   134 C    2.739
   136   6 C    3.985 --   127 C    0.996   142 C    0.978   223 H    0.960
                           137 C    0.948
   137   6 C    3.990 --   138 C    1.010   141 C    0.985   224 H    0.972
                           136 C    0.948
   138   6 C    3.987 --   139 C    1.924   137 C    1.010   225 H    0.971
   139   6 C    3.987 --   138 C    1.924   140 C    1.010   226 H    0.971
   140   6 C    3.989 --   139 C    1.010   141 C    0.985   227 H    0.972
                           142 C    0.948
   141   6 C    3.993 --   137 C    0.985   140 C    0.985   228 H    0.978
                           229 H    0.977
   142   6 C    3.984 --   126 C    0.995   136 C    0.978   230 H    0.960
                           140 C    0.948
   143   1 H    0.993 --     1 C    0.945
   144   1 H    0.996 --     6 C    0.964
   145   1 H    0.997 --     9 C    0.959
   146   1 H    0.996 --    17 C    0.959
   147   1 H    0.998 --    18 C    0.972
   148   1 H    0.999 --    19 C    0.971
   149   1 H    0.999 --    20 C    0.971
   150   1 H    0.998 --    21 C    0.972
   151   1 H    0.996 --    22 C    0.977
   152   1 H    0.998 --    22 C    0.978
   153   1 H    0.996 --    23 C    0.959
   154   1 H    0.996 --    28 C    0.963
   155   1 H    0.996 --    29 C    0.966
   156   1 H    0.995 --    32 C    0.981
   157   1 H    0.994 --    32 C    0.977
   158   1 H    0.995 --    32 C    0.981
   159   1 H    0.997 --    33 C    0.964
   160   1 H    0.998 --    34 C    0.967
   161   1 H    0.997 --    36 C    0.964
   162   1 H    0.997 --    37 C    0.966
   163   1 H    0.994 --    40 C    0.975
   164   1 H    0.995 --    40 C    0.980
   165   1 H    0.995 --    40 C    0.977
   166   1 H    0.997 --    41 C    0.964
   167   1 H    0.998 --    42 C    0.966
   168   1 H    0.998 --    49 C    0.963
   169   1 H    0.998 --    50 C    0.963
   170   1 H    0.996 --    53 C    0.981
   171   1 H    0.995 --    53 C    0.978
   172   1 H    0.996 --    53 C    0.981
   173   1 H    0.997 --    54 C    0.962
   174   1 H    0.998 --    55 C    0.966
   175   1 H    0.998 --    57 C    0.965
   176   1 H    0.997 --    58 C    0.965
   177   1 H    0.993 --    61 C    0.976
   178   1 H    0.995 --    61 C    0.977
   179   1 H    0.996 --    61 C    0.982
   180   1 H    0.997 --    62 C    0.967
   181   1 H    0.997 --    63 C    0.966
   182   1 H    0.994 --    75 C    0.962
   183   1 H    0.996 --    75 C    0.967
   184   1 H    0.996 --    76 C    0.983
   185   1 H    0.999 --    76 C    0.986
   186   1 H    0.998 --    76 C    0.988
   187   1 H    0.995 --    80 C    0.965
   188   1 H    0.996 --    80 C    0.966
   189   1 H    0.998 --    81 C    0.987
   190   1 H    0.996 --    81 C    0.984
   191   1 H    0.998 --    81 C    0.988
   192   1 H    0.998 --    86 C    0.967
   193   1 H    0.998 --    87 C    0.968
   194   1 H    0.995 --    89 C    0.969
   195   1 H    0.998 --    89 C    0.986
   196   1 H    0.996 --    89 C    0.973
   197   1 H    0.997 --    90 C    0.969
   198   1 H    0.998 --    91 C    0.967
   199   1 H    0.999 --    93 C    0.968
   200   1 H    0.997 --    94 C    0.961
   201   1 H    0.996 --    96 C    0.972
   202   1 H    0.996 --    96 C    0.971
   203   1 H    0.997 --    96 C    0.985
   204   1 H    0.998 --    97 C    0.969
   205   1 H    0.997 --    98 C    0.967
   206   1 H    0.998 --   105 C    0.968
   207   1 H    0.997 --   106 C    0.968
   208   1 H    0.995 --   108 C    0.964
   209   1 H    0.997 --   108 C    0.984
   210   1 H    0.996 --   108 C    0.975
   211   1 H    0.998 --   109 C    0.968
   212   1 H    0.998 --   110 C    0.966
   213   1 H    0.997 --   112 C    0.964
   214   1 H    0.997 --   113 C    0.967
   215   1 H    0.998 --   115 C    0.984
   216   1 H    0.996 --   115 C    0.968
   217   1 H    0.996 --   115 C    0.975
   218   1 H    0.998 --   116 C    0.969
   219   1 H    0.998 --   117 C    0.967
   220   1 H    0.993 --   120 C    0.947
   221   1 H    0.996 --   125 C    0.964
   222   1 H    0.997 --   128 C    0.959
   223   1 H    0.996 --   136 C    0.960
   224   1 H    0.998 --   137 C    0.972
   225   1 H    0.999 --   138 C    0.971
   226   1 H    0.999 --   139 C    0.971
   227   1 H    0.998 --   140 C    0.972
   228   1 H    0.998 --   141 C    0.978
   229   1 H    0.996 --   141 C    0.977
   230   1 H    0.996 --   142 C    0.960
 ---------------------------------------------------------------------------

Topologies differ in bond orders
Writing corrected topology to xtbtopo.mol

molecular dipole:
                 x           y           z       tot (Debye)
 q only:        1.966       0.438      -1.267
   full:        2.133       0.601      -1.449       6.729
molecular quadrupole (traceless):
                xx          xy          yy          xz          yz          zz
 q only:      113.663      89.502     -45.974     -54.680      79.154     -67.689
  q+dip:      114.399      92.631     -43.795     -61.945      89.899     -70.605
   full:      113.312      88.731     -42.805     -59.179      97.143     -70.508


           -------------------------------------------------
          | TOTAL ENERGY             -374.696569550279 Eh   |
          | GRADIENT NORM               0.024134146428 Eh/α |
          | HOMO-LUMO GAP               0.603545576093 eV   |
           -------------------------------------------------

------------------------------------------------------------------------
 * finished run on 2022/02/13 at 08:11:25.453     
------------------------------------------------------------------------
 total:
 * wall-time:     0 d,  0 h,  0 min,  1.130 sec
 *  cpu-time:     0 d,  0 h,  0 min,  8.901 sec
 * ratio c/w:     7.879 speedup
 SCF:
 * wall-time:     0 d,  0 h,  0 min,  1.012 sec
 *  cpu-time:     0 d,  0 h,  0 min,  8.068 sec
 * ratio c/w:     7.971 speedup

