      -----------------------------------------------------------      
     |                   =====================                   |     
     |                           x T B                           |     
     |                   =====================                   |     
     |                         S. Grimme                         |     
     |          Mulliken Center for Theoretical Chemistry        |     
     |                    University of Bonn                     |     
      -----------------------------------------------------------      

   * xtb version 6.4.1 (unknown) compiled by 'oda6@login1.crc.pitt.edu' on 2021-06-25

   xtb is free software: you can redistribute it and/or modify it under
   the terms of the GNU Lesser General Public License as published by
   the Free Software Foundation, either version 3 of the License, or
   (at your option) any later version.
   
   xtb is distributed in the hope that it will be useful,
   but WITHOUT ANY WARRANTY; without even the implied warranty of
   MERCHANTABILITY or FITNESS FOR A PARTICULAR PURPOSE.  See the
   GNU Lesser General Public License for more details.
   
   Cite this work as:
   * C. Bannwarth, E. Caldeweyher, S. Ehlert, A. Hansen, P. Pracht,
     J. Seibert, S. Spicher, S. Grimme, WIREs Comput. Mol. Sci., 2020, 11,
     e01493. DOI: 10.1002/wcms.1493
   
   for GFN2-xTB:
   * C. Bannwarth, S. Ehlert and S. Grimme., J. Chem. Theory Comput., 2019,
     15, 1652-1671. DOI: 10.1021/acs.jctc.8b01176
   for GFN1-xTB:
   * S. Grimme, C. Bannwarth, P. Shushkov, J. Chem. Theory Comput., 2017,
     13, 1989-2009. DOI: 10.1021/acs.jctc.7b00118
   for GFN0-xTB:
   * P. Pracht, E. Caldeweyher, S. Ehlert, S. Grimme, ChemRxiv, 2019, preprint.
     DOI: 10.26434/chemrxiv.8326202.v1
   for GFN-FF:
   * S. Spicher and S. Grimme, Angew. Chem. Int. Ed., 2020, 59, 15665-15673.
     DOI: 10.1002/anie.202004239
   
   for DFT-D4:
   * E. Caldeweyher, C. Bannwarth and S. Grimme, J. Chem. Phys., 2017,
     147, 034112. DOI: 10.1063/1.4993215
   * E. Caldeweyher, S. Ehlert, A. Hansen, H. Neugebauer, S. Spicher,
     C. Bannwarth and S. Grimme, J. Chem. Phys., 2019, 150, 154122.
     DOI: 10.1063/1.5090222
   * E. Caldeweyher, J.-M. Mewes, S. Ehlert and S. Grimme, Phys. Chem. Chem. Phys.
     2020, 22, 8499-8512. DOI: 10.1039/D0CP00502A
   
   for sTDA-xTB:
   * S. Grimme and C. Bannwarth, J. Chem. Phys., 2016, 145, 054103.
     DOI: 10.1063/1.4959605
   
   in the mass-spec context:
   * V. Asgeirsson, C. Bauer and S. Grimme, Chem. Sci., 2017, 8, 4879.
     DOI: 10.1039/c7sc00601b
   * J. Koopman and S. Grimme, ACS Omega 2019, 4, 12, 15120-15133.
     DOI: 10.1021/acsomega.9b02011
   
   for metadynamics refer to:
   * S. Grimme, J. Chem. Theory Comput., 2019, 155, 2847-2862
     DOI: 10.1021/acs.jctc.9b00143
   
   for SPH calculations refer to:
   * S. Spicher and S. Grimme, J. Chem. Theory Comput., 2021, 17, 1701-1714
     DOI: 10.1021/acs.jctc.0c01306
   
   with help from (in alphabetical order)
   P. Atkinson, C. Bannwarth, F. Bohle, G. Brandenburg, E. Caldeweyher
   M. Checinski, S. Dohm, S. Ehlert, S. Ehrlich, I. Gerasimov, J. Koopman
   C. Lavigne, S. Lehtola, F. März, M. Müller, F. Musil, H. Neugebauer
   J. Pisarek, C. Plett, P. Pracht, J. Seibert, P. Shushkov, S. Spicher
   M. Stahn, M. Steiner, T. Strunk, J. Stückrath, T. Rose, and J. Unsleber
   
 * started run on 2022/02/12 at 22:41:30.772     

           -------------------------------------------------
          |                Calculation Setup                |
           -------------------------------------------------

          program call               : /ihome/ghutchison/oda6/xtb/xtb-641/bin/xtb ../../GFN2_output/39_167_130_164_51.mol --sp --alpb hexane
          hostname                   : smp-n25
          coordinate file            : ../../GFN2_output/39_167_130_164_51.mol
          omp threads                :                     8
          number of atoms            :                   166
          number of electrons        :                   534
          charge                     :                     0
          spin                       :                   0.0
          first test random number   :      0.68040513658637

   ID    Z sym.   atoms
    1    6 C      1-3, 5-13, 15, 17-30, 32-35, 37-48, 51, 53, 54, 56, 57,
                  59-62, 64-70, 72-75, 77, 78, 80-83, 85-91, 93-96, 98-100,
                  102, 104-106, 108
    2    8 O      4
    3    7 N      14, 16, 58, 79, 107, 109
    4    9 F      31, 36, 49, 50, 101
    5   16 S      52, 55, 63, 71, 76, 84, 92, 97, 103
    6    1 H      110-166

           -------------------------------------------------
          |                 G F N 2 - x T B                 |
           -------------------------------------------------

        Reference                      10.1021/acs.jctc.8b01176
      * Hamiltonian:
        H0-scaling (s, p, d)           1.850000    2.230000    2.230000
        zeta-weighting                 0.500000
      * Dispersion:
        s8                             2.700000
        a1                             0.520000
        a2                             5.000000
        s9                             5.000000
      * Repulsion:
        kExp                           1.500000    1.000000
        rExp                           1.000000
      * Coulomb:
        alpha                          2.000000
        third order                    shell-resolved
        anisotropic                    true
        a3                             3.000000
        a5                             4.000000
        cn-shift                       1.200000
        cn-exp                         4.000000
        max-rad                        5.000000

      * Solvation model:               ALPB
        Solvent                        hexane
        Parameter file                 internal GFN2-xTB/ALPB
        Dielectric constant                1.8800E+00
        Reference state                gsolv [1 M gas/solution]
        Free energy shift                  4.8134E-03 Eh       3.0204E+00 kcal/mol
        Temperature                        2.9815E+02 K
        Density                            6.6000E-01 kg/L
        Solvent mass                       8.6180E+01 g/mol
        Interaction kernel             P16
        Born radius scaling (c1)           1.1040E+00
        Born radii integrator          GBOBC
        Born offset                        0.0000E+00 a0       0.0000E+00 AA
        H-bond correction              false
        Ion screening                  false
        Surface tension                    1.0000E-05 Eh       1.5569E+01 dyn/cm
        Grid points                               230 per atom

          ...................................................
          :                      SETUP                      :
          :.................................................:
          :  # basis functions                 547          :
          :  # atomic orbitals                 538          :
          :  # shells                          284          :
          :  # electrons                       534          :
          :  max. iterations                   250          :
          :  Hamiltonian                  GFN2-xTB          :
          :  restarted?                      false          :
          :  GBSA solvation                   true          :
          :  PC potential                    false          :
          :  electronic temp.          300.0000000     K    :
          :  accuracy                    1.0000000          :
          :  -> integral cutoff          0.2500000E+02      :
          :  -> integral neglect         0.1000000E-07      :
          :  -> SCF convergence          0.1000000E-05 Eh   :
          :  -> wf. convergence          0.1000000E-03 e    :
          :  Broyden damping             0.4000000          :
          ...................................................

 iter      E             dE          RMSdq      gap      omega  full diag
   1   -296.2515662 -0.296252E+03  0.464E+00    0.85       0.0  T
   2   -296.4150706 -0.163504E+00  0.270E+00    0.96       1.0  T
   3   -296.2731424  0.141928E+00  0.143E+00    0.51       1.0  T
   4   -296.4742168 -0.201074E+00  0.461E-01    0.64       1.0  T
   5   -296.4893785 -0.151617E-01  0.189E-01    0.59       1.0  T
   6   -296.4909223 -0.154387E-02  0.743E-02    0.64       1.0  T
   7   -296.4912665 -0.344165E-03  0.283E-02    0.64       1.0  T
   8   -296.4912992 -0.327475E-04  0.166E-02    0.64       1.0  T
   9   -296.4913142 -0.149569E-04  0.782E-03    0.64       1.0  T
  10   -296.4913169 -0.270438E-05  0.345E-03    0.64       2.2  T
  11   -296.4913175 -0.637484E-06  0.176E-03    0.64       4.4  T
  12   -296.4913176 -0.659529E-07  0.927E-04    0.64       8.4  T
  13   -296.4913177 -0.438287E-07  0.421E-04    0.64      18.4  T

   *** convergence criteria satisfied after 13 iterations ***

         #    Occupation            Energy/Eh            Energy/eV
      -------------------------------------------------------------
         1        2.0000           -0.8473548             -23.0577
       ...           ...                  ...                  ...
       261        2.0000           -0.3915447             -10.6545
       262        2.0000           -0.3838626             -10.4454
       263        2.0000           -0.3742315             -10.1834
       264        2.0000           -0.3733603             -10.1597
       265        2.0000           -0.3723452             -10.1320
       266        2.0000           -0.3588993              -9.7661
       267        2.0000           -0.3578582              -9.7378 (HOMO)
       268        0.0000           -0.3344387              -9.1005 (LUMO)
       269                         -0.3278036              -8.9200
       270                         -0.3215263              -8.7492
       271                         -0.3005003              -8.1770
       272                         -0.2829838              -7.7004
       ...                                ...                  ...
       538                          1.1619329              31.6178
      -------------------------------------------------------------
                  HL-Gap            0.0234195 Eh            0.6373 eV
             Fermi-level           -0.3460119 Eh           -9.4155 eV

 SCC (total)                   0 d,  0 h,  0 min,  1.665 sec
 SCC setup                      ...        0 min,  0.025 sec (  1.486%)
 Dispersion                     ...        0 min,  0.018 sec (  1.107%)
 classical contributions        ...        0 min,  0.001 sec (  0.049%)
 integral evaluation            ...        0 min,  0.050 sec (  3.030%)
 iterations                     ...        0 min,  1.450 sec ( 87.066%)
 molecular gradient             ...        0 min,  0.117 sec (  7.033%)
 printout                       ...        0 min,  0.004 sec (  0.224%)

         :::::::::::::::::::::::::::::::::::::::::::::::::::::
         ::                     SUMMARY                     ::
         :::::::::::::::::::::::::::::::::::::::::::::::::::::
         :: total energy            -291.985034373962 Eh    ::
         :: total w/o Gsasa/hb      -291.889557106284 Eh    ::
         :: gradient norm              0.020402369391 Eh/a0 ::
         :: HOMO-LUMO gap              0.637277447065 eV    ::
         ::.................................................::
         :: SCC energy              -296.491317652675 Eh    ::
         :: -> isotropic ES            0.153641422884 Eh    ::
         :: -> anisotropic ES          0.010620309918 Eh    ::
         :: -> anisotropic XC          0.160718208172 Eh    ::
         :: -> dispersion             -0.284263474963 Eh    ::
         :: -> Gsolv                  -0.119728328354 Eh    ::
         ::    -> Gelec               -0.024251060676 Eh    ::
         ::    -> Gsasa               -0.100290623497 Eh    ::
         ::    -> Ghb                  0.000000000000 Eh    ::
         ::    -> Gshift               0.004813355820 Eh    ::
         :: repulsion energy           4.502224603585 Eh    ::
         :: add. restraining           0.000000000000 Eh    ::
         :: total charge              -0.000000000000 e     ::
         :::::::::::::::::::::::::::::::::::::::::::::::::::::

           -------------------------------------------------
          |                Property Printout                |
           -------------------------------------------------

    * Orbital Energies and Occupations

         #    Occupation            Energy/Eh            Energy/eV
      -------------------------------------------------------------
         1        2.0000           -0.8473548             -23.0577
       ...           ...                  ...                  ...
       255        2.0000           -0.4133888             -11.2489
       256        2.0000           -0.4118959             -11.2083
       257        2.0000           -0.4058270             -11.0431
       258        2.0000           -0.4045577             -11.0086
       259        2.0000           -0.3990276             -10.8581
       260        2.0000           -0.3949404             -10.7469
       261        2.0000           -0.3915447             -10.6545
       262        2.0000           -0.3838626             -10.4454
       263        2.0000           -0.3742315             -10.1834
       264        2.0000           -0.3733603             -10.1597
       265        2.0000           -0.3723452             -10.1320
       266        2.0000           -0.3588993              -9.7661
       267        2.0000           -0.3578582              -9.7378 (HOMO)
       268        0.0000           -0.3344387              -9.1005 (LUMO)
       269                         -0.3278036              -8.9200
       270                         -0.3215263              -8.7492
       271                         -0.3005003              -8.1770
       272                         -0.2829838              -7.7004
       273                         -0.2703686              -7.3571
       274                         -0.2605813              -7.0908
       275                         -0.2571787              -6.9982
       276                         -0.2541854              -6.9167
       277                         -0.2522085              -6.8629
       278                         -0.2504575              -6.8153
       ...                                ...                  ...
       538                          1.1619329              31.6178
      -------------------------------------------------------------
                  HL-Gap            0.0234195 Eh            0.6373 eV
             Fermi-level           -0.3460119 Eh           -9.4155 eV

     #   Z          covCN         q      C6AA      α(0)
     1   6 C        2.917    -0.012    28.309     8.725
     2   6 C        3.002    -0.031    28.752     8.796
     3   6 C        2.872     0.235    23.094     7.878
     4   8 O        0.942    -0.389    21.428     6.208
     5   6 C        3.059    -0.019    28.425     8.743
     6   6 C        2.904    -0.020    28.516     8.756
     7   6 C        3.261     0.012    26.579     8.329
     8   6 C        3.256     0.013    26.605     8.340
     9   6 C        2.904    -0.033    28.824     8.803
    10   6 C        3.048     0.007    27.824     8.651
    11   6 C        3.018     0.038    27.132     8.544
    12   6 C        2.947     0.010    27.792     8.646
    13   6 C        1.947     0.132    27.855     8.523
    14   7 N        0.911    -0.266    26.895     7.501
    15   6 C        1.948     0.135    27.787     8.513
    16   7 N        0.911    -0.263    26.819     7.490
    17   6 C        4.163    -0.024    20.921     6.496
    18   6 C        4.011    -0.015    20.765     6.473
    19   6 C        2.987    -0.041    29.019     8.837
    20   6 C        2.987    -0.042    29.033     8.839
    21   6 C        4.011    -0.015    20.763     6.473
    22   6 C        3.926    -0.060    21.596     6.604
    23   6 C        4.162    -0.024    20.921     6.496
    24   6 C        2.976     0.036    27.183     8.552
    25   6 C        3.073    -0.044    29.020     8.833
    26   6 C        3.117    -0.001    27.887     8.650
    27   6 C        2.989     0.002    27.971     8.675
    28   6 C        2.980     0.018    27.596     8.617
    29   6 C        2.924    -0.059    29.467     8.902
    30   6 C        2.796     0.169    24.354     8.084
    31   9 F        0.788    -0.230    11.550     4.014
    32   6 C        2.963    -0.010    28.265     8.720
    33   6 C        3.804    -0.045    21.381     6.583
    34   6 C        3.753    -0.105    22.560     6.773
    35   6 C        2.797     0.165    24.423     8.096
    36   9 F        0.787    -0.239    11.651     4.032
    37   6 C        2.919    -0.058    29.444     8.898
    38   6 C        3.005     0.028    27.365     8.581
    39   6 C        3.128     0.004    27.734     8.623
    40   6 C        2.995    -0.002    28.058     8.689
    41   6 C        2.981     0.018    27.591     8.616
    42   6 C        2.922    -0.056    29.395     8.891
    43   6 C        2.796     0.169    24.344     8.083
    44   6 C        2.964    -0.011    28.285     8.723
    45   6 C        3.805    -0.047    21.415     6.588
    46   6 C        3.753    -0.102    22.516     6.766
    47   6 C        2.796     0.165    24.438     8.098
    48   6 C        2.920    -0.059    29.477     8.903
    49   9 F        0.787    -0.239    11.642     4.030
    50   9 F        0.787    -0.232    11.568     4.018
    51   6 C        3.014     0.017    27.623     8.621
    52  16 S        2.321    -0.003   141.193    19.999
    53   6 C        3.084    -0.061    29.408     8.890
    54   6 C        3.043     0.035    27.185     8.552
    55  16 S        2.265    -0.077   144.267    20.216
    56   6 C        3.010    -0.002    28.049     8.688
    57   6 C        3.051     0.051    26.807     8.491
    58   7 N        2.749    -0.059    22.378     7.026
    59   6 C        2.937     0.058    26.701     8.475
    60   6 C        2.924    -0.043    29.075     8.843
    61   6 C        2.943    -0.043    29.075     8.844
    62   6 C        2.966     0.050    26.870     8.503
    63  16 S        2.036    -0.175   148.482    20.509
    64   6 C        3.744    -0.052    21.587     6.628
    65   6 C        2.985    -0.038    28.928     8.823
    66   6 C        2.921    -0.040    29.000     8.831
    67   6 C        2.927     0.060    26.653     8.466
    68   6 C        2.922    -0.045    29.120     8.849
    69   6 C        2.978    -0.038    28.950     8.826
    70   6 C        2.967     0.046    26.954     8.516
    71  16 S        2.032    -0.192   149.215    20.559
    72   6 C        3.744    -0.052    21.574     6.626
    73   6 C        2.947    -0.041    29.022     8.836
    74   6 C        2.925    -0.047    29.161     8.856
    75   6 C        3.184     0.007    27.406     8.544
    76  16 S        2.344    -0.065   143.774    20.181
    77   6 C        3.041    -0.008    28.185     8.708
    78   6 C        3.041     0.053    26.767     8.486
    79   7 N        2.748    -0.055    22.300     7.014
    80   6 C        2.946     0.057    26.718     8.478
    81   6 C        2.924    -0.041    29.031     8.836
    82   6 C        2.944    -0.044    29.086     8.845
    83   6 C        2.966     0.050    26.869     8.502
    84  16 S        2.037    -0.166   148.080    20.481
    85   6 C        3.745    -0.054    21.609     6.631
    86   6 C        2.986    -0.037    28.903     8.819
    87   6 C        2.920    -0.037    28.914     8.818
    88   6 C        2.920     0.054    26.785     8.487
    89   6 C        2.921    -0.050    29.232     8.866
    90   6 C        2.943    -0.044    29.081     8.845
    91   6 C        2.964     0.050    26.875     8.503
    92  16 S        2.039    -0.160   147.820    20.463
    93   6 C        3.745    -0.056    21.653     6.638
    94   6 C        2.989    -0.038    28.929     8.823
    95   6 C        2.923    -0.046    29.131     8.851
    96   6 C        3.184     0.005    27.462     8.552
    97  16 S        2.322    -0.070   143.974    20.195
    98   6 C        3.043     0.032    27.235     8.559
    99   6 C        3.078    -0.072    29.711     8.937
   100   6 C        2.982     0.168    24.380     8.099
   101   9 F        0.786    -0.221    11.450     3.997
   102   6 C        2.975     0.001    28.008     8.681
   103  16 S        2.444    -0.008   141.406    20.014
   104   6 C        2.952     0.001    28.008     8.680
   105   6 C        2.947     0.017    27.629     8.621
   106   6 C        1.921     0.136    27.779     8.512
   107   7 N        0.911    -0.263    26.809     7.488
   108   6 C        1.926     0.128    27.951     8.538
   109   7 N        0.911    -0.253    26.584     7.457
   110   1 H        0.925     0.076     2.025     2.226
   111   1 H        0.926     0.064     2.152     2.294
   112   1 H        0.926     0.060     2.199     2.319
   113   1 H        0.925     0.051     2.313     2.378
   114   1 H        0.925     0.040     2.445     2.445
   115   1 H        0.926     0.033     2.542     2.493
   116   1 H        0.926     0.033     2.540     2.492
   117   1 H        0.925     0.039     2.458     2.452
   118   1 H        0.925     0.042     2.422     2.434
   119   1 H        0.925     0.044     2.401     2.423
   120   1 H        0.925     0.050     2.319     2.381
   121   1 H        0.926     0.063     2.166     2.301
   122   1 H        0.926     0.077     2.010     2.217
   123   1 H        0.924     0.058     2.228     2.334
   124   1 H        0.924     0.051     2.303     2.373
   125   1 H        0.925     0.048     2.349     2.397
   126   1 H        0.925     0.042     2.428     2.437
   127   1 H        0.925     0.050     2.326     2.385
   128   1 H        0.926     0.076     2.016     2.221
   129   1 H        0.926     0.077     2.008     2.216
   130   1 H        0.924     0.054     2.268     2.355
   131   1 H        0.924     0.057     2.240     2.340
   132   1 H        0.925     0.045     2.378     2.411
   133   1 H        0.925     0.046     2.369     2.407
   134   1 H        0.925     0.044     2.390     2.418
   135   1 H        0.926     0.072     2.060     2.244
   136   1 H        0.926     0.061     2.192     2.315
   137   1 H        0.926     0.039     2.469     2.457
   138   1 H        0.926     0.048     2.341     2.392
   139   1 H        0.925     0.062     2.173     2.305
   140   1 H        0.925     0.071     2.076     2.253
   141   1 H        0.925     0.063     2.160     2.298
   142   1 H        0.926     0.054     2.274     2.358
   143   1 H        0.926     0.047     2.357     2.401
   144   1 H        0.926     0.036     2.507     2.476
   145   1 H        0.926     0.048     2.346     2.395
   146   1 H        0.925     0.061     2.188     2.313
   147   1 H        0.925     0.070     2.087     2.259
   148   1 H        0.925     0.070     2.090     2.261
   149   1 H        0.926     0.058     2.228     2.334
   150   1 H        0.926     0.045     2.384     2.415
   151   1 H        0.926     0.043     2.410     2.428
   152   1 H        0.926     0.051     2.312     2.378
   153   1 H        0.925     0.064     2.157     2.297
   154   1 H        0.925     0.063     2.170     2.303
   155   1 H        0.925     0.072     2.066     2.248
   156   1 H        0.926     0.059     2.211     2.325
   157   1 H        0.926     0.052     2.293     2.368
   158   1 H        0.926     0.033     2.550     2.497
   159   1 H        0.926     0.045     2.379     2.412
   160   1 H        0.925     0.071     2.074     2.252
   161   1 H        0.925     0.056     2.245     2.343
   162   1 H        0.925     0.083     1.943     2.180
   163   1 H        0.926     0.055     2.261     2.351
   164   1 H        0.926     0.045     2.387     2.416
   165   1 H        0.926     0.072     2.069     2.249
   166   1 H        0.925     0.073     2.050     2.239

 Mol. C6AA /au·bohr⁶  :     490240.498850
 Mol. C8AA /au·bohr⁸  :   13938755.048994
 Mol. α(0) /au        :       1120.239358


Wiberg/Mayer (AO) data.
largest (>0.10) Wiberg bond orders for each atom

 ---------------------------------------------------------------------------
     #   Z sym  total        # sym  WBO       # sym  WBO       # sym  WBO
 ---------------------------------------------------------------------------
     1   6 C    3.943 --     2 C    1.546    24 C    1.251   110 H    0.938
     2   6 C    3.948 --     1 C    1.546    11 C    1.125     3 C    1.045
     3   6 C    3.912 --     4 O    1.706     2 C    1.045     5 C    1.037
     4   8 O    2.092 --     3 C    1.706    52 S    0.113
     5   6 C    3.970 --     6 C    1.377    10 C    1.303     3 C    1.037
     6   6 C    3.981 --     7 C    1.444     5 C    1.377   111 H    0.963
     7   6 C    3.954 --     6 C    1.444     8 C    1.322    23 C    0.997
     8   6 C    3.964 --     9 C    1.451     7 C    1.322    17 C    0.998
     9   6 C    3.978 --     8 C    1.451    10 C    1.364   112 H    0.958
    10   6 C    3.977 --     9 C    1.364     5 C    1.303    11 C    1.093
    11   6 C    3.970 --    12 C    1.486     2 C    1.125    10 C    1.093
    12   6 C    3.948 --    11 C    1.486    13 C    1.098    15 C    1.096
    13   6 C    3.942 --    14 N    2.747    12 C    1.098
    14   7 N    2.960 --    13 C    2.747
    15   6 C    3.942 --    16 N    2.757    12 C    1.096
    16   7 N    2.963 --    15 C    2.757
    17   6 C    3.985 --     8 C    0.998    23 C    0.978   113 H    0.959
                            18 C    0.947
    18   6 C    3.989 --    19 C    1.010    22 C    0.985   114 H    0.972
                            17 C    0.947
    19   6 C    3.987 --    20 C    1.924    18 C    1.010   115 H    0.971
    20   6 C    3.987 --    19 C    1.924    21 C    1.010   116 H    0.971
    21   6 C    3.988 --    20 C    1.010    22 C    0.985   117 H    0.972
                            23 C    0.946
    22   6 C    3.993 --    21 C    0.985    18 C    0.985   118 H    0.977
                           119 H    0.976
    23   6 C    3.984 --     7 C    0.997    17 C    0.978   120 H    0.959
                            21 C    0.946
    24   6 C    3.938 --    25 C    1.437     1 C    1.251    52 S    1.101
    25   6 C    3.946 --    24 C    1.437    26 C    1.295   121 H    0.958
                            52 S    0.104
    26   6 C    3.965 --    25 C    1.295    27 C    1.241    51 C    1.228
    27   6 C    3.956 --    38 C    1.412    26 C    1.241    28 C    1.061
    28   6 C    3.987 --    37 C    1.384    29 C    1.368    27 C    1.061
    29   6 C    3.979 --    30 C    1.422    28 C    1.368   122 H    0.961
    30   6 C    3.881 --    29 C    1.422    32 C    1.350    31 F    0.955
    31   9 F    1.086 --    30 C    0.955
    32   6 C    3.974 --    35 C    1.368    30 C    1.350    33 C    1.016
    33   6 C    3.992 --    32 C    1.016    34 C    0.999   124 H    0.975
                           123 H    0.961
    34   6 C    3.991 --    33 C    0.999   127 H    0.987   126 H    0.986
                           125 H    0.983
    35   6 C    3.878 --    37 C    1.409    32 C    1.368    36 F    0.945
    36   9 F    1.073 --    35 C    0.945
    37   6 C    3.972 --    35 C    1.409    28 C    1.384   128 H    0.957
    38   6 C    3.943 --    27 C    1.412    39 C    1.219    55 S    1.092
    39   6 C    3.963 --    40 C    1.287    53 C    1.254    38 C    1.219
    40   6 C    3.947 --    51 C    1.375    39 C    1.287    41 C    1.046
    41   6 C    3.987 --    48 C    1.385    42 C    1.379    40 C    1.046
    42   6 C    3.979 --    43 C    1.416    41 C    1.379   129 H    0.961
    43   6 C    3.881 --    42 C    1.416    44 C    1.356    50 F    0.954
    44   6 C    3.977 --    47 C    1.366    43 C    1.356    45 C    1.016
    45   6 C    3.993 --    44 C    1.016    46 C    0.997   130 H    0.974
                           131 H    0.966
    46   6 C    3.992 --    45 C    0.997   133 H    0.987   134 H    0.985
                           132 H    0.984
    47   6 C    3.879 --    48 C    1.409    44 C    1.366    49 F    0.947
    48   6 C    3.981 --    47 C    1.409    41 C    1.385   135 H    0.962
    49   9 F    1.074 --    47 C    0.947
    50   9 F    1.084 --    43 C    0.954
    51   6 C    3.956 --    40 C    1.375    26 C    1.228    52 S    1.128
    52  16 S    2.670 --    51 C    1.128    24 C    1.101     4 O    0.113
                            25 C    0.104
    53   6 C    3.944 --    54 C    1.498    39 C    1.254   136 H    0.946
    54   6 C    3.925 --    53 C    1.498    56 C    1.191    55 S    1.085
    55  16 S    2.526 --    38 C    1.092    54 C    1.085
    56   6 C    3.902 --    57 C    1.393    54 C    1.191    97 S    1.076
    57   6 C    3.940 --    56 C    1.393    75 C    1.210    58 N    1.106
    58   7 N    3.493 --    57 C    1.106    67 C    1.061    59 C    1.030
    59   6 C    3.961 --    60 C    1.372    66 C    1.355    58 N    1.030
    60   6 C    3.983 --    61 C    1.449    59 C    1.372   137 H    0.967
                            65 C    0.100
    61   6 C    3.988 --    60 C    1.449    62 C    1.387   138 H    0.964
    62   6 C    3.953 --    61 C    1.387    65 C    1.364    63 S    1.055
    63  16 S    2.258 --    62 C    1.055    64 C    1.008
    64   6 C    3.973 --    63 S    1.008   141 H    0.981   139 H    0.981
                           140 H    0.977
    65   6 C    3.989 --    66 C    1.479    62 C    1.364   142 H    0.967
                            60 C    0.100
    66   6 C    3.982 --    65 C    1.479    59 C    1.355   143 H    0.966
    67   6 C    3.961 --    74 C    1.353    68 C    1.346    58 N    1.061
    68   6 C    3.983 --    69 C    1.467    67 C    1.346   144 H    0.967
    69   6 C    3.989 --    68 C    1.467    70 C    1.376   145 H    0.968
                            74 C    0.100
    70   6 C    3.950 --    73 C    1.378    69 C    1.376    71 S    1.045
    71  16 S    2.243 --    70 C    1.045    72 C    1.006
    72   6 C    3.970 --    71 S    1.006   146 H    0.981   147 H    0.978
                           148 H    0.977
    73   6 C    3.988 --    74 C    1.465    70 C    1.378   149 H    0.963
    74   6 C    3.980 --    73 C    1.465    67 C    1.353   150 H    0.965
                            69 C    0.100
    75   6 C    3.929 --    96 C    1.385    57 C    1.210    76 S    1.108
    76  16 S    2.526 --    75 C    1.108    77 C    1.073
    77   6 C    3.901 --    78 C    1.356    98 C    1.217    76 S    1.073
    78   6 C    3.947 --    77 C    1.356    96 C    1.212    79 N    1.137
    79   7 N    3.502 --    78 C    1.137    88 C    1.055    80 C    1.014
    80   6 C    3.960 --    81 C    1.377    87 C    1.358    79 N    1.014
    81   6 C    3.984 --    82 C    1.446    80 C    1.377   151 H    0.967
                            86 C    0.101
    82   6 C    3.987 --    81 C    1.446    83 C    1.387   152 H    0.964
    83   6 C    3.955 --    82 C    1.387    86 C    1.362    84 S    1.061
    84  16 S    2.277 --    83 C    1.061    85 C    1.008
    85   6 C    3.973 --    84 S    1.008   154 H    0.981   153 H    0.981
                           155 H    0.977
    86   6 C    3.988 --    87 C    1.479    83 C    1.362   156 H    0.965
                            81 C    0.101
    87   6 C    3.981 --    86 C    1.479    80 C    1.358   157 H    0.966
    88   6 C    3.959 --    89 C    1.363    95 C    1.340    79 N    1.055
    89   6 C    3.986 --    90 C    1.450    88 C    1.363   158 H    0.967
    90   6 C    3.988 --    89 C    1.450    91 C    1.384   159 H    0.965
    91   6 C    3.955 --    90 C    1.384    94 C    1.354    92 S    1.070
    92  16 S    2.279 --    91 C    1.070    93 C    1.008
    93   6 C    3.966 --    92 S    1.008   161 H    0.980   160 H    0.976
                           162 H    0.966
    94   6 C    3.988 --    95 C    1.489    91 C    1.354   163 H    0.967
    95   6 C    3.981 --    94 C    1.489    88 C    1.340   164 H    0.965
    96   6 C    3.929 --    75 C    1.385    78 C    1.212    97 S    1.109
    97  16 S    2.550 --    96 C    1.109    56 C    1.076
    98   6 C    3.935 --    99 C    1.415    77 C    1.217   103 S    1.133
    99   6 C    3.962 --    98 C    1.415   100 C    1.342   165 H    0.957
   100   6 C    3.860 --   102 C    1.377    99 C    1.342   101 F    0.962
   101   9 F    1.105 --   100 C    0.962
   102   6 C    3.922 --   100 C    1.377   104 C    1.230   103 S    1.100
   103  16 S    2.547 --    98 C    1.133   102 C    1.100
   104   6 C    3.970 --   105 C    1.534   102 C    1.230   166 H    0.956
   105   6 C    3.949 --   104 C    1.534   106 C    1.102   108 C    1.092
   106   6 C    3.945 --   107 N    2.762   105 C    1.102
   107   7 N    2.989 --   106 C    2.762
   108   6 C    3.944 --   109 N    2.779   105 C    1.092
   109   7 N    2.965 --   108 C    2.779
   110   1 H    0.993 --     1 C    0.938
   111   1 H    0.995 --     6 C    0.963
   112   1 H    0.996 --     9 C    0.958
   113   1 H    0.996 --    17 C    0.959
   114   1 H    0.998 --    18 C    0.972
   115   1 H    0.999 --    19 C    0.971
   116   1 H    0.999 --    20 C    0.971
   117   1 H    0.998 --    21 C    0.972
   118   1 H    0.998 --    22 C    0.977
   119   1 H    0.996 --    22 C    0.976
   120   1 H    0.995 --    23 C    0.959
   121   1 H    0.995 --    25 C    0.958
   122   1 H    0.994 --    29 C    0.961
   123   1 H    0.995 --    33 C    0.961
   124   1 H    0.997 --    33 C    0.975
   125   1 H    0.998 --    34 C    0.983
   126   1 H    0.997 --    34 C    0.986
   127   1 H    0.998 --    34 C    0.987
   128   1 H    0.994 --    37 C    0.957
   129   1 H    0.994 --    42 C    0.961
   130   1 H    0.997 --    45 C    0.974
   131   1 H    0.996 --    45 C    0.966
   132   1 H    0.998 --    46 C    0.984
   133   1 H    0.998 --    46 C    0.987
   134   1 H    0.997 --    46 C    0.985
   135   1 H    0.994 --    48 C    0.962
   136   1 H    0.996 --    53 C    0.946
   137   1 H    0.998 --    60 C    0.967
   138   1 H    0.997 --    61 C    0.964
   139   1 H    0.995 --    64 C    0.981
   140   1 H    0.995 --    64 C    0.977
   141   1 H    0.996 --    64 C    0.981
   142   1 H    0.997 --    65 C    0.967
   143   1 H    0.997 --    66 C    0.966
   144   1 H    0.998 --    68 C    0.967
   145   1 H    0.997 --    69 C    0.968
   146   1 H    0.996 --    72 C    0.981
   147   1 H    0.995 --    72 C    0.978
   148   1 H    0.995 --    72 C    0.977
   149   1 H    0.996 --    73 C    0.963
   150   1 H    0.998 --    74 C    0.965
   151   1 H    0.998 --    81 C    0.967
   152   1 H    0.997 --    82 C    0.964
   153   1 H    0.995 --    85 C    0.981
   154   1 H    0.996 --    85 C    0.981
   155   1 H    0.994 --    85 C    0.977
   156   1 H    0.996 --    86 C    0.965
   157   1 H    0.997 --    87 C    0.966
   158   1 H    0.999 --    89 C    0.967
   159   1 H    0.998 --    90 C    0.965
   160   1 H    0.995 --    93 C    0.976
   161   1 H    0.996 --    93 C    0.980
   162   1 H    0.993 --    93 C    0.966
   163   1 H    0.996 --    94 C    0.967
   164   1 H    0.998 --    95 C    0.965
   165   1 H    0.994 --    99 C    0.957
   166   1 H    0.993 --   104 C    0.956
 ---------------------------------------------------------------------------

Topologies differ in bond orders
Writing corrected topology to xtbtopo.mol

molecular dipole:
                 x           y           z       tot (Debye)
 q only:        0.805      -1.481       1.157
   full:        0.680      -1.365       1.067       4.730
molecular quadrupole (traceless):
                xx          xy          yy          xz          yz          zz
 q only:       64.348       5.130      60.960    -108.649      85.241    -125.308
  q+dip:       88.454       6.945      57.409    -118.487      87.811    -145.863
   full:       95.063      10.155      53.287    -120.283      83.153    -148.350


           -------------------------------------------------
          | TOTAL ENERGY             -291.985034373962 Eh   |
          | GRADIENT NORM               0.020402369391 Eh/α |
          | HOMO-LUMO GAP               0.637277447065 eV   |
           -------------------------------------------------

------------------------------------------------------------------------
 * finished run on 2022/02/12 at 22:41:32.551     
------------------------------------------------------------------------
 total:
 * wall-time:     0 d,  0 h,  0 min,  1.779 sec
 *  cpu-time:     0 d,  0 h,  0 min, 10.438 sec
 * ratio c/w:     5.866 speedup
 SCF:
 * wall-time:     0 d,  0 h,  0 min,  1.668 sec
 *  cpu-time:     0 d,  0 h,  0 min,  9.885 sec
 * ratio c/w:     5.927 speedup

