      -----------------------------------------------------------      
     |                   =====================                   |     
     |                           x T B                           |     
     |                   =====================                   |     
     |                         S. Grimme                         |     
     |          Mulliken Center for Theoretical Chemistry        |     
     |                    University of Bonn                     |     
      -----------------------------------------------------------      

   * xtb version 6.4.1 (unknown) compiled by 'oda6@login1.crc.pitt.edu' on 2021-06-25

   xtb is free software: you can redistribute it and/or modify it under
   the terms of the GNU Lesser General Public License as published by
   the Free Software Foundation, either version 3 of the License, or
   (at your option) any later version.
   
   xtb is distributed in the hope that it will be useful,
   but WITHOUT ANY WARRANTY; without even the implied warranty of
   MERCHANTABILITY or FITNESS FOR A PARTICULAR PURPOSE.  See the
   GNU Lesser General Public License for more details.
   
   Cite this work as:
   * C. Bannwarth, E. Caldeweyher, S. Ehlert, A. Hansen, P. Pracht,
     J. Seibert, S. Spicher, S. Grimme, WIREs Comput. Mol. Sci., 2020, 11,
     e01493. DOI: 10.1002/wcms.1493
   
   for GFN2-xTB:
   * C. Bannwarth, S. Ehlert and S. Grimme., J. Chem. Theory Comput., 2019,
     15, 1652-1671. DOI: 10.1021/acs.jctc.8b01176
   for GFN1-xTB:
   * S. Grimme, C. Bannwarth, P. Shushkov, J. Chem. Theory Comput., 2017,
     13, 1989-2009. DOI: 10.1021/acs.jctc.7b00118
   for GFN0-xTB:
   * P. Pracht, E. Caldeweyher, S. Ehlert, S. Grimme, ChemRxiv, 2019, preprint.
     DOI: 10.26434/chemrxiv.8326202.v1
   for GFN-FF:
   * S. Spicher and S. Grimme, Angew. Chem. Int. Ed., 2020, 59, 15665-15673.
     DOI: 10.1002/anie.202004239
   
   for DFT-D4:
   * E. Caldeweyher, C. Bannwarth and S. Grimme, J. Chem. Phys., 2017,
     147, 034112. DOI: 10.1063/1.4993215
   * E. Caldeweyher, S. Ehlert, A. Hansen, H. Neugebauer, S. Spicher,
     C. Bannwarth and S. Grimme, J. Chem. Phys., 2019, 150, 154122.
     DOI: 10.1063/1.5090222
   * E. Caldeweyher, J.-M. Mewes, S. Ehlert and S. Grimme, Phys. Chem. Chem. Phys.
     2020, 22, 8499-8512. DOI: 10.1039/D0CP00502A
   
   for sTDA-xTB:
   * S. Grimme and C. Bannwarth, J. Chem. Phys., 2016, 145, 054103.
     DOI: 10.1063/1.4959605
   
   in the mass-spec context:
   * V. Asgeirsson, C. Bauer and S. Grimme, Chem. Sci., 2017, 8, 4879.
     DOI: 10.1039/c7sc00601b
   * J. Koopman and S. Grimme, ACS Omega 2019, 4, 12, 15120-15133.
     DOI: 10.1021/acsomega.9b02011
   
   for metadynamics refer to:
   * S. Grimme, J. Chem. Theory Comput., 2019, 155, 2847-2862
     DOI: 10.1021/acs.jctc.9b00143
   
   for SPH calculations refer to:
   * S. Spicher and S. Grimme, J. Chem. Theory Comput., 2021, 17, 1701-1714
     DOI: 10.1021/acs.jctc.0c01306
   
   with help from (in alphabetical order)
   P. Atkinson, C. Bannwarth, F. Bohle, G. Brandenburg, E. Caldeweyher
   M. Checinski, S. Dohm, S. Ehlert, S. Ehrlich, I. Gerasimov, J. Koopman
   C. Lavigne, S. Lehtola, F. März, M. Müller, F. Musil, H. Neugebauer
   J. Pisarek, C. Plett, P. Pracht, J. Seibert, P. Shushkov, S. Spicher
   M. Stahn, M. Steiner, T. Strunk, J. Stückrath, T. Rose, and J. Unsleber
   
 * started run on 2022/02/05 at 09:36:44.377     

           -------------------------------------------------
          |                Calculation Setup                |
           -------------------------------------------------

          program call               : /ihome/ghutchison/oda6/xtb/xtb-641/bin/xtb ../../GFN2_output/39_130_130_113_30.mol --sp --alpb hexane
          hostname                   : smp-n57
          coordinate file            : ../../GFN2_output/39_130_130_113_30.mol
          omp threads                :                     8
          number of atoms            :                   217
          number of electrons        :                   662
          charge                     :                     0
          spin                       :                   0.0
          first test random number   :      0.19143332786478

   ID    Z sym.   atoms
    1    6 C      1-3, 5-13, 15, 17-25, 27-30, 32-38, 40-43, 45, 46, 48-51,
                  53-59, 61-64, 66, 67, 69-72, 74-80, 82-85, 87, 88, 90-93,
                  95-101, 103-106, 108, 110-115, 117-120, 122-132, 134
    2    8 O      4, 121
    3    7 N      14, 16, 26, 47, 68, 89, 133, 135
    4   16 S      31, 39, 44, 52, 60, 65, 73, 81, 86, 94, 102, 107, 116
    5   34 Se     109
    6    1 H      136-217

           -------------------------------------------------
          |                 G F N 2 - x T B                 |
           -------------------------------------------------

        Reference                      10.1021/acs.jctc.8b01176
      * Hamiltonian:
        H0-scaling (s, p, d)           1.850000    2.230000    2.230000
        zeta-weighting                 0.500000
      * Dispersion:
        s8                             2.700000
        a1                             0.520000
        a2                             5.000000
        s9                             5.000000
      * Repulsion:
        kExp                           1.500000    1.000000
        rExp                           1.000000
      * Coulomb:
        alpha                          2.000000
        third order                    shell-resolved
        anisotropic                    true
        a3                             3.000000
        a5                             4.000000
        cn-shift                       1.200000
        cn-exp                         4.000000
        max-rad                        5.000000

      * Solvation model:               ALPB
        Solvent                        hexane
        Parameter file                 internal GFN2-xTB/ALPB
        Dielectric constant                1.8800E+00
        Reference state                gsolv [1 M gas/solution]
        Free energy shift                  4.8134E-03 Eh       3.0204E+00 kcal/mol
        Temperature                        2.9815E+02 K
        Density                            6.6000E-01 kg/L
        Solvent mass                       8.6180E+01 g/mol
        Interaction kernel             P16
        Born radius scaling (c1)           1.1040E+00
        Born radii integrator          GBOBC
        Born offset                        0.0000E+00 a0       0.0000E+00 AA
        H-bond correction              false
        Ion screening                  false
        Surface tension                    1.0000E-05 Eh       1.5569E+01 dyn/cm
        Grid points                               230 per atom

          ...................................................
          :                      SETUP                      :
          :.................................................:
          :  # basis functions                 706          :
          :  # atomic orbitals                 692          :
          :  # shells                          366          :
          :  # electrons                       662          :
          :  max. iterations                   250          :
          :  Hamiltonian                  GFN2-xTB          :
          :  restarted?                      false          :
          :  GBSA solvation                   true          :
          :  PC potential                    false          :
          :  electronic temp.          300.0000000     K    :
          :  accuracy                    1.0000000          :
          :  -> integral cutoff          0.2500000E+02      :
          :  -> integral neglect         0.1000000E-07      :
          :  -> SCF convergence          0.1000000E-05 Eh   :
          :  -> wf. convergence          0.1000000E-03 e    :
          :  Broyden damping             0.4000000          :
          ...................................................

 iter      E             dE          RMSdq      gap      omega  full diag
   1   -361.9102222 -0.361910E+03  0.488E+00    0.90       0.0  T
   2   -362.1308013 -0.220579E+00  0.276E+00    1.03       1.0  T
   3   -361.9469641  0.183837E+00  0.131E+00    0.61       1.0  T
   4   -362.1644447 -0.217481E+00  0.551E-01    0.84       1.0  T
   5   -362.1962997 -0.318550E-01  0.205E-01    0.76       1.0  T
   6   -362.1970384 -0.738742E-03  0.117E-01    0.80       1.0  T
   7   -362.1988828 -0.184439E-02  0.408E-02    0.80       1.0  T
   8   -362.1990004 -0.117627E-03  0.219E-02    0.80       1.0  T
   9   -362.1990232 -0.227798E-04  0.113E-02    0.80       1.0  T
  10   -362.1990274 -0.418852E-05  0.564E-03    0.80       1.2  T
  11   -362.1990295 -0.207050E-05  0.267E-03    0.80       2.5  T
  12   -362.1990297 -0.238174E-06  0.148E-03    0.80       4.6  T
  13   -362.1990298 -0.113161E-06  0.768E-04    0.80       8.8  T
  14   -362.1990298 -0.265897E-07  0.411E-04    0.80      16.5  T

   *** convergence criteria satisfied after 14 iterations ***

         #    Occupation            Energy/Eh            Energy/eV
      -------------------------------------------------------------
         1        2.0000           -0.7596826             -20.6720
       ...           ...                  ...                  ...
       325        2.0000           -0.3694944             -10.0545
       326        2.0000           -0.3677306             -10.0065
       327        2.0000           -0.3669397              -9.9849
       328        2.0000           -0.3604338              -9.8079
       329        2.0000           -0.3555010              -9.6737
       330        2.0000           -0.3534180              -9.6170
       331        2.0000           -0.3522094              -9.5841 (HOMO)
       332        0.0000           -0.3226659              -8.7802 (LUMO)
       333                         -0.3205093              -8.7215
       334                         -0.3112932              -8.4707
       335                         -0.3072508              -8.3607
       336                         -0.2815198              -7.6605
       ...                                ...                  ...
       692                          1.1627851              31.6410
      -------------------------------------------------------------
                  HL-Gap            0.0295435 Eh            0.8039 eV
             Fermi-level           -0.3373555 Eh           -9.1799 eV

 SCC (total)                   0 d,  0 h,  0 min,  0.870 sec
 SCC setup                      ...        0 min,  0.009 sec (  0.980%)
 Dispersion                     ...        0 min,  0.011 sec (  1.257%)
 classical contributions        ...        0 min,  0.000 sec (  0.047%)
 integral evaluation            ...        0 min,  0.046 sec (  5.260%)
 iterations                     ...        0 min,  0.644 sec ( 74.047%)
 molecular gradient             ...        0 min,  0.156 sec ( 17.944%)
 printout                       ...        0 min,  0.004 sec (  0.454%)

         :::::::::::::::::::::::::::::::::::::::::::::::::::::
         ::                     SUMMARY                     ::
         :::::::::::::::::::::::::::::::::::::::::::::::::::::
         :: total energy            -356.465960259212 Eh    ::
         :: total w/o Gsasa/hb      -356.355339475764 Eh    ::
         :: gradient norm              0.020226091663 Eh/a0 ::
         :: HOMO-LUMO gap              0.803920432341 eV    ::
         ::.................................................::
         :: SCC energy              -362.199029849776 Eh    ::
         :: -> isotropic ES            0.143664080085 Eh    ::
         :: -> anisotropic ES          0.013091322930 Eh    ::
         :: -> anisotropic XC          0.227023520637 Eh    ::
         :: -> dispersion             -0.429595854326 Eh    ::
         :: -> Gsolv                  -0.135700155604 Eh    ::
         ::    -> Gelec               -0.025079372156 Eh    ::
         ::    -> Gsasa               -0.115434139267 Eh    ::
         ::    -> Ghb                  0.000000000000 Eh    ::
         ::    -> Gshift               0.004813355820 Eh    ::
         :: repulsion energy           5.711769945687 Eh    ::
         :: add. restraining           0.000000000000 Eh    ::
         :: total charge               0.000000000183 e     ::
         :::::::::::::::::::::::::::::::::::::::::::::::::::::

           -------------------------------------------------
          |                Property Printout                |
           -------------------------------------------------

    * Orbital Energies and Occupations

         #    Occupation            Energy/Eh            Energy/eV
      -------------------------------------------------------------
         1        2.0000           -0.7596826             -20.6720
       ...           ...                  ...                  ...
       319        2.0000           -0.3855942             -10.4926
       320        2.0000           -0.3850390             -10.4774
       321        2.0000           -0.3804388             -10.3523
       322        2.0000           -0.3750994             -10.2070
       323        2.0000           -0.3731144             -10.1530
       324        2.0000           -0.3710175             -10.0959
       325        2.0000           -0.3694944             -10.0545
       326        2.0000           -0.3677306             -10.0065
       327        2.0000           -0.3669397              -9.9849
       328        2.0000           -0.3604338              -9.8079
       329        2.0000           -0.3555010              -9.6737
       330        2.0000           -0.3534180              -9.6170
       331        2.0000           -0.3522094              -9.5841 (HOMO)
       332        0.0000           -0.3226659              -8.7802 (LUMO)
       333                         -0.3205093              -8.7215
       334                         -0.3112932              -8.4707
       335                         -0.3072508              -8.3607
       336                         -0.2815198              -7.6605
       337                         -0.2668713              -7.2619
       338                         -0.2597695              -7.0687
       339                         -0.2489593              -6.7745
       340                         -0.2488263              -6.7709
       341                         -0.2485091              -6.7623
       342                         -0.2465521              -6.7090
       ...                                ...                  ...
       692                          1.1627851              31.6410
      -------------------------------------------------------------
                  HL-Gap            0.0295435 Eh            0.8039 eV
             Fermi-level           -0.3373555 Eh           -9.1799 eV

     #   Z          covCN         q      C6AA      α(0)
     1   6 C        2.957    -0.013    28.325     8.729
     2   6 C        3.014    -0.049    29.198     8.864
     3   6 C        2.873     0.228    23.224     7.900
     4   8 O        0.856    -0.450    22.707     6.389
     5   6 C        3.063    -0.024    28.548     8.762
     6   6 C        2.904    -0.024    28.593     8.768
     7   6 C        3.259     0.008    26.682     8.348
     8   6 C        3.259     0.011    26.629     8.340
     9   6 C        2.904    -0.031    28.784     8.797
    10   6 C        3.052     0.001    27.945     8.670
    11   6 C        3.027     0.035    27.193     8.554
    12   6 C        2.948    -0.005    28.137     8.700
    13   6 C        1.942     0.131    27.875     8.526
    14   7 N        0.911    -0.292    27.525     7.588
    15   6 C        1.941     0.132    27.858     8.524
    16   7 N        0.911    -0.286    27.376     7.567
    17   6 C        4.163    -0.022    20.874     6.489
    18   6 C        4.014    -0.015    20.772     6.475
    19   6 C        2.995    -0.041    29.008     8.835
    20   6 C        2.996    -0.043    29.049     8.841
    21   6 C        4.014    -0.015    20.760     6.473
    22   6 C        3.915    -0.061    21.610     6.607
    23   6 C        4.162    -0.022    20.884     6.491
    24   6 C        2.989     0.014    27.680     8.630
    25   6 C        3.030     0.075    26.298     8.412
    26   7 N        2.749    -0.020    21.639     6.909
    27   6 C        2.950     0.060    26.656     8.468
    28   6 C        2.924    -0.034    28.837     8.806
    29   6 C        2.945    -0.040    28.988     8.831
    30   6 C        2.966     0.054    26.786     8.489
    31  16 S        2.036    -0.177   148.555    20.514
    32   6 C        3.745    -0.055    21.629     6.634
    33   6 C        2.984    -0.037    28.919     8.821
    34   6 C        2.921    -0.036    28.902     8.816
    35   6 C        2.925     0.061    26.623     8.462
    36   6 C        2.923    -0.038    28.954     8.824
    37   6 C        2.987    -0.041    29.003     8.834
    38   6 C        2.965     0.047    26.953     8.516
    39  16 S        2.037    -0.167   148.104    20.483
    40   6 C        3.745    -0.050    21.541     6.621
    41   6 C        2.942    -0.043    29.064     8.842
    42   6 C        2.922    -0.044    29.087     8.844
    43   6 C        3.181     0.005    27.477     8.557
    44  16 S        2.288    -0.060   143.559    20.166
    45   6 C        3.034    -0.005    28.109     8.696
    46   6 C        3.047     0.048    26.885     8.504
    47   7 N        2.748    -0.071    22.625     7.065
    48   6 C        2.923     0.059    26.680     8.471
    49   6 C        2.924    -0.047    29.179     8.858
    50   6 C        2.942    -0.045    29.106     8.848
    51   6 C        2.965     0.047    26.937     8.513
    52  16 S        2.035    -0.186   148.943    20.541
    53   6 C        3.744    -0.050    21.551     6.622
    54   6 C        2.986    -0.038    28.937     8.824
    55   6 C        2.928    -0.048    29.201     8.862
    56   6 C        2.930     0.058    26.709     8.476
    57   6 C        2.924    -0.044    29.083     8.844
    58   6 C        2.944    -0.043    29.068     8.843
    59   6 C        2.966     0.046    26.965     8.518
    60  16 S        2.033    -0.187   148.980    20.543
    61   6 C        3.745    -0.047    21.480     6.611
    62   6 C        2.983    -0.039    28.968     8.829
    63   6 C        2.922    -0.042    29.045     8.838
    64   6 C        3.173     0.010    27.404     8.550
    65  16 S        2.285    -0.075   144.175    20.209
    66   6 C        3.039    -0.008    28.182     8.707
    67   6 C        3.052     0.048    26.884     8.504
    68   7 N        2.748    -0.071    22.610     7.062
    69   6 C        2.927     0.059    26.678     8.470
    70   6 C        2.929    -0.045    29.115     8.849
    71   6 C        2.986    -0.037    28.910     8.820
    72   6 C        2.966     0.047    26.932     8.512
    73  16 S        2.036    -0.186   148.957    20.542
    74   6 C        3.745    -0.051    21.552     6.623
    75   6 C        2.942    -0.044    29.100     8.847
    76   6 C        2.924    -0.046    29.146     8.853
    77   6 C        2.924     0.058    26.709     8.475
    78   6 C        2.924    -0.046    29.150     8.854
    79   6 C        2.947    -0.042    29.031     8.837
    80   6 C        2.966     0.045    26.986     8.521
    81  16 S        2.028    -0.208   149.935    20.609
    82   6 C        3.744    -0.050    21.546     6.622
    83   6 C        2.975    -0.038    28.951     8.826
    84   6 C        2.923    -0.045    29.122     8.850
    85   6 C        3.188     0.006    27.417     8.542
    86  16 S        2.304    -0.064   143.718    20.177
    87   6 C        3.016     0.001    27.989     8.678
    88   6 C        3.046     0.051    26.811     8.492
    89   7 N        2.747    -0.055    22.311     7.015
    90   6 C        2.928     0.060    26.654     8.467
    91   6 C        2.922    -0.045    29.125     8.850
    92   6 C        2.944    -0.041    29.010     8.834
    93   6 C        2.965     0.049    26.890     8.506
    94  16 S        2.031    -0.197   149.416    20.573
    95   6 C        3.744    -0.046    21.467     6.609
    96   6 C        2.979    -0.033    28.805     8.804
    97   6 C        2.924    -0.035    28.868     8.811
    98   6 C        2.926     0.061    26.635     8.463
    99   6 C        2.924    -0.049    29.208     8.863
   100   6 C        2.944    -0.045    29.107     8.849
   101   6 C        2.966     0.048    26.919     8.510
   102  16 S        2.031    -0.194   149.285    20.564
   103   6 C        3.745    -0.049    21.520     6.618
   104   6 C        2.978    -0.035    28.877     8.815
   105   6 C        2.925    -0.039    28.977     8.828
   106   6 C        3.173     0.003    27.563     8.575
   107  16 S        2.279    -0.073   144.095    20.203
   108   6 C        3.019    -0.008    28.186     8.709
   109  34 Se       2.533    -0.034   236.887    26.819
   110   6 C        2.959     0.012    27.736     8.638
   111   6 C        3.278    -0.004    26.688     8.317
   112   6 C        3.061    -0.062    29.465     8.901
   113   6 C        2.987     0.043    27.022     8.527
   114   6 C        3.826    -0.057    21.585     6.611
   115   6 C        3.754    -0.104    22.554     6.772
   116  16 S        2.276    -0.056   143.365    20.152
   117   6 C        3.164     0.019    27.237     8.530
   118   6 C        2.916    -0.009    28.241     8.714
   119   6 C        3.016    -0.040    28.980     8.831
   120   6 C        2.884     0.225    23.277     7.910
   121   8 O        1.094    -0.368    20.941     6.141
   122   6 C        3.046    -0.022    28.509     8.757
   123   6 C        2.916    -0.027    28.683     8.782
   124   6 C        2.971     0.019    27.589     8.616
   125   6 C        3.758    -0.115    22.753     6.801
   126   6 C        2.970     0.021    27.536     8.607
   127   6 C        3.759    -0.116    22.770     6.803
   128   6 C        2.918    -0.038    28.939     8.822
   129   6 C        3.041     0.001    27.972     8.675
   130   6 C        3.025     0.039    27.109     8.541
   131   6 C        2.947     0.003    27.957     8.672
   132   6 C        1.943     0.135    27.797     8.514
   133   7 N        0.911    -0.291    27.503     7.585
   134   6 C        1.945     0.133    27.827     8.519
   135   7 N        0.911    -0.278    27.174     7.539
   136   1 H        0.925     0.062     2.181     2.309
   137   1 H        0.926     0.054     2.266     2.354
   138   1 H        0.926     0.054     2.264     2.353
   139   1 H        0.925     0.043     2.408     2.427
   140   1 H        0.925     0.041     2.433     2.439
   141   1 H        0.926     0.037     2.491     2.468
   142   1 H        0.926     0.036     2.506     2.475
   143   1 H        0.925     0.036     2.503     2.474
   144   1 H        0.925     0.041     2.435     2.440
   145   1 H        0.925     0.041     2.441     2.443
   146   1 H        0.925     0.042     2.423     2.434
   147   1 H        0.926     0.064     2.151     2.293
   148   1 H        0.926     0.057     2.232     2.336
   149   1 H        0.925     0.073     2.058     2.243
   150   1 H        0.925     0.071     2.070     2.250
   151   1 H        0.925     0.063     2.158     2.298
   152   1 H        0.926     0.056     2.249     2.345
   153   1 H        0.926     0.047     2.356     2.400
   154   1 H        0.926     0.050     2.318     2.381
   155   1 H        0.926     0.051     2.303     2.373
   156   1 H        0.925     0.074     2.037     2.232
   157   1 H        0.925     0.061     2.187     2.313
   158   1 H        0.925     0.064     2.148     2.292
   159   1 H        0.926     0.047     2.359     2.402
   160   1 H        0.926     0.056     2.243     2.342
   161   1 H        0.926     0.038     2.476     2.461
   162   1 H        0.926     0.045     2.377     2.411
   163   1 H        0.925     0.069     2.091     2.261
   164   1 H        0.925     0.062     2.178     2.308
   165   1 H        0.925     0.062     2.181     2.310
   166   1 H        0.926     0.048     2.340     2.392
   167   1 H        0.926     0.046     2.373     2.409
   168   1 H        0.926     0.041     2.438     2.442
   169   1 H        0.926     0.047     2.361     2.403
   170   1 H        0.925     0.060     2.195     2.317
   171   1 H        0.925     0.066     2.126     2.280
   172   1 H        0.925     0.061     2.186     2.312
   173   1 H        0.926     0.051     2.301     2.372
   174   1 H        0.926     0.045     2.380     2.413
   175   1 H        0.926     0.044     2.399     2.422
   176   1 H        0.926     0.050     2.314     2.379
   177   1 H        0.925     0.070     2.088     2.260
   178   1 H        0.925     0.062     2.172     2.305
   179   1 H        0.925     0.060     2.194     2.316
   180   1 H        0.926     0.046     2.375     2.410
   181   1 H        0.926     0.040     2.450     2.447
   182   1 H        0.926     0.042     2.422     2.434
   183   1 H        0.926     0.050     2.320     2.382
   184   1 H        0.925     0.061     2.185     2.311
   185   1 H        0.925     0.057     2.236     2.339
   186   1 H        0.925     0.089     1.885     2.147
   187   1 H        0.926     0.045     2.386     2.415
   188   1 H        0.926     0.042     2.428     2.437
   189   1 H        0.926     0.047     2.355     2.400
   190   1 H        0.926     0.049     2.335     2.390
   191   1 H        0.925     0.062     2.178     2.308
   192   1 H        0.925     0.073     2.051     2.239
   193   1 H        0.925     0.063     2.165     2.301
   194   1 H        0.926     0.049     2.337     2.391
   195   1 H        0.926     0.054     2.270     2.356
   196   1 H        0.926     0.039     2.468     2.457
   197   1 H        0.926     0.045     2.388     2.417
   198   1 H        0.925     0.059     2.206     2.323
   199   1 H        0.925     0.062     2.181     2.310
   200   1 H        0.925     0.069     2.100     2.266
   201   1 H        0.926     0.057     2.235     2.338
   202   1 H        0.926     0.046     2.366     2.405
   203   1 H        0.926     0.053     2.286     2.364
   204   1 H        0.924     0.059     2.211     2.325
   205   1 H        0.924     0.055     2.263     2.353
   206   1 H        0.925     0.047     2.358     2.402
   207   1 H        0.925     0.040     2.451     2.448
   208   1 H        0.925     0.055     2.262     2.352
   209   1 H        0.925     0.069     2.095     2.264
   210   1 H        0.926     0.057     2.230     2.335
   211   1 H        0.925     0.060     2.201     2.320
   212   1 H        0.925     0.052     2.300     2.372
   213   1 H        0.925     0.059     2.206     2.323
   214   1 H        0.925     0.060     2.197     2.318
   215   1 H        0.925     0.054     2.269     2.356
   216   1 H        0.925     0.060     2.198     2.318
   217   1 H        0.926     0.056     2.246     2.344

 Mol. C6AA /au·bohr⁶  :     847508.810848
 Mol. C8AA /au·bohr⁸  :   24829315.996221
 Mol. α(0) /au        :       1482.914463


Wiberg/Mayer (AO) data.
largest (>0.10) Wiberg bond orders for each atom

 ---------------------------------------------------------------------------
     #   Z sym  total        # sym  WBO       # sym  WBO       # sym  WBO
 ---------------------------------------------------------------------------
     1   6 C    3.949 --     2 C    1.425    24 C    1.353   136 H    0.948
     2   6 C    3.957 --     1 C    1.425    11 C    1.180     3 C    1.056
     3   6 C    3.926 --     4 O    1.689     2 C    1.056     5 C    1.017
     4   8 O    1.985 --     3 C    1.689
     5   6 C    3.974 --     6 C    1.389    10 C    1.312     3 C    1.017
     6   6 C    3.980 --     7 C    1.435     5 C    1.389   137 H    0.964
     7   6 C    3.956 --     6 C    1.435     8 C    1.332    23 C    0.992
     8   6 C    3.966 --     9 C    1.444     7 C    1.332    17 C    0.992
     9   6 C    3.977 --     8 C    1.444    10 C    1.370   138 H    0.959
    10   6 C    3.982 --     9 C    1.370     5 C    1.312    11 C    1.082
    11   6 C    3.971 --    12 C    1.434     2 C    1.180    10 C    1.082
    12   6 C    3.953 --    11 C    1.434    15 C    1.112    13 C    1.111
    13   6 C    3.941 --    14 N    2.730    12 C    1.111
    14   7 N    2.962 --    13 C    2.730
    15   6 C    3.941 --    16 N    2.736    12 C    1.112
    16   7 N    2.949 --    15 C    2.736
    17   6 C    3.985 --     8 C    0.992    23 C    0.975   139 H    0.962
                            18 C    0.951
    18   6 C    3.989 --    19 C    1.004    22 C    0.989   140 H    0.970
                            17 C    0.951
    19   6 C    3.982 --    20 C    1.923    18 C    1.004   141 H    0.971
    20   6 C    3.982 --    19 C    1.923    21 C    1.004   142 H    0.971
    21   6 C    3.989 --    20 C    1.004    22 C    0.990   143 H    0.971
                            23 C    0.950
    22   6 C    3.993 --    21 C    0.990    18 C    0.989   144 H    0.978
                           145 H    0.970
    23   6 C    3.984 --     7 C    0.992    17 C    0.975   146 H    0.962
                            21 C    0.950
    24   6 C    3.924 --     1 C    1.353    25 C    1.286    65 S    1.046
    25   6 C    3.954 --    24 C    1.286    43 C    1.221    26 N    1.192
    26   7 N    3.566 --    25 C    1.192    35 C    1.061    27 C    1.000
    27   6 C    3.957 --    28 C    1.377    34 C    1.367    26 N    1.000
    28   6 C    3.983 --    29 C    1.448    27 C    1.377   147 H    0.963
                            33 C    0.102
    29   6 C    3.987 --    28 C    1.448    30 C    1.388   148 H    0.963
    30   6 C    3.957 --    29 C    1.388    33 C    1.369    31 S    1.057
    31  16 S    2.260 --    30 C    1.057    32 C    1.007
    32   6 C    3.969 --    31 S    1.007   151 H    0.981   150 H    0.977
                           149 H    0.972
    33   6 C    3.988 --    34 C    1.472    30 C    1.369   152 H    0.967
                            28 C    0.102
    34   6 C    3.982 --    33 C    1.472    27 C    1.367   153 H    0.966
    35   6 C    3.961 --    42 C    1.359    36 C    1.334    26 N    1.061
    36   6 C    3.982 --    37 C    1.485    35 C    1.334   154 H    0.964
    37   6 C    3.988 --    36 C    1.485    38 C    1.357   155 H    0.965
    38   6 C    3.959 --    41 C    1.382    37 C    1.357    39 S    1.064
    39  16 S    2.279 --    38 C    1.064    40 C    1.008
    40   6 C    3.970 --    39 S    1.008   158 H    0.980   157 H    0.978
                           156 H    0.976
    41   6 C    3.988 --    42 C    1.452    38 C    1.382   159 H    0.963
    42   6 C    3.984 --    41 C    1.452    35 C    1.359   160 H    0.959
    43   6 C    3.938 --    64 C    1.375    25 C    1.221    44 S    1.111
    44  16 S    2.577 --    43 C    1.111    45 C    1.089
    45   6 C    3.890 --    46 C    1.428    66 C    1.100    44 S    1.089
    46   6 C    3.957 --    45 C    1.428    64 C    1.208    47 N    1.106
    47   7 N    3.490 --    46 C    1.106    48 C    1.049    56 C    1.031
    48   6 C    3.961 --    49 C    1.368    55 C    1.349    47 N    1.049
    49   6 C    3.984 --    50 C    1.455    48 C    1.368   161 H    0.966
                            54 C    0.102
    50   6 C    3.988 --    49 C    1.455    51 C    1.383   162 H    0.964
    51   6 C    3.952 --    50 C    1.383    54 C    1.371    52 S    1.048
    52  16 S    2.250 --    51 C    1.048    53 C    1.009
    53   6 C    3.974 --    52 S    1.009   164 H    0.981   165 H    0.981
                           163 H    0.977
    54   6 C    3.989 --    55 C    1.467    51 C    1.371   166 H    0.967
                            49 C    0.102
    55   6 C    3.983 --    54 C    1.467    48 C    1.349   167 H    0.953
    56   6 C    3.963 --    57 C    1.378    63 C    1.361    47 N    1.031
    57   6 C    3.987 --    58 C    1.446    56 C    1.378   168 H    0.966
                            62 C    0.102
    58   6 C    3.989 --    57 C    1.446    59 C    1.390   169 H    0.964
    59   6 C    3.958 --    58 C    1.390    62 C    1.366    60 S    1.047
    60  16 S    2.254 --    59 C    1.047    61 C    1.010
    61   6 C    3.974 --    60 S    1.010   170 H    0.982   171 H    0.977
                           172 H    0.977
    62   6 C    3.989 --    63 C    1.470    59 C    1.366   173 H    0.966
                            57 C    0.102
    63   6 C    3.987 --    62 C    1.470    56 C    1.361   174 H    0.966
    64   6 C    3.930 --    43 C    1.375    46 C    1.208    65 S    1.116
    65  16 S    2.507 --    64 C    1.116    24 C    1.046
    66   6 C    3.894 --    67 C    1.445    45 C    1.100   107 S    1.076
    67   6 C    3.954 --    66 C    1.445    85 C    1.200    68 N    1.097
    68   7 N    3.493 --    67 C    1.097    77 C    1.048    69 C    1.045
    69   6 C    3.961 --    76 C    1.371    70 C    1.348    68 N    1.045
    70   6 C    3.985 --    71 C    1.468    69 C    1.348   175 H    0.959
    71   6 C    3.989 --    70 C    1.468    72 C    1.371   176 H    0.967
                            76 C    0.102
    72   6 C    3.952 --    75 C    1.385    71 C    1.371    73 S    1.045
    73  16 S    2.250 --    72 C    1.045    74 C    1.009
    74   6 C    3.974 --    73 S    1.009   179 H    0.981   178 H    0.981
                           177 H    0.977
    75   6 C    3.988 --    76 C    1.452    72 C    1.385   180 H    0.964
    76   6 C    3.983 --    75 C    1.452    69 C    1.371   181 H    0.966
                            71 C    0.102
    77   6 C    3.963 --    78 C    1.373    84 C    1.353    68 N    1.048
    78   6 C    3.986 --    79 C    1.446    77 C    1.373   182 H    0.966
                            83 C    0.101
    79   6 C    3.988 --    78 C    1.446    80 C    1.384   183 H    0.964
    80   6 C    3.958 --    79 C    1.384    83 C    1.373    81 S    1.041
    81  16 S    2.242 --    80 C    1.041    82 C    1.004
    82   6 C    3.964 --    81 S    1.004   185 H    0.982   184 H    0.978
                           186 H    0.963
    83   6 C    3.989 --    84 C    1.470    80 C    1.373   187 H    0.967
                            78 C    0.101
    84   6 C    3.987 --    83 C    1.470    77 C    1.353   188 H    0.966
    85   6 C    3.918 --   106 C    1.384    67 C    1.200    86 S    1.115
    86  16 S    2.560 --    85 C    1.115    87 C    1.074
    87   6 C    3.910 --    88 C    1.388   108 C    1.189    86 S    1.074
    88   6 C    3.938 --    87 C    1.388   106 C    1.214    89 N    1.102
    89   7 N    3.508 --    88 C    1.102    98 C    1.055    90 C    1.044
    90   6 C    3.962 --    91 C    1.365    97 C    1.344    89 N    1.044
    91   6 C    3.985 --    92 C    1.453    90 C    1.365   189 H    0.964
    92   6 C    3.988 --    91 C    1.453    93 C    1.376   190 H    0.964
    93   6 C    3.957 --    92 C    1.376    96 C    1.370    94 S    1.048
    94  16 S    2.250 --    93 C    1.048    95 C    1.007
    95   6 C    3.969 --    94 S    1.007   193 H    0.981   191 H    0.978
                           192 H    0.975
    96   6 C    3.989 --    97 C    1.462    93 C    1.370   194 H    0.966
    97   6 C    3.982 --    96 C    1.462    90 C    1.344   195 H    0.962
    98   6 C    3.961 --    99 C    1.365   105 C    1.346    89 N    1.055
    99   6 C    3.978 --   100 C    1.454    98 C    1.365   196 H    0.964
                           104 C    0.101
   100   6 C    3.988 --    99 C    1.454   101 C    1.385   197 H    0.964
   101   6 C    3.948 --   100 C    1.385   104 C    1.372   102 S    1.041
   102  16 S    2.245 --   101 C    1.041   103 C    1.006
   103   6 C    3.974 --   102 S    1.006   198 H    0.981   199 H    0.981
                           200 H    0.977
   104   6 C    3.988 --   105 C    1.470   101 C    1.372   201 H    0.965
                            99 C    0.101
   105   6 C    3.983 --   104 C    1.470    98 C    1.346   202 H    0.965
   106   6 C    3.937 --    85 C    1.384    88 C    1.214   107 S    1.111
   107  16 S    2.545 --   106 C    1.111    66 C    1.076
   108   6 C    3.940 --   117 C    1.373    87 C    1.189   109 Se   1.162
   109  34 Se   3.090 --   108 C    1.162   110 C    1.109   121 O    0.305
   110   6 C    3.940 --   118 C    1.374   111 C    1.237   109 Se   1.109
   111   6 C    3.968 --   117 C    1.255   110 C    1.237   112 C    1.229
   112   6 C    3.973 --   113 C    1.602   111 C    1.229   203 H    0.957
   113   6 C    3.926 --   112 C    1.602   116 S    1.125   114 C    1.032
   114   6 C    3.991 --   113 C    1.032   115 C    0.997   205 H    0.969
                           204 H    0.959
   115   6 C    3.986 --   114 C    0.997   207 H    0.989   206 H    0.985
                           208 H    0.982
   116  16 S    2.530 --   113 C    1.125   117 C    1.092
   117   6 C    3.937 --   108 C    1.373   111 C    1.255   116 S    1.092
   118   6 C    3.952 --   119 C    1.412   110 C    1.374   209 H    0.936
   119   6 C    3.940 --   118 C    1.412   130 C    1.163   120 C    1.110
   120   6 C    3.899 --   121 O    1.603   119 C    1.110   122 C    1.036
   121   8 O    2.176 --   120 C    1.603   109 Se   0.305
   122   6 C    3.972 --   123 C    1.422   129 C    1.280   120 C    1.036
   123   6 C    3.977 --   122 C    1.422   124 C    1.394   210 H    0.964
   124   6 C    3.966 --   123 C    1.394   126 C    1.368   125 C    1.035
   125   6 C    3.992 --   124 C    1.035   212 H    0.984   213 H    0.965
                           211 H    0.965
   126   6 C    3.972 --   128 C    1.394   124 C    1.368   127 C    1.036
   127   6 C    3.993 --   126 C    1.036   215 H    0.984   214 H    0.965
                           216 H    0.964
   128   6 C    3.975 --   129 C    1.416   126 C    1.394   217 H    0.958
   129   6 C    3.976 --   128 C    1.416   122 C    1.280   130 C    1.078
   130   6 C    3.964 --   131 C    1.456   119 C    1.163   129 C    1.078
   131   6 C    3.940 --   130 C    1.456   132 C    1.109   134 C    1.104
   132   6 C    3.940 --   133 N    2.730   131 C    1.109
   133   7 N    2.945 --   132 C    2.730
   134   6 C    3.940 --   135 N    2.748   131 C    1.104
   135   7 N    2.953 --   134 C    2.748
   136   1 H    0.993 --     1 C    0.948
   137   1 H    0.996 --     6 C    0.964
   138   1 H    0.997 --     9 C    0.959
   139   1 H    0.997 --    17 C    0.962
   140   1 H    0.998 --    18 C    0.970
   141   1 H    0.998 --    19 C    0.971
   142   1 H    0.998 --    20 C    0.971
   143   1 H    0.999 --    21 C    0.971
   144   1 H    0.998 --    22 C    0.978
   145   1 H    0.998 --    22 C    0.970
   146   1 H    0.996 --    23 C    0.962
   147   1 H    0.996 --    28 C    0.963
   148   1 H    0.996 --    29 C    0.963
   149   1 H    0.994 --    32 C    0.972
   150   1 H    0.994 --    32 C    0.977
   151   1 H    0.996 --    32 C    0.981
   152   1 H    0.996 --    33 C    0.967
   153   1 H    0.997 --    34 C    0.966
   154   1 H    0.997 --    36 C    0.964
   155   1 H    0.997 --    37 C    0.965
   156   1 H    0.994 --    40 C    0.976
   157   1 H    0.995 --    40 C    0.978
   158   1 H    0.995 --    40 C    0.980
   159   1 H    0.997 --    41 C    0.963
   160   1 H    0.997 --    42 C    0.959
   161   1 H    0.998 --    49 C    0.966
   162   1 H    0.997 --    50 C    0.964
   163   1 H    0.995 --    53 C    0.977
   164   1 H    0.996 --    53 C    0.981
   165   1 H    0.996 --    53 C    0.981
   166   1 H    0.997 --    54 C    0.967
   167   1 H    0.998 --    55 C    0.953
   168   1 H    0.998 --    57 C    0.966
   169   1 H    0.997 --    58 C    0.964
   170   1 H    0.996 --    61 C    0.982
   171   1 H    0.995 --    61 C    0.977
   172   1 H    0.996 --    61 C    0.977
   173   1 H    0.997 --    62 C    0.966
   174   1 H    0.998 --    63 C    0.966
   175   1 H    0.998 --    70 C    0.959
   176   1 H    0.997 --    71 C    0.967
   177   1 H    0.995 --    74 C    0.977
   178   1 H    0.996 --    74 C    0.981
   179   1 H    0.996 --    74 C    0.981
   180   1 H    0.997 --    75 C    0.964
   181   1 H    0.998 --    76 C    0.966
   182   1 H    0.998 --    78 C    0.966
   183   1 H    0.997 --    79 C    0.964
   184   1 H    0.996 --    82 C    0.978
   185   1 H    0.996 --    82 C    0.982
   186   1 H    0.991 --    82 C    0.963
   187   1 H    0.998 --    83 C    0.967
   188   1 H    0.998 --    84 C    0.966
   189   1 H    0.998 --    91 C    0.964
   190   1 H    0.997 --    92 C    0.964
   191   1 H    0.996 --    95 C    0.978
   192   1 H    0.994 --    95 C    0.975
   193   1 H    0.995 --    95 C    0.981
   194   1 H    0.997 --    96 C    0.966
   195   1 H    0.997 --    97 C    0.962
   196   1 H    0.998 --    99 C    0.964
   197   1 H    0.997 --   100 C    0.964
   198   1 H    0.996 --   103 C    0.981
   199   1 H    0.996 --   103 C    0.981
   200   1 H    0.995 --   103 C    0.977
   201   1 H    0.996 --   104 C    0.965
   202   1 H    0.997 --   105 C    0.965
   203   1 H    0.997 --   112 C    0.957
   204   1 H    0.992 --   114 C    0.959
   205   1 H    0.996 --   114 C    0.969
   206   1 H    0.997 --   115 C    0.985
   207   1 H    0.998 --   115 C    0.989
   208   1 H    0.997 --   115 C    0.982
   209   1 H    0.994 --   118 C    0.936
   210   1 H    0.996 --   123 C    0.964
   211   1 H    0.994 --   125 C    0.965
   212   1 H    0.997 --   125 C    0.984
   213   1 H    0.994 --   125 C    0.965
   214   1 H    0.994 --   127 C    0.965
   215   1 H    0.997 --   127 C    0.984
   216   1 H    0.994 --   127 C    0.964
   217   1 H    0.996 --   128 C    0.958
 ---------------------------------------------------------------------------

Topologies differ in total number of bonds
Writing corrected topology to xtbtopo.mol

molecular dipole:
                 x           y           z       tot (Debye)
 q only:       -1.102       2.035      -1.100
   full:       -1.859       1.734      -1.219       7.166
molecular quadrupole (traceless):
                xx          xy          yy          xz          yz          zz
 q only:       40.266      -8.730      25.669      12.082    -123.559     -65.935
  q+dip:       64.184     -10.143      26.774      34.076    -132.590     -90.958
   full:       78.787      -4.316      20.141      38.809    -131.722     -98.928


           -------------------------------------------------
          | TOTAL ENERGY             -356.465960259212 Eh   |
          | GRADIENT NORM               0.020226091663 Eh/α |
          | HOMO-LUMO GAP               0.803920432341 eV   |
           -------------------------------------------------

------------------------------------------------------------------------
 * finished run on 2022/02/05 at 09:36:45.363     
------------------------------------------------------------------------
 total:
 * wall-time:     0 d,  0 h,  0 min,  0.986 sec
 *  cpu-time:     0 d,  0 h,  0 min,  7.779 sec
 * ratio c/w:     7.889 speedup
 SCF:
 * wall-time:     0 d,  0 h,  0 min,  0.874 sec
 *  cpu-time:     0 d,  0 h,  0 min,  6.979 sec
 * ratio c/w:     7.984 speedup

