      -----------------------------------------------------------      
     |                   =====================                   |     
     |                           x T B                           |     
     |                   =====================                   |     
     |                         S. Grimme                         |     
     |          Mulliken Center for Theoretical Chemistry        |     
     |                    University of Bonn                     |     
      -----------------------------------------------------------      

   * xtb version 6.4.1 (unknown) compiled by 'oda6@login1.crc.pitt.edu' on 2021-06-25

   xtb is free software: you can redistribute it and/or modify it under
   the terms of the GNU Lesser General Public License as published by
   the Free Software Foundation, either version 3 of the License, or
   (at your option) any later version.
   
   xtb is distributed in the hope that it will be useful,
   but WITHOUT ANY WARRANTY; without even the implied warranty of
   MERCHANTABILITY or FITNESS FOR A PARTICULAR PURPOSE.  See the
   GNU Lesser General Public License for more details.
   
   Cite this work as:
   * C. Bannwarth, E. Caldeweyher, S. Ehlert, A. Hansen, P. Pracht,
     J. Seibert, S. Spicher, S. Grimme, WIREs Comput. Mol. Sci., 2020, 11,
     e01493. DOI: 10.1002/wcms.1493
   
   for GFN2-xTB:
   * C. Bannwarth, S. Ehlert and S. Grimme., J. Chem. Theory Comput., 2019,
     15, 1652-1671. DOI: 10.1021/acs.jctc.8b01176
   for GFN1-xTB:
   * S. Grimme, C. Bannwarth, P. Shushkov, J. Chem. Theory Comput., 2017,
     13, 1989-2009. DOI: 10.1021/acs.jctc.7b00118
   for GFN0-xTB:
   * P. Pracht, E. Caldeweyher, S. Ehlert, S. Grimme, ChemRxiv, 2019, preprint.
     DOI: 10.26434/chemrxiv.8326202.v1
   for GFN-FF:
   * S. Spicher and S. Grimme, Angew. Chem. Int. Ed., 2020, 59, 15665-15673.
     DOI: 10.1002/anie.202004239
   
   for DFT-D4:
   * E. Caldeweyher, C. Bannwarth and S. Grimme, J. Chem. Phys., 2017,
     147, 034112. DOI: 10.1063/1.4993215
   * E. Caldeweyher, S. Ehlert, A. Hansen, H. Neugebauer, S. Spicher,
     C. Bannwarth and S. Grimme, J. Chem. Phys., 2019, 150, 154122.
     DOI: 10.1063/1.5090222
   * E. Caldeweyher, J.-M. Mewes, S. Ehlert and S. Grimme, Phys. Chem. Chem. Phys.
     2020, 22, 8499-8512. DOI: 10.1039/D0CP00502A
   
   for sTDA-xTB:
   * S. Grimme and C. Bannwarth, J. Chem. Phys., 2016, 145, 054103.
     DOI: 10.1063/1.4959605
   
   in the mass-spec context:
   * V. Asgeirsson, C. Bauer and S. Grimme, Chem. Sci., 2017, 8, 4879.
     DOI: 10.1039/c7sc00601b
   * J. Koopman and S. Grimme, ACS Omega 2019, 4, 12, 15120-15133.
     DOI: 10.1021/acsomega.9b02011
   
   for metadynamics refer to:
   * S. Grimme, J. Chem. Theory Comput., 2019, 155, 2847-2862
     DOI: 10.1021/acs.jctc.9b00143
   
   for SPH calculations refer to:
   * S. Spicher and S. Grimme, J. Chem. Theory Comput., 2021, 17, 1701-1714
     DOI: 10.1021/acs.jctc.0c01306
   
   with help from (in alphabetical order)
   P. Atkinson, C. Bannwarth, F. Bohle, G. Brandenburg, E. Caldeweyher
   M. Checinski, S. Dohm, S. Ehlert, S. Ehrlich, I. Gerasimov, J. Koopman
   C. Lavigne, S. Lehtola, F. März, M. Müller, F. Musil, H. Neugebauer
   J. Pisarek, C. Plett, P. Pracht, J. Seibert, P. Shushkov, S. Spicher
   M. Stahn, M. Steiner, T. Strunk, J. Stückrath, T. Rose, and J. Unsleber
   
 * started run on 2022/02/05 at 15:59:21.345     

           -------------------------------------------------
          |                Calculation Setup                |
           -------------------------------------------------

          program call               : /ihome/ghutchison/oda6/xtb/xtb-641/bin/xtb ../../GFN2_output/39_127_130_162_39.mol --sp --alpb hexane
          hostname                   : smp-n57
          coordinate file            : ../../GFN2_output/39_127_130_162_39.mol
          omp threads                :                     8
          number of atoms            :                   172
          number of electrons        :                   526
          charge                     :                     0
          spin                       :                   0.0
          first test random number   :      0.23043143031498

   ID    Z sym.   atoms
    1    6 C      1-3, 5-13, 15, 17-25, 27, 29, 30, 32-35, 37-41, 43-46,
                  48-54, 56-59, 61, 62, 64-67, 69-75, 77-80, 82-88, 90-98,
                  100, 102-108
    2    8 O      4, 89
    3    7 N      14, 16, 31, 36, 42, 63, 99, 101
    4    9 F      26, 28
    5   16 S      47, 55, 60, 68, 76, 81
    6    1 H      109-172

           -------------------------------------------------
          |                 G F N 2 - x T B                 |
           -------------------------------------------------

        Reference                      10.1021/acs.jctc.8b01176
      * Hamiltonian:
        H0-scaling (s, p, d)           1.850000    2.230000    2.230000
        zeta-weighting                 0.500000
      * Dispersion:
        s8                             2.700000
        a1                             0.520000
        a2                             5.000000
        s9                             5.000000
      * Repulsion:
        kExp                           1.500000    1.000000
        rExp                           1.000000
      * Coulomb:
        alpha                          2.000000
        third order                    shell-resolved
        anisotropic                    true
        a3                             3.000000
        a5                             4.000000
        cn-shift                       1.200000
        cn-exp                         4.000000
        max-rad                        5.000000

      * Solvation model:               ALPB
        Solvent                        hexane
        Parameter file                 internal GFN2-xTB/ALPB
        Dielectric constant                1.8800E+00
        Reference state                gsolv [1 M gas/solution]
        Free energy shift                  4.8134E-03 Eh       3.0204E+00 kcal/mol
        Temperature                        2.9815E+02 K
        Density                            6.6000E-01 kg/L
        Solvent mass                       8.6180E+01 g/mol
        Interaction kernel             P16
        Born radius scaling (c1)           1.1040E+00
        Born radii integrator          GBOBC
        Born offset                        0.0000E+00 a0       0.0000E+00 AA
        H-bond correction              false
        Ion screening                  false
        Surface tension                    1.0000E-05 Eh       1.5569E+01 dyn/cm
        Grid points                               230 per atom

          ...................................................
          :                      SETUP                      :
          :.................................................:
          :  # basis functions                 532          :
          :  # atomic orbitals                 526          :
          :  # shells                          286          :
          :  # electrons                       526          :
          :  max. iterations                   250          :
          :  Hamiltonian                  GFN2-xTB          :
          :  restarted?                      false          :
          :  GBSA solvation                   true          :
          :  PC potential                    false          :
          :  electronic temp.          300.0000000     K    :
          :  accuracy                    1.0000000          :
          :  -> integral cutoff          0.2500000E+02      :
          :  -> integral neglect         0.1000000E-07      :
          :  -> SCF convergence          0.1000000E-05 Eh   :
          :  -> wf. convergence          0.1000000E-03 e    :
          :  Broyden damping             0.4000000          :
          ...................................................

 iter      E             dE          RMSdq      gap      omega  full diag
   1   -290.0888346 -0.290089E+03  0.482E+00    1.02       0.0  T
   2   -290.2508770 -0.162042E+00  0.281E+00    0.87       1.0  T
   3   -290.0480144  0.202863E+00  0.150E+00    0.40       1.0  T
   4   -290.3100616 -0.262047E+00  0.463E-01    0.43       1.0  T
   5   -290.3273120 -0.172504E-01  0.181E-01    0.44       1.0  T
   6   -290.3285445 -0.123248E-02  0.827E-02    0.48       1.0  T
   7   -290.3291820 -0.637528E-03  0.365E-02    0.49       1.0  T
   8   -290.3292663 -0.843122E-04  0.185E-02    0.49       1.0  T
   9   -290.3292838 -0.174464E-04  0.900E-03    0.49       1.0  T
  10   -290.3292865 -0.275725E-05  0.383E-03    0.49       2.0  T
  11   -290.3292873 -0.752119E-06  0.184E-03    0.49       4.1  T
  12   -290.3292873 -0.636142E-07  0.114E-03    0.49       6.7  T
  13   -290.3292874 -0.701467E-07  0.421E-04    0.49      18.1  T
  14   -290.3292874 -0.582043E-08  0.218E-04    0.49      34.9  T

   *** convergence criteria satisfied after 14 iterations ***

         #    Occupation            Energy/Eh            Energy/eV
      -------------------------------------------------------------
         1        2.0000           -0.8483407             -23.0845
       ...           ...                  ...                  ...
       257        2.0000           -0.3805895             -10.3564
       258        2.0000           -0.3746971             -10.1960
       259        2.0000           -0.3728756             -10.1465
       260        2.0000           -0.3712109             -10.1012
       261        2.0000           -0.3668792              -9.9833
       262        2.0000           -0.3544867              -9.6461
       263        1.9998           -0.3513506              -9.5607 (HOMO)
       264        0.0002           -0.3334853              -9.0746 (LUMO)
       265        0.0000           -0.3305230              -8.9940
       266                         -0.3199102              -8.7052
       267                         -0.3168811              -8.6228
       268                         -0.3025434              -8.2326
       ...                                ...                  ...
       526                          1.1557325              31.4491
      -------------------------------------------------------------
                  HL-Gap            0.0178654 Eh            0.4861 eV
             Fermi-level           -0.3424213 Eh           -9.3178 eV

 SCC (total)                   0 d,  0 h,  0 min,  1.230 sec
 SCC setup                      ...        0 min,  0.017 sec (  1.360%)
 Dispersion                     ...        0 min,  0.018 sec (  1.494%)
 classical contributions        ...        0 min,  0.001 sec (  0.042%)
 integral evaluation            ...        0 min,  0.054 sec (  4.391%)
 iterations                     ...        0 min,  1.038 sec ( 84.397%)
 molecular gradient             ...        0 min,  0.100 sec (  8.096%)
 printout                       ...        0 min,  0.003 sec (  0.212%)

         :::::::::::::::::::::::::::::::::::::::::::::::::::::
         ::                     SUMMARY                     ::
         :::::::::::::::::::::::::::::::::::::::::::::::::::::
         :: total energy            -285.704516887882 Eh    ::
         :: total w/o Gsasa/hb      -285.623570514671 Eh    ::
         :: gradient norm              0.021031039910 Eh/a0 ::
         :: HOMO-LUMO gap              0.486141441436 eV    ::
         ::.................................................::
         :: SCC energy              -290.329287408825 Eh    ::
         :: -> isotropic ES            0.172155941462 Eh    ::
         :: -> anisotropic ES          0.003936651632 Eh    ::
         :: -> anisotropic XC          0.188944665100 Eh    ::
         :: -> dispersion             -0.319644701814 Eh    ::
         :: -> Gsolv                  -0.106408377094 Eh    ::
         ::    -> Gelec               -0.025462003884 Eh    ::
         ::    -> Gsasa               -0.085759729031 Eh    ::
         ::    -> Ghb                  0.000000000000 Eh    ::
         ::    -> Gshift               0.004813355820 Eh    ::
         :: repulsion energy           4.606831970283 Eh    ::
         :: add. restraining           0.000000000000 Eh    ::
         :: total charge              -0.000000000005 e     ::
         :::::::::::::::::::::::::::::::::::::::::::::::::::::

           -------------------------------------------------
          |                Property Printout                |
           -------------------------------------------------

    * Orbital Energies and Occupations

         #    Occupation            Energy/Eh            Energy/eV
      -------------------------------------------------------------
         1        2.0000           -0.8483407             -23.0845
       ...           ...                  ...                  ...
       251        2.0000           -0.4027287             -10.9588
       252        2.0000           -0.4010240             -10.9124
       253        2.0000           -0.3998319             -10.8800
       254        2.0000           -0.3938383             -10.7169
       255        2.0000           -0.3921129             -10.6699
       256        2.0000           -0.3860021             -10.5037
       257        2.0000           -0.3805895             -10.3564
       258        2.0000           -0.3746971             -10.1960
       259        2.0000           -0.3728756             -10.1465
       260        2.0000           -0.3712109             -10.1012
       261        2.0000           -0.3668792              -9.9833
       262        2.0000           -0.3544867              -9.6461
       263        1.9998           -0.3513506              -9.5607 (HOMO)
       264        0.0002           -0.3334853              -9.0746 (LUMO)
       265        0.0000           -0.3305230              -8.9940
       266                         -0.3199102              -8.7052
       267                         -0.3168811              -8.6228
       268                         -0.3025434              -8.2326
       269                         -0.2836037              -7.7172
       270                         -0.2654198              -7.2224
       271                         -0.2586576              -7.0384
       272                         -0.2529039              -6.8819
       273                         -0.2528271              -6.8798
       274                         -0.2483388              -6.7576
       ...                                ...                  ...
       526                          1.1557325              31.4491
      -------------------------------------------------------------
                  HL-Gap            0.0178654 Eh            0.4861 eV
             Fermi-level           -0.3424213 Eh           -9.3178 eV

     #   Z          covCN         q      C6AA      α(0)
     1   6 C        2.903     0.010    27.791     8.644
     2   6 C        3.011    -0.010    28.254     8.719
     3   6 C        2.867     0.247    22.865     7.838
     4   8 O        0.856    -0.434    22.367     6.341
     5   6 C        3.056    -0.017    28.379     8.736
     6   6 C        2.904    -0.016    28.407     8.739
     7   6 C        3.265     0.020    26.345     8.286
     8   6 C        3.255     0.015    26.579     8.338
     9   6 C        2.904    -0.031    28.782     8.797
    10   6 C        3.045     0.010    27.741     8.638
    11   6 C        3.013     0.046    26.949     8.516
    12   6 C        2.947     0.016    27.649     8.624
    13   6 C        1.941     0.137    27.742     8.506
    14   7 N        0.911    -0.264    26.840     7.493
    15   6 C        1.941     0.136    27.756     8.508
    16   7 N        0.911    -0.257    26.668     7.469
    17   6 C        4.164    -0.025    20.938     6.499
    18   6 C        4.011    -0.015    20.765     6.473
    19   6 C        2.987    -0.043    29.068     8.844
    20   6 C        2.987    -0.039    28.961     8.828
    21   6 C        4.011    -0.015    20.769     6.474
    22   6 C        3.926    -0.061    21.603     6.606
    23   6 C        4.163    -0.022    20.876     6.489
    24   6 C        2.977     0.004    27.926     8.668
    25   6 C        2.780     0.153    24.664     8.134
    26   9 F        0.787    -0.211    11.354     3.980
    27   6 C        2.776     0.152    24.680     8.137
    28   9 F        0.787    -0.210    11.341     3.978
    29   6 C        3.040    -0.007    28.150     8.702
    30   6 C        2.978     0.074    26.348     8.420
    31   7 N        1.851    -0.248    27.317     7.746
    32   6 C        2.942     0.099    25.805     8.331
    33   6 C        3.808    -0.072    21.873     6.658
    34   6 C        3.753    -0.095    22.365     6.744
    35   6 C        2.941     0.097    25.848     8.338
    36   7 N        1.848    -0.236    27.017     7.703
    37   6 C        2.969     0.087    26.063     8.374
    38   6 C        3.807    -0.064    21.715     6.634
    39   6 C        3.753    -0.102    22.515     6.766
    40   6 C        3.008    -0.002    28.056     8.689
    41   6 C        3.049     0.059    26.622     8.462
    42   7 N        2.747    -0.074    22.682     7.073
    43   6 C        2.920     0.062    26.615     8.460
    44   6 C        2.924    -0.053    29.308     8.878
    45   6 C        2.942    -0.045    29.112     8.849
    46   6 C        2.965     0.044    27.011     8.525
    47  16 S        2.032    -0.196   149.377    20.571
    48   6 C        3.744    -0.050    21.537     6.620
    49   6 C        2.983    -0.039    28.963     8.828
    50   6 C        2.924    -0.051    29.254     8.870
    51   6 C        2.931     0.057    26.711     8.476
    52   6 C        2.922    -0.038    28.938     8.822
    53   6 C        2.989    -0.042    29.043     8.840
    54   6 C        2.966     0.046    26.964     8.517
    55  16 S        2.039    -0.173   148.377    20.502
    56   6 C        3.744    -0.054    21.624     6.633
    57   6 C        2.943    -0.049    29.213     8.865
    58   6 C        2.923    -0.041    29.030     8.836
    59   6 C        3.177     0.005    27.503     8.563
    60  16 S        2.257    -0.034   142.466    20.089
    61   6 C        3.000     0.005    27.909     8.666
    62   6 C        3.060     0.050    26.829     8.494
    63   7 N        2.747    -0.068    22.557     7.054
    64   6 C        2.924     0.055    26.770     8.485
    65   6 C        2.921    -0.047    29.170     8.857
    66   6 C        2.985    -0.038    28.930     8.823
    67   6 C        2.965     0.046    26.959     8.517
    68  16 S        2.033    -0.185   148.898    20.538
    69   6 C        3.744    -0.052    21.572     6.626
    70   6 C        2.942    -0.047    29.162     8.857
    71   6 C        2.925    -0.050    29.234     8.867
    72   6 C        2.918     0.066    26.521     8.445
    73   6 C        2.923    -0.051    29.264     8.871
    74   6 C        2.959    -0.037    28.907     8.819
    75   6 C        2.966     0.038    27.137     8.545
    76  16 S        2.017    -0.248   151.686    20.729
    77   6 C        3.744    -0.040    21.360     6.593
    78   6 C        2.952    -0.033    28.822     8.805
    79   6 C        2.929    -0.052    29.285     8.875
    80   6 C        3.178     0.003    27.538     8.568
    81  16 S        2.297    -0.052   143.201    20.141
    82   6 C        2.925    -0.028    28.692     8.784
    83   6 C        2.901    -0.031    28.782     8.796
    84   6 C        2.911    -0.012    28.318     8.726
    85   6 C        2.897    -0.031    28.761     8.793
    86   6 C        2.906    -0.000    28.039     8.683
    87   6 C        3.006    -0.035    28.856     8.812
    88   6 C        2.870     0.234    23.113     7.881
    89   8 O        0.856    -0.420    22.080     6.300
    90   6 C        3.058    -0.020    28.451     8.747
    91   6 C        2.904    -0.021    28.523     8.757
    92   6 C        3.260     0.014    26.552     8.326
    93   6 C        3.257     0.016    26.535     8.328
    94   6 C        2.904    -0.026    28.654     8.777
    95   6 C        3.050     0.009    27.765     8.642
    96   6 C        3.017     0.043    27.019     8.527
    97   6 C        2.947     0.007    27.873     8.659
    98   6 C        1.960     0.138    27.711     8.501
    99   7 N        0.911    -0.294    27.564     7.593
   100   6 C        1.961     0.138    27.698     8.499
   101   7 N        0.911    -0.272    27.025     7.519
   102   6 C        4.163    -0.022    20.881     6.490
   103   6 C        4.014    -0.015    20.765     6.473
   104   6 C        2.995    -0.041    29.008     8.835
   105   6 C        2.995    -0.042    29.036     8.839
   106   6 C        4.014    -0.015    20.758     6.472
   107   6 C        3.914    -0.060    21.599     6.605
   108   6 C        4.161    -0.022    20.882     6.490
   109   1 H        0.926     0.089     1.885     2.147
   110   1 H        0.926     0.063     2.168     2.303
   111   1 H        0.926     0.062     2.176     2.307
   112   1 H        0.925     0.052     2.297     2.370
   113   1 H        0.925     0.039     2.457     2.451
   114   1 H        0.926     0.031     2.573     2.508
   115   1 H        0.926     0.031     2.575     2.509
   116   1 H        0.925     0.051     2.311     2.377
   117   1 H        0.925     0.043     2.414     2.430
   118   1 H        0.925     0.043     2.414     2.430
   119   1 H        0.925     0.060     2.200     2.320
   120   1 H        0.924     0.062     2.174     2.306
   121   1 H        0.924     0.095     1.831     2.116
   122   1 H        0.925     0.041     2.433     2.439
   123   1 H        0.925     0.044     2.396     2.421
   124   1 H        0.925     0.037     2.490     2.467
   125   1 H        0.924     0.066     2.133     2.284
   126   1 H        0.924     0.073     2.053     2.241
   127   1 H        0.925     0.036     2.497     2.471
   128   1 H        0.925     0.048     2.342     2.393
   129   1 H        0.925     0.047     2.360     2.402
   130   1 H        0.926     0.037     2.492     2.469
   131   1 H        0.926     0.043     2.408     2.427
   132   1 H        0.925     0.060     2.197     2.318
   133   1 H        0.925     0.061     2.182     2.310
   134   1 H        0.925     0.068     2.108     2.270
   135   1 H        0.926     0.047     2.363     2.404
   136   1 H        0.926     0.039     2.462     2.454
   137   1 H        0.926     0.054     2.265     2.353
   138   1 H        0.926     0.046     2.372     2.408
   139   1 H        0.925     0.065     2.144     2.290
   140   1 H        0.925     0.062     2.180     2.309
   141   1 H        0.925     0.090     1.881     2.145
   142   1 H        0.926     0.053     2.286     2.365
   143   1 H        0.926     0.052     2.294     2.368
   144   1 H        0.926     0.062     2.172     2.305
   145   1 H        0.926     0.055     2.261     2.351
   146   1 H        0.925     0.061     2.182     2.310
   147   1 H        0.925     0.070     2.090     2.261
   148   1 H        0.925     0.062     2.179     2.308
   149   1 H        0.926     0.045     2.382     2.413
   150   1 H        0.926     0.036     2.506     2.475
   151   1 H        0.926     0.048     2.341     2.392
   152   1 H        0.926     0.046     2.366     2.405
   153   1 H        0.925     0.069     2.100     2.266
   154   1 H        0.925     0.050     2.322     2.383
   155   1 H        0.925     0.061     2.191     2.315
   156   1 H        0.926     0.033     2.539     2.492
   157   1 H        0.926     0.041     2.442     2.443
   158   1 H        0.925     0.057     2.235     2.338
   159   1 H        0.926     0.060     2.194     2.316
   160   1 H        0.925     0.060     2.195     2.317
   161   1 H        0.926     0.080     1.974     2.197
   162   1 H        0.925     0.062     2.172     2.305
   163   1 H        0.926     0.062     2.177     2.307
   164   1 H        0.926     0.062     2.181     2.310
   165   1 H        0.925     0.046     2.372     2.408
   166   1 H        0.925     0.041     2.430     2.438
   167   1 H        0.926     0.038     2.482     2.464
   168   1 H        0.926     0.037     2.486     2.466
   169   1 H        0.925     0.038     2.473     2.459
   170   1 H        0.925     0.042     2.425     2.435
   171   1 H        0.925     0.041     2.441     2.443
   172   1 H        0.925     0.045     2.377     2.411

 Mol. C6AA /au·bohr⁶  :     472684.861492
 Mol. C8AA /au·bohr⁸  :   12869684.305872
 Mol. α(0) /au        :       1093.030480


Wiberg/Mayer (AO) data.
largest (>0.10) Wiberg bond orders for each atom

 ---------------------------------------------------------------------------
     #   Z sym  total        # sym  WBO       # sym  WBO       # sym  WBO
 ---------------------------------------------------------------------------
     1   6 C    3.946 --     2 C    1.649    24 C    1.115   109 H    0.938
     2   6 C    3.979 --     1 C    1.649    11 C    1.109     3 C    1.007
     3   6 C    3.913 --     4 O    1.729     5 C    1.045     2 C    1.007
     4   8 O    2.017 --     3 C    1.729
     5   6 C    3.974 --     6 C    1.375    10 C    1.289     3 C    1.045
     6   6 C    3.982 --     7 C    1.443     5 C    1.375   110 H    0.961
     7   6 C    3.952 --     6 C    1.443     8 C    1.315    23 C    1.000
     8   6 C    3.963 --     9 C    1.454     7 C    1.315    17 C    0.998
     9   6 C    3.979 --     8 C    1.454    10 C    1.359   111 H    0.958
    10   6 C    3.981 --     9 C    1.359     5 C    1.289    11 C    1.104
    11   6 C    3.976 --    12 C    1.496     2 C    1.109    10 C    1.104
    12   6 C    3.966 --    11 C    1.496    13 C    1.098    15 C    1.096
    13   6 C    3.943 --    14 N    2.753    12 C    1.098
    14   7 N    2.966 --    13 C    2.753
    15   6 C    3.944 --    16 N    2.762    12 C    1.096
    16   7 N    2.969 --    15 C    2.762
    17   6 C    3.984 --     8 C    0.998    23 C    0.978   112 H    0.959
                            18 C    0.945
    18   6 C    3.988 --    19 C    1.010    22 C    0.985   113 H    0.972
                            17 C    0.945
    19   6 C    3.987 --    20 C    1.923    18 C    1.010   114 H    0.971
    20   6 C    3.987 --    19 C    1.923    21 C    1.011   115 H    0.971
    21   6 C    3.986 --    20 C    1.011    22 C    0.985   116 H    0.970
                            23 C    0.944
    22   6 C    3.993 --    18 C    0.985    21 C    0.985   118 H    0.977
                           117 H    0.976
    23   6 C    3.983 --     7 C    1.000    17 C    0.978   119 H    0.956
                            21 C    0.944
    24   6 C    3.977 --    25 C    1.415    37 C    1.190     1 C    1.115
    25   6 C    3.868 --    24 C    1.415    27 C    1.274    26 F    0.966
    26   9 F    1.096 --    25 C    0.966
    27   6 C    3.879 --    29 C    1.439    25 C    1.274    28 F    0.967
    28   9 F    1.097 --    27 C    0.967
    29   6 C    3.966 --    27 C    1.439    30 C    1.207    40 C    1.032
    30   6 C    3.977 --    31 N    1.280    37 C    1.250    29 C    1.207
    31   7 N    3.068 --    32 C    1.529    30 C    1.280
    32   6 C    3.961 --    31 N    1.529    35 C    1.186    33 C    1.027
    33   6 C    3.987 --    32 C    1.027    34 C    1.019   120 H    0.950
                           121 H    0.922
    34   6 C    3.995 --    33 C    1.019   123 H    0.986   122 H    0.983
                           124 H    0.977
    35   6 C    3.959 --    36 N    1.530    32 C    1.186    38 C    1.023
    36   7 N    3.096 --    35 C    1.530    37 C    1.290
    37   6 C    3.977 --    36 N    1.290    30 C    1.250    24 C    1.190
    38   6 C    3.993 --    35 C    1.023    39 C    1.019   126 H    0.948
                           125 H    0.946
    39   6 C    3.994 --    38 C    1.019   129 H    0.986   128 H    0.986
                           127 H    0.983
    40   6 C    3.869 --    41 C    1.463    81 S    1.081    29 C    1.032
    41   6 C    3.959 --    40 C    1.463    59 C    1.197    42 N    1.103
    42   7 N    3.462 --    41 C    1.103    43 C    1.075    51 C    0.982
    43   6 C    3.963 --    44 C    1.359    50 C    1.340    42 N    1.075
    44   6 C    3.985 --    45 C    1.447    43 C    1.359   130 H    0.965
                            49 C    0.100
    45   6 C    3.988 --    44 C    1.447    46 C    1.391   131 H    0.964
    46   6 C    3.949 --    45 C    1.391    49 C    1.364    47 S    1.040
    47  16 S    2.237 --    46 C    1.040    48 C    1.010
    48   6 C    3.975 --    47 S    1.010   132 H    0.981   133 H    0.981
                           134 H    0.978
    49   6 C    3.989 --    50 C    1.482    46 C    1.364   135 H    0.967
                            44 C    0.100
    50   6 C    3.983 --    49 C    1.482    43 C    1.340   136 H    0.965
    51   6 C    3.965 --    58 C    1.400    52 C    1.378    42 N    0.982
    52   6 C    3.988 --    53 C    1.470    51 C    1.378   137 H    0.962
    53   6 C    3.988 --    52 C    1.470    54 C    1.365   138 H    0.967
                            58 C    0.104
    54   6 C    3.965 --    57 C    1.387    53 C    1.365    55 S    1.066
    55  16 S    2.289 --    54 C    1.066    56 C    1.008
    56   6 C    3.966 --    55 S    1.008   139 H    0.981   140 H    0.978
                           141 H    0.968
    57   6 C    3.988 --    58 C    1.442    54 C    1.387   142 H    0.963
    58   6 C    3.987 --    57 C    1.442    51 C    1.400   143 H    0.967
                            53 C    0.104
    59   6 C    3.932 --    80 C    1.378    41 C    1.197    60 S    1.118
    60  16 S    2.548 --    59 C    1.118    61 C    1.099
    61   6 C    3.929 --    62 C    1.429    82 C    1.143    60 S    1.099
    62   6 C    3.952 --    61 C    1.429    80 C    1.225    63 N    1.059
    63   7 N    3.495 --    72 C    1.094    62 C    1.059    64 C    1.036
    64   6 C    3.961 --    71 C    1.377    65 C    1.357    63 N    1.036
    65   6 C    3.984 --    66 C    1.474    64 C    1.357   144 H    0.954
    66   6 C    3.989 --    65 C    1.474    67 C    1.368   145 H    0.966
                            71 C    0.102
    67   6 C    3.957 --    70 C    1.388    66 C    1.368    68 S    1.048
    68  16 S    2.252 --    67 C    1.048    69 C    1.010
    69   6 C    3.974 --    68 S    1.010   148 H    0.981   146 H    0.981
                           147 H    0.977
    70   6 C    3.988 --    71 C    1.449    67 C    1.388   149 H    0.964
    71   6 C    3.985 --    70 C    1.449    64 C    1.377   150 H    0.966
                            66 C    0.102
    72   6 C    3.966 --    73 C    1.348    79 C    1.339    63 N    1.094
    73   6 C    3.984 --    74 C    1.466    72 C    1.348   151 H    0.963
    74   6 C    3.987 --    73 C    1.466    75 C    1.388   152 H    0.968
    75   6 C    3.950 --    78 C    1.397    74 C    1.388    76 S    1.004
    76  16 S    2.145 --    75 C    1.004    77 C    0.994
    77   6 C    3.967 --    76 S    0.994   154 H    0.986   155 H    0.980
                           153 H    0.974
    78   6 C    3.990 --    79 C    1.458    75 C    1.397   156 H    0.967
    79   6 C    3.984 --    78 C    1.458    72 C    1.339   157 H    0.958
    80   6 C    3.936 --    59 C    1.378    62 C    1.225    81 S    1.110
    81  16 S    2.548 --    80 C    1.110    40 C    1.081
    82   6 C    3.930 --    83 C    1.688    61 C    1.143   158 H    0.957
    83   6 C    3.972 --    82 C    1.688    84 C    1.186   159 H    0.955
    84   6 C    3.946 --    85 C    1.637    83 C    1.186   160 H    0.947
    85   6 C    3.967 --    84 C    1.637    86 C    1.223   161 H    0.951
    86   6 C    3.950 --    87 C    1.564    85 C    1.223   162 H    0.945
    87   6 C    3.945 --    86 C    1.564    96 C    1.131    88 C    1.030
    88   6 C    3.916 --    89 O    1.728    90 C    1.036    87 C    1.030
    89   8 O    2.012 --    88 C    1.728
    90   6 C    3.970 --    91 C    1.378    95 C    1.301    88 C    1.036
    91   6 C    3.980 --    92 C    1.443    90 C    1.378   163 H    0.963
    92   6 C    3.951 --    91 C    1.443    93 C    1.319   108 C    0.994
    93   6 C    3.964 --    94 C    1.452    92 C    1.319   102 C    0.994
    94   6 C    3.976 --    93 C    1.452    95 C    1.356   164 H    0.956
    95   6 C    3.976 --    94 C    1.356    90 C    1.301    96 C    1.099
    96   6 C    3.969 --    97 C    1.469    87 C    1.131    95 C    1.099
    97   6 C    3.950 --    96 C    1.469    98 C    1.111   100 C    1.097
    98   6 C    3.939 --    99 N    2.719    97 C    1.111
    99   7 N    2.963 --    98 C    2.719
   100   6 C    3.941 --   101 N    2.747    97 C    1.097
   101   7 N    2.960 --   100 C    2.747
   102   6 C    3.984 --    93 C    0.994   108 C    0.975   165 H    0.961
                           103 C    0.950
   103   6 C    3.989 --   104 C    1.005   107 C    0.989   166 H    0.970
                           102 C    0.950
   104   6 C    3.981 --   105 C    1.922   103 C    1.005   167 H    0.971
   105   6 C    3.981 --   104 C    1.922   106 C    1.004   168 H    0.971
   106   6 C    3.988 --   105 C    1.004   107 C    0.989   169 H    0.971
                           108 C    0.949
   107   6 C    3.993 --   106 C    0.989   103 C    0.989   171 H    0.978
                           170 H    0.972
   108   6 C    3.983 --    92 C    0.994   102 C    0.975   172 H    0.961
                           106 C    0.949
   109   1 H    0.990 --     1 C    0.938
   110   1 H    0.996 --     6 C    0.961
   111   1 H    0.996 --     9 C    0.958
   112   1 H    0.995 --    17 C    0.959
   113   1 H    0.998 --    18 C    0.972
   114   1 H    0.999 --    19 C    0.971
   115   1 H    0.999 --    20 C    0.971
   116   1 H    0.997 --    21 C    0.970
   117   1 H    0.996 --    22 C    0.976
   118   1 H    0.998 --    22 C    0.977
   119   1 H    0.994 --    23 C    0.956
   120   1 H    0.993 --    33 C    0.950
   121   1 H    0.987 --    33 C    0.922
   122   1 H    0.998 --    34 C    0.983
   123   1 H    0.998 --    34 C    0.986
   124   1 H    0.999 --    34 C    0.977
   125   1 H    0.992 --    38 C    0.946
   126   1 H    0.991 --    38 C    0.948
   127   1 H    0.999 --    39 C    0.983
   128   1 H    0.998 --    39 C    0.986
   129   1 H    0.997 --    39 C    0.986
   130   1 H    0.999 --    44 C    0.965
   131   1 H    0.998 --    45 C    0.964
   132   1 H    0.996 --    48 C    0.981
   133   1 H    0.996 --    48 C    0.981
   134   1 H    0.995 --    48 C    0.978
   135   1 H    0.997 --    49 C    0.967
   136   1 H    0.998 --    50 C    0.965
   137   1 H    0.997 --    52 C    0.962
   138   1 H    0.998 --    53 C    0.967
   139   1 H    0.995 --    56 C    0.981
   140   1 H    0.996 --    56 C    0.978
   141   1 H    0.992 --    56 C    0.968
   142   1 H    0.997 --    57 C    0.963
   143   1 H    0.997 --    58 C    0.967
   144   1 H    0.996 --    65 C    0.954
   145   1 H    0.996 --    66 C    0.966
   146   1 H    0.996 --    69 C    0.981
   147   1 H    0.995 --    69 C    0.977
   148   1 H    0.996 --    69 C    0.981
   149   1 H    0.997 --    70 C    0.964
   150   1 H    0.999 --    71 C    0.966
   151   1 H    0.997 --    73 C    0.963
   152   1 H    0.997 --    74 C    0.968
   153   1 H    0.995 --    77 C    0.974
   154   1 H    0.997 --    77 C    0.986
   155   1 H    0.996 --    77 C    0.980
   156   1 H    0.998 --    78 C    0.967
   157   1 H    0.998 --    79 C    0.958
   158   1 H    0.993 --    82 C    0.957
   159   1 H    0.994 --    83 C    0.955
   160   1 H    0.996 --    84 C    0.947
   161   1 H    0.992 --    85 C    0.951
   162   1 H    0.995 --    86 C    0.945
   163   1 H    0.996 --    91 C    0.963
   164   1 H    0.996 --    94 C    0.956
   165   1 H    0.996 --   102 C    0.961
   166   1 H    0.998 --   103 C    0.970
   167   1 H    0.998 --   104 C    0.971
   168   1 H    0.998 --   105 C    0.971
   169   1 H    0.998 --   106 C    0.971
   170   1 H    0.998 --   107 C    0.972
   171   1 H    0.998 --   107 C    0.978
   172   1 H    0.996 --   108 C    0.961
 ---------------------------------------------------------------------------

Topologies differ in bond orders
Writing corrected topology to xtbtopo.mol

molecular dipole:
                 x           y           z       tot (Debye)
 q only:       -1.674       2.481       1.749
   full:       -2.338       1.684       1.866       8.725
molecular quadrupole (traceless):
                xx          xy          yy          xz          yz          zz
 q only:       18.437      32.394     -37.889      52.686     -26.043      19.452
  q+dip:       16.264      41.367     -31.715      58.537     -18.414      15.451
   full:        5.171      43.664     -19.005      58.087     -19.377      13.834


           -------------------------------------------------
          | TOTAL ENERGY             -285.704516887882 Eh   |
          | GRADIENT NORM               0.021031039910 Eh/α |
          | HOMO-LUMO GAP               0.486141441436 eV   |
           -------------------------------------------------

------------------------------------------------------------------------
 * finished run on 2022/02/05 at 15:59:22.736     
------------------------------------------------------------------------
 total:
 * wall-time:     0 d,  0 h,  0 min,  1.391 sec
 *  cpu-time:     0 d,  0 h,  0 min,  8.236 sec
 * ratio c/w:     5.923 speedup
 SCF:
 * wall-time:     0 d,  0 h,  0 min,  1.233 sec
 *  cpu-time:     0 d,  0 h,  0 min,  7.285 sec
 * ratio c/w:     5.908 speedup

