      -----------------------------------------------------------      
     |                   =====================                   |     
     |                           x T B                           |     
     |                   =====================                   |     
     |                         S. Grimme                         |     
     |          Mulliken Center for Theoretical Chemistry        |     
     |                    University of Bonn                     |     
      -----------------------------------------------------------      

   * xtb version 6.4.1 (unknown) compiled by 'oda6@login1.crc.pitt.edu' on 2021-06-25

   xtb is free software: you can redistribute it and/or modify it under
   the terms of the GNU Lesser General Public License as published by
   the Free Software Foundation, either version 3 of the License, or
   (at your option) any later version.
   
   xtb is distributed in the hope that it will be useful,
   but WITHOUT ANY WARRANTY; without even the implied warranty of
   MERCHANTABILITY or FITNESS FOR A PARTICULAR PURPOSE.  See the
   GNU Lesser General Public License for more details.
   
   Cite this work as:
   * C. Bannwarth, E. Caldeweyher, S. Ehlert, A. Hansen, P. Pracht,
     J. Seibert, S. Spicher, S. Grimme, WIREs Comput. Mol. Sci., 2020, 11,
     e01493. DOI: 10.1002/wcms.1493
   
   for GFN2-xTB:
   * C. Bannwarth, S. Ehlert and S. Grimme., J. Chem. Theory Comput., 2019,
     15, 1652-1671. DOI: 10.1021/acs.jctc.8b01176
   for GFN1-xTB:
   * S. Grimme, C. Bannwarth, P. Shushkov, J. Chem. Theory Comput., 2017,
     13, 1989-2009. DOI: 10.1021/acs.jctc.7b00118
   for GFN0-xTB:
   * P. Pracht, E. Caldeweyher, S. Ehlert, S. Grimme, ChemRxiv, 2019, preprint.
     DOI: 10.26434/chemrxiv.8326202.v1
   for GFN-FF:
   * S. Spicher and S. Grimme, Angew. Chem. Int. Ed., 2020, 59, 15665-15673.
     DOI: 10.1002/anie.202004239
   
   for DFT-D4:
   * E. Caldeweyher, C. Bannwarth and S. Grimme, J. Chem. Phys., 2017,
     147, 034112. DOI: 10.1063/1.4993215
   * E. Caldeweyher, S. Ehlert, A. Hansen, H. Neugebauer, S. Spicher,
     C. Bannwarth and S. Grimme, J. Chem. Phys., 2019, 150, 154122.
     DOI: 10.1063/1.5090222
   * E. Caldeweyher, J.-M. Mewes, S. Ehlert and S. Grimme, Phys. Chem. Chem. Phys.
     2020, 22, 8499-8512. DOI: 10.1039/D0CP00502A
   
   for sTDA-xTB:
   * S. Grimme and C. Bannwarth, J. Chem. Phys., 2016, 145, 054103.
     DOI: 10.1063/1.4959605
   
   in the mass-spec context:
   * V. Asgeirsson, C. Bauer and S. Grimme, Chem. Sci., 2017, 8, 4879.
     DOI: 10.1039/c7sc00601b
   * J. Koopman and S. Grimme, ACS Omega 2019, 4, 12, 15120-15133.
     DOI: 10.1021/acsomega.9b02011
   
   for metadynamics refer to:
   * S. Grimme, J. Chem. Theory Comput., 2019, 155, 2847-2862
     DOI: 10.1021/acs.jctc.9b00143
   
   for SPH calculations refer to:
   * S. Spicher and S. Grimme, J. Chem. Theory Comput., 2021, 17, 1701-1714
     DOI: 10.1021/acs.jctc.0c01306
   
   with help from (in alphabetical order)
   P. Atkinson, C. Bannwarth, F. Bohle, G. Brandenburg, E. Caldeweyher
   M. Checinski, S. Dohm, S. Ehlert, S. Ehrlich, I. Gerasimov, J. Koopman
   C. Lavigne, S. Lehtola, F. März, M. Müller, F. Musil, H. Neugebauer
   J. Pisarek, C. Plett, P. Pracht, J. Seibert, P. Shushkov, S. Spicher
   M. Stahn, M. Steiner, T. Strunk, J. Stückrath, T. Rose, and J. Unsleber
   
 * started run on 2022/02/11 at 15:13:52.256     

           -------------------------------------------------
          |                Calculation Setup                |
           -------------------------------------------------

          program call               : /ihome/ghutchison/oda6/xtb/xtb-641/bin/xtb ../../GFN2_output/39_28_16_28_1.mol --sp --alpb hexane
          hostname                   : smp-n25
          coordinate file            : ../../GFN2_output/39_28_16_28_1.mol
          omp threads                :                     8
          number of atoms            :                   194
          number of electrons        :                   582
          charge                     :                     0
          spin                       :                   0.0
          first test random number   :      0.03629102096182

   ID    Z sym.   atoms
    1    6 C      1-3, 5-13, 15, 17-25, 27-41, 43, 44, 46-60, 62-65, 67, 68,
                  70-84, 86, 87, 89-103, 105-107, 109-111, 113-118, 120
    2    8 O      4, 66, 108
    3    7 N      14, 16, 26, 45, 69, 88, 119, 121
    4   16 S      42, 61, 85, 104
    5   35 Br     112
    6    1 H      122-194

           -------------------------------------------------
          |                 G F N 2 - x T B                 |
           -------------------------------------------------

        Reference                      10.1021/acs.jctc.8b01176
      * Hamiltonian:
        H0-scaling (s, p, d)           1.850000    2.230000    2.230000
        zeta-weighting                 0.500000
      * Dispersion:
        s8                             2.700000
        a1                             0.520000
        a2                             5.000000
        s9                             5.000000
      * Repulsion:
        kExp                           1.500000    1.000000
        rExp                           1.000000
      * Coulomb:
        alpha                          2.000000
        third order                    shell-resolved
        anisotropic                    true
        a3                             3.000000
        a5                             4.000000
        cn-shift                       1.200000
        cn-exp                         4.000000
        max-rad                        5.000000

      * Solvation model:               ALPB
        Solvent                        hexane
        Parameter file                 internal GFN2-xTB/ALPB
        Dielectric constant                1.8800E+00
        Reference state                gsolv [1 M gas/solution]
        Free energy shift                  4.8134E-03 Eh       3.0204E+00 kcal/mol
        Temperature                        2.9815E+02 K
        Density                            6.6000E-01 kg/L
        Solvent mass                       8.6180E+01 g/mol
        Interaction kernel             P16
        Born radius scaling (c1)           1.1040E+00
        Born radii integrator          GBOBC
        Born offset                        0.0000E+00 a0       0.0000E+00 AA
        H-bond correction              false
        Ion screening                  false
        Surface tension                    1.0000E-05 Eh       1.5569E+01 dyn/cm
        Grid points                               230 per atom

          ...................................................
          :                      SETUP                      :
          :.................................................:
          :  # basis functions                 587          :
          :  # atomic orbitals                 582          :
          :  # shells                          320          :
          :  # electrons                       582          :
          :  max. iterations                   250          :
          :  Hamiltonian                  GFN2-xTB          :
          :  restarted?                      false          :
          :  GBSA solvation                   true          :
          :  PC potential                    false          :
          :  electronic temp.          300.0000000     K    :
          :  accuracy                    1.0000000          :
          :  -> integral cutoff          0.2500000E+02      :
          :  -> integral neglect         0.1000000E-07      :
          :  -> SCF convergence          0.1000000E-05 Eh   :
          :  -> wf. convergence          0.1000000E-03 e    :
          :  Broyden damping             0.4000000          :
          ...................................................

 iter      E             dE          RMSdq      gap      omega  full diag
   1   -319.9891853 -0.319989E+03  0.445E+00    0.78       0.0  T
   2   -320.1485026 -0.159317E+00  0.264E+00    0.84       1.0  T
   3   -319.9698323  0.178670E+00  0.125E+00    0.47       1.0  T
   4   -320.1821699 -0.212338E+00  0.449E-01    0.72       1.0  T
   5   -320.2065419 -0.243720E-01  0.152E-01    0.60       1.0  T
   6   -320.2077290 -0.118711E-02  0.791E-02    0.64       1.0  T
   7   -320.2080051 -0.276106E-03  0.446E-02    0.62       1.0  T
   8   -320.2080782 -0.731042E-04  0.325E-02    0.63       1.0  T
   9   -320.2081038 -0.255918E-04  0.220E-02    0.63       1.0  T
  10   -320.2081223 -0.185274E-04  0.127E-02    0.63       1.0  T
  11   -320.2081301 -0.775187E-05  0.589E-03    0.63       1.2  T
  12   -320.2081313 -0.121845E-05  0.263E-03    0.62       2.7  T
  13   -320.2081319 -0.548904E-06  0.119E-03    0.62       6.0  T
  14   -320.2081320 -0.120980E-06  0.511E-04    0.62      14.0  T
  15   -320.2081320 -0.188220E-07  0.277E-04    0.62      26.0  T

   *** convergence criteria satisfied after 15 iterations ***

         #    Occupation            Energy/Eh            Energy/eV
      -------------------------------------------------------------
         1        2.0000           -0.8481252             -23.0787
       ...           ...                  ...                  ...
       285        2.0000           -0.3921707             -10.6715
       286        2.0000           -0.3877597             -10.5515
       287        2.0000           -0.3762433             -10.2381
       288        2.0000           -0.3673747              -9.9968
       289        2.0000           -0.3615864              -9.8393
       290        2.0000           -0.3585284              -9.7561
       291        2.0000           -0.3493817              -9.5072 (HOMO)
       292        0.0000           -0.3264179              -8.8823 (LUMO)
       293                         -0.3209504              -8.7335
       294                         -0.3142054              -8.5500
       295                         -0.3104798              -8.4486
       296                         -0.2810253              -7.6471
       ...                                ...                  ...
       582                          1.1621085              31.6226
      -------------------------------------------------------------
                  HL-Gap            0.0229638 Eh            0.6249 eV
             Fermi-level           -0.3379013 Eh           -9.1948 eV

 SCC (total)                   0 d,  0 h,  0 min,  0.912 sec
 SCC setup                      ...        0 min,  0.007 sec (  0.769%)
 Dispersion                     ...        0 min,  0.011 sec (  1.167%)
 classical contributions        ...        0 min,  0.000 sec (  0.047%)
 integral evaluation            ...        0 min,  0.044 sec (  4.824%)
 iterations                     ...        0 min,  0.727 sec ( 79.775%)
 molecular gradient             ...        0 min,  0.119 sec ( 13.072%)
 printout                       ...        0 min,  0.003 sec (  0.336%)

         :::::::::::::::::::::::::::::::::::::::::::::::::::::
         ::                     SUMMARY                     ::
         :::::::::::::::::::::::::::::::::::::::::::::::::::::
         :: total energy            -314.787158809389 Eh    ::
         :: total w/o Gsasa/hb      -314.686597438041 Eh    ::
         :: gradient norm              0.022318503549 Eh/a0 ::
         :: HOMO-LUMO gap              0.624875446422 eV    ::
         ::.................................................::
         :: SCC energy              -320.208131996374 Eh    ::
         :: -> isotropic ES            0.145679620349 Eh    ::
         :: -> anisotropic ES          0.021540256982 Eh    ::
         :: -> anisotropic XC          0.195315374184 Eh    ::
         :: -> dispersion             -0.347597564744 Eh    ::
         :: -> Gsolv                  -0.121547722016 Eh    ::
         ::    -> Gelec               -0.020986350668 Eh    ::
         ::    -> Gsasa               -0.105374727168 Eh    ::
         ::    -> Ghb                  0.000000000000 Eh    ::
         ::    -> Gshift               0.004813355820 Eh    ::
         :: repulsion energy           5.410136116028 Eh    ::
         :: add. restraining           0.000000000000 Eh    ::
         :: total charge              -0.000000000000 e     ::
         :::::::::::::::::::::::::::::::::::::::::::::::::::::

           -------------------------------------------------
          |                Property Printout                |
           -------------------------------------------------

    * Orbital Energies and Occupations

         #    Occupation            Energy/Eh            Energy/eV
      -------------------------------------------------------------
         1        2.0000           -0.8481252             -23.0787
       ...           ...                  ...                  ...
       279        2.0000           -0.4011801             -10.9167
       280        2.0000           -0.3994111             -10.8685
       281        2.0000           -0.3992200             -10.8633
       282        2.0000           -0.3988930             -10.8544
       283        2.0000           -0.3963284             -10.7846
       284        2.0000           -0.3930208             -10.6946
       285        2.0000           -0.3921707             -10.6715
       286        2.0000           -0.3877597             -10.5515
       287        2.0000           -0.3762433             -10.2381
       288        2.0000           -0.3673747              -9.9968
       289        2.0000           -0.3615864              -9.8393
       290        2.0000           -0.3585284              -9.7561
       291        2.0000           -0.3493817              -9.5072 (HOMO)
       292        0.0000           -0.3264179              -8.8823 (LUMO)
       293                         -0.3209504              -8.7335
       294                         -0.3142054              -8.5500
       295                         -0.3104798              -8.4486
       296                         -0.2810253              -7.6471
       297                         -0.2667837              -7.2596
       298                         -0.2565112              -6.9800
       299                         -0.2462175              -6.6999
       300                         -0.2420522              -6.5866
       301                         -0.2397214              -6.5232
       302                         -0.2393284              -6.5125
       ...                                ...                  ...
       582                          1.1621085              31.6226
      -------------------------------------------------------------
                  HL-Gap            0.0229638 Eh            0.6249 eV
             Fermi-level           -0.3379013 Eh           -9.1948 eV

     #   Z          covCN         q      C6AA      α(0)
     1   6 C        2.922    -0.016    28.410     8.741
     2   6 C        3.008    -0.044    29.082     8.846
     3   6 C        2.875     0.231    23.169     7.891
     4   8 O        0.937    -0.408    21.807     6.263
     5   6 C        3.061    -0.022    28.504     8.755
     6   6 C        2.904    -0.023    28.581     8.766
     7   6 C        3.260     0.008    26.686     8.347
     8   6 C        3.255     0.010    26.691     8.356
     9   6 C        2.904    -0.035    28.868     8.810
    10   6 C        3.050     0.004    27.876     8.659
    11   6 C        3.024     0.033    27.247     8.562
    12   6 C        2.947    -0.000    28.038     8.685
    13   6 C        1.948     0.133    27.838     8.520
    14   7 N        0.911    -0.281    27.255     7.551
    15   6 C        1.947     0.128    27.949     8.537
    16   7 N        0.911    -0.283    27.291     7.556
    17   6 C        4.163    -0.022    20.883     6.490
    18   6 C        4.013    -0.015    20.769     6.474
    19   6 C        2.995    -0.042    29.023     8.837
    20   6 C        2.995    -0.043    29.047     8.841
    21   6 C        4.013    -0.015    20.768     6.474
    22   6 C        3.915    -0.060    21.582     6.603
    23   6 C        4.160    -0.022    20.883     6.490
    24   6 C        2.986     0.005    27.902     8.665
    25   6 C        3.041     0.059    26.640     8.466
    26   7 N        2.748    -0.046    22.125     6.986
    27   6 C        2.925     0.057    26.721     8.477
    28   6 C        2.920    -0.041    29.012     8.833
    29   6 C        2.926    -0.037    28.912     8.818
    30   6 C        2.965     0.013    27.721     8.636
    31   6 C        3.758    -0.112    22.693     6.792
    32   6 C        2.925    -0.042    29.038     8.837
    33   6 C        2.920    -0.050    29.248     8.869
    34   6 C        2.934     0.060    26.657     8.467
    35   6 C        2.920    -0.043    29.072     8.842
    36   6 C        2.926    -0.039    28.970     8.827
    37   6 C        2.966     0.018    27.615     8.620
    38   6 C        3.758    -0.114    22.742     6.799
    39   6 C        2.925    -0.038    28.951     8.824
    40   6 C        2.921    -0.043    29.057     8.840
    41   6 C        3.153     0.003    27.663     8.602
    42  16 S        2.242    -0.066   143.780    20.181
    43   6 C        2.991    -0.010    28.245     8.718
    44   6 C        3.049     0.056    26.700     8.474
    45   7 N        2.749    -0.060    22.409     7.031
    46   6 C        2.923     0.065    26.549     8.450
    47   6 C        2.920    -0.051    29.259     8.870
    48   6 C        2.925    -0.041    29.007     8.832
    49   6 C        2.965     0.010    27.800     8.648
    50   6 C        3.757    -0.108    22.622     6.781
    51   6 C        2.926    -0.041    29.028     8.836
    52   6 C        2.922    -0.047    29.161     8.856
    53   6 C        2.939     0.060    26.665     8.469
    54   6 C        2.920    -0.041    29.014     8.833
    55   6 C        2.926    -0.035    28.881     8.813
    56   6 C        2.967     0.023    27.490     8.600
    57   6 C        3.758    -0.109    22.637     6.783
    58   6 C        2.926    -0.033    28.827     8.805
    59   6 C        2.922    -0.040    29.003     8.832
    60   6 C        3.160    -0.004    27.786     8.617
    61  16 S        2.298    -0.011   141.522    20.022
    62   6 C        3.122     0.123    25.133     8.210
    63   6 C        3.008    -0.065    29.594     8.924
    64   6 C        3.006    -0.064    29.564     8.919
    65   6 C        3.140     0.119    25.164     8.209
    66   8 O        1.729    -0.216    17.574     5.660
    67   6 C        2.996    -0.006    28.151     8.703
    68   6 C        3.048     0.047    26.899     8.506
    69   7 N        2.748    -0.069    22.578     7.057
    70   6 C        2.933     0.058    26.702     8.475
    71   6 C        2.922    -0.046    29.145     8.853
    72   6 C        2.925    -0.039    28.964     8.826
    73   6 C        2.966     0.016    27.642     8.624
    74   6 C        3.758    -0.114    22.738     6.798
    75   6 C        2.925    -0.040    28.995     8.831
    76   6 C        2.920    -0.045    29.125     8.850
    77   6 C        2.921     0.058    26.694     8.473
    78   6 C        2.922    -0.052    29.296     8.876
    79   6 C        2.925    -0.042    29.045     8.838
    80   6 C        2.965     0.009    27.814     8.651
    81   6 C        3.758    -0.112    22.695     6.792
    82   6 C        2.925    -0.041    29.022     8.835
    83   6 C        2.921    -0.054    29.346     8.884
    84   6 C        3.167     0.013    27.374     8.549
    85  16 S        2.271    -0.055   143.348    20.151
    86   6 C        2.986     0.014    27.694     8.632
    87   6 C        3.034     0.073    26.345     8.419
    88   7 N        2.749    -0.028    21.795     6.934
    89   6 C        2.936     0.061    26.641     8.465
    90   6 C        2.920    -0.042    29.049     8.838
    91   6 C        2.925    -0.039    28.979     8.828
    92   6 C        2.966     0.019    27.593     8.616
    93   6 C        3.758    -0.115    22.746     6.800
    94   6 C        2.927    -0.036    28.900     8.816
    95   6 C        2.920    -0.036    28.889     8.814
    96   6 C        2.924     0.062    26.604     8.459
    97   6 C        2.921    -0.043    29.064     8.841
    98   6 C        2.924    -0.041    29.024     8.835
    99   6 C        2.965     0.015    27.673     8.629
   100   6 C        3.758    -0.112    22.698     6.792
   101   6 C        2.925    -0.039    28.967     8.826
   102   6 C        2.920    -0.046    29.133     8.851
   103   6 C        3.168    -0.000    27.678     8.596
   104  16 S        2.272    -0.024   142.044    20.059
   105   6 C        2.957    -0.013    28.334     8.731
   106   6 C        3.016    -0.049    29.204     8.865
   107   6 C        2.872     0.229    23.211     7.898
   108   8 O        0.856    -0.441    22.526     6.363
   109   6 C        3.054    -0.017    28.375     8.736
   110   6 C        2.986    -0.023    28.565     8.767
   111   6 C        2.920     0.090    26.003     8.362
   112  35 Br       1.072    -0.167   189.669    22.206
   113   6 C        2.996    -0.030    28.728     8.792
   114   6 C        2.916    -0.026    28.660     8.779
   115   6 C        3.036     0.006    27.861     8.658
   116   6 C        3.026     0.032    27.263     8.565
   117   6 C        2.948    -0.001    28.049     8.686
   118   6 C        1.936     0.129    27.928     8.534
   119   7 N        0.911    -0.279    27.202     7.543
   120   6 C        1.936     0.131    27.886     8.528
   121   7 N        0.911    -0.282    27.273     7.553
   122   1 H        0.925     0.068     2.112     2.273
   123   1 H        0.926     0.056     2.250     2.346
   124   1 H        0.926     0.056     2.247     2.344
   125   1 H        0.925     0.044     2.396     2.421
   126   1 H        0.925     0.039     2.460     2.453
   127   1 H        0.926     0.038     2.478     2.462
   128   1 H        0.926     0.037     2.485     2.465
   129   1 H        0.925     0.038     2.477     2.461
   130   1 H        0.925     0.040     2.452     2.449
   131   1 H        0.925     0.035     2.510     2.478
   132   1 H        0.925     0.043     2.406     2.426
   133   1 H        0.926     0.052     2.300     2.372
   134   1 H        0.926     0.048     2.349     2.397
   135   1 H        0.925     0.046     2.368     2.406
   136   1 H        0.924     0.052     2.290     2.366
   137   1 H        0.925     0.052     2.289     2.366
   138   1 H        0.926     0.037     2.494     2.470
   139   1 H        0.926     0.031     2.575     2.510
   140   1 H        0.926     0.041     2.437     2.441
   141   1 H        0.926     0.043     2.408     2.426
   142   1 H        0.925     0.050     2.321     2.383
   143   1 H        0.924     0.054     2.265     2.354
   144   1 H        0.925     0.049     2.329     2.387
   145   1 H        0.926     0.043     2.405     2.425
   146   1 H        0.926     0.038     2.470     2.458
   147   1 H        0.926     0.028     2.618     2.530
   148   1 H        0.926     0.034     2.532     2.488
   149   1 H        0.925     0.042     2.428     2.437
   150   1 H        0.925     0.048     2.351     2.398
   151   1 H        0.924     0.049     2.326     2.385
   152   1 H        0.926     0.039     2.458     2.452
   153   1 H        0.926     0.039     2.455     2.450
   154   1 H        0.926     0.036     2.501     2.473
   155   1 H        0.926     0.042     2.424     2.435
   156   1 H        0.925     0.044     2.403     2.424
   157   1 H        0.925     0.059     2.215     2.327
   158   1 H        0.925     0.045     2.383     2.414
   159   1 H        0.926     0.039     2.467     2.456
   160   1 H        0.926     0.035     2.521     2.483
   161   1 H        0.926     0.053     2.283     2.363
   162   1 H        0.927     0.053     2.281     2.362
   163   1 H        0.926     0.032     2.554     2.499
   164   1 H        0.926     0.044     2.399     2.422
   165   1 H        0.925     0.056     2.244     2.343
   166   1 H        0.925     0.046     2.377     2.411
   167   1 H        0.925     0.051     2.303     2.373
   168   1 H        0.926     0.040     2.448     2.447
   169   1 H        0.926     0.039     2.462     2.454
   170   1 H        0.926     0.036     2.499     2.472
   171   1 H        0.926     0.038     2.476     2.461
   172   1 H        0.925     0.043     2.405     2.425
   173   1 H        0.925     0.049     2.328     2.386
   174   1 H        0.925     0.049     2.331     2.387
   175   1 H        0.926     0.040     2.455     2.450
   176   1 H        0.926     0.027     2.633     2.538
   177   1 H        0.926     0.039     2.463     2.454
   178   1 H        0.926     0.042     2.421     2.433
   179   1 H        0.925     0.053     2.279     2.361
   180   1 H        0.925     0.049     2.338     2.391
   181   1 H        0.925     0.055     2.263     2.352
   182   1 H        0.926     0.046     2.368     2.406
   183   1 H        0.926     0.057     2.236     2.339
   184   1 H        0.926     0.044     2.394     2.419
   185   1 H        0.926     0.040     2.455     2.450
   186   1 H        0.925     0.048     2.348     2.396
   187   1 H        0.925     0.058     2.220     2.330
   188   1 H        0.925     0.053     2.278     2.360
   189   1 H        0.926     0.045     2.389     2.417
   190   1 H        0.926     0.039     2.463     2.454
   191   1 H        0.925     0.065     2.145     2.290
   192   1 H        0.926     0.073     2.055     2.242
   193   1 H        0.926     0.071     2.079     2.255
   194   1 H        0.926     0.067     2.124     2.279

 Mol. C6AA /au·bohr⁶  :     599903.749485
 Mol. C8AA /au·bohr⁸  :   16205205.170299
 Mol. α(0) /au        :       1239.723714


Wiberg/Mayer (AO) data.
largest (>0.10) Wiberg bond orders for each atom

 ---------------------------------------------------------------------------
     #   Z sym  total        # sym  WBO       # sym  WBO       # sym  WBO
 ---------------------------------------------------------------------------
     1   6 C    3.946 --     2 C    1.453    24 C    1.346   122 H    0.930
     2   6 C    3.950 --     1 C    1.453    11 C    1.161     3 C    1.072
     3   6 C    3.908 --     4 O    1.681     2 C    1.072     5 C    1.026
     4   8 O    2.067 --     3 C    1.681    61 S    0.114
     5   6 C    3.969 --     6 C    1.382    10 C    1.312     3 C    1.026
     6   6 C    3.979 --     7 C    1.440     5 C    1.382   123 H    0.962
     7   6 C    3.955 --     6 C    1.440     8 C    1.329    23 C    0.992
     8   6 C    3.966 --     9 C    1.445     7 C    1.329    17 C    0.993
     9   6 C    3.974 --     8 C    1.445    10 C    1.369   124 H    0.958
    10   6 C    3.977 --     9 C    1.369     5 C    1.312    11 C    1.083
    11   6 C    3.970 --    12 C    1.451     2 C    1.161    10 C    1.083
    12   6 C    3.949 --    11 C    1.451    15 C    1.107    13 C    1.107
    13   6 C    3.940 --    14 N    2.742    12 C    1.107
    14   7 N    2.951 --    13 C    2.742
    15   6 C    3.942 --    16 N    2.730    12 C    1.107
    16   7 N    2.953 --    15 C    2.730
    17   6 C    3.985 --     8 C    0.993    23 C    0.975   125 H    0.961
                            18 C    0.951
    18   6 C    3.989 --    19 C    1.004    22 C    0.989   126 H    0.971
                            17 C    0.951
    19   6 C    3.982 --    20 C    1.924    18 C    1.004   127 H    0.971
    20   6 C    3.982 --    19 C    1.924    21 C    1.004   128 H    0.971
    21   6 C    3.989 --    20 C    1.004    22 C    0.989   129 H    0.971
                            23 C    0.951
    22   6 C    3.994 --    21 C    0.989    18 C    0.989   130 H    0.978
                           131 H    0.974
    23   6 C    3.984 --     7 C    0.992    17 C    0.975   132 H    0.962
                            21 C    0.951
    24   6 C    3.924 --     1 C    1.346    25 C    1.264    61 S    1.078
    25   6 C    3.946 --    41 C    1.270    24 C    1.264    26 N    1.159
    26   7 N    3.529 --    25 C    1.159    34 C    1.032    27 C    1.031
    27   6 C    3.960 --    28 C    1.372    33 C    1.366    26 N    1.031
    28   6 C    3.981 --    29 C    1.453    27 C    1.372   133 H    0.966
    29   6 C    3.990 --    28 C    1.453    30 C    1.405   134 H    0.968
                            33 C    0.106
    30   6 C    3.981 --    29 C    1.405    32 C    1.397    31 C    1.028
    31   6 C    3.995 --    30 C    1.028   135 H    0.984   137 H    0.977
                           136 H    0.966
    32   6 C    3.989 --    33 C    1.461    30 C    1.397   138 H    0.968
    33   6 C    3.986 --    32 C    1.461    27 C    1.366   139 H    0.968
                            29 C    0.106
    34   6 C    3.959 --    35 C    1.371    40 C    1.367    26 N    1.032
    35   6 C    3.975 --    36 C    1.459    34 C    1.371   140 H    0.967
                            39 C    0.104
    36   6 C    3.989 --    35 C    1.459    37 C    1.400   141 H    0.968
                            40 C    0.103
    37   6 C    3.972 --    39 C    1.402    36 C    1.400    38 C    1.028
    38   6 C    3.995 --    37 C    1.028   144 H    0.982   142 H    0.980
                           143 H    0.965
    39   6 C    3.989 --    40 C    1.457    37 C    1.402   145 H    0.968
                            35 C    0.104
    40   6 C    3.981 --    39 C    1.457    34 C    1.367   146 H    0.967
                            36 C    0.103
    41   6 C    3.926 --    60 C    1.344    25 C    1.270    42 S    1.091
    42  16 S    2.506 --    41 C    1.091    43 C    1.086
    43   6 C    3.897 --    44 C    1.372    62 C    1.178    42 S    1.086
    44   6 C    3.950 --    43 C    1.372    60 C    1.217    45 N    1.128
    45   7 N    3.496 --    44 C    1.128    46 C    1.056    53 C    1.012
    46   6 C    3.963 --    47 C    1.366    52 C    1.360    45 N    1.056
    47   6 C    3.985 --    48 C    1.457    46 C    1.366   147 H    0.968
                            51 C    0.104
    48   6 C    3.989 --    47 C    1.457    49 C    1.403   148 H    0.968
                            52 C    0.101
    49   6 C    3.980 --    48 C    1.403    51 C    1.399    50 C    1.026
    50   6 C    3.996 --    49 C    1.026   149 H    0.985   150 H    0.976
                           151 H    0.967
    51   6 C    3.990 --    52 C    1.463    49 C    1.399   152 H    0.967
                            47 C    0.104
    52   6 C    3.984 --    51 C    1.463    46 C    1.360   153 H    0.963
                            48 C    0.101
    53   6 C    3.961 --    59 C    1.379    54 C    1.379    45 N    1.012
    54   6 C    3.984 --    55 C    1.458    53 C    1.379   154 H    0.968
                            58 C    0.105
    55   6 C    3.990 --    54 C    1.458    56 C    1.398   155 H    0.968
                            59 C    0.104
    56   6 C    3.978 --    58 C    1.407    55 C    1.398    57 C    1.028
    57   6 C    3.996 --    56 C    1.028   156 H    0.983   158 H    0.981
                           157 H    0.962
    58   6 C    3.990 --    59 C    1.449    56 C    1.407   159 H    0.968
                            54 C    0.105
    59   6 C    3.985 --    58 C    1.449    53 C    1.379   160 H    0.969
                            55 C    0.104
    60   6 C    3.940 --    41 C    1.344    44 C    1.217    61 S    1.140
    61  16 S    2.690 --    60 C    1.140    24 C    1.078     4 O    0.114
    62   6 C    3.878 --    63 C    1.420    43 C    1.178    66 O    1.086
    63   6 C    3.950 --    62 C    1.420    64 C    1.386   161 H    0.972
    64   6 C    3.952 --    65 C    1.412    63 C    1.386   162 H    0.969
    65   6 C    3.877 --    64 C    1.412    67 C    1.187    66 O    1.080
    66   8 O    2.397 --    62 C    1.086    65 C    1.080
    67   6 C    3.904 --    68 C    1.366    65 C    1.187   104 S    1.100
    68   6 C    3.945 --    67 C    1.366    84 C    1.242    69 N    1.098
    69   7 N    3.492 --    68 C    1.098    77 C    1.063    70 C    1.027
    70   6 C    3.961 --    76 C    1.379    71 C    1.367    69 N    1.027
    71   6 C    3.985 --    72 C    1.461    70 C    1.367   163 H    0.968
                            75 C    0.102
    72   6 C    3.990 --    71 C    1.461    73 C    1.399   164 H    0.969
                            76 C    0.106
    73   6 C    3.977 --    75 C    1.406    72 C    1.399    74 C    1.028
    74   6 C    3.995 --    73 C    1.028   166 H    0.985   167 H    0.973
                           165 H    0.968
    75   6 C    3.990 --    76 C    1.452    73 C    1.406   168 H    0.968
                            71 C    0.102
    76   6 C    3.983 --    75 C    1.452    70 C    1.379   169 H    0.968
                            72 C    0.106
    77   6 C    3.962 --    83 C    1.366    78 C    1.352    69 N    1.063
    78   6 C    3.983 --    79 C    1.469    77 C    1.352   170 H    0.967
                            82 C    0.102
    79   6 C    3.990 --    78 C    1.469    80 C    1.393   171 H    0.969
                            83 C    0.104
    80   6 C    3.979 --    82 C    1.409    79 C    1.393    81 C    1.026
    81   6 C    3.995 --    80 C    1.026   172 H    0.986   173 H    0.973
                           174 H    0.972
    82   6 C    3.990 --    83 C    1.452    80 C    1.409   175 H    0.967
                            78 C    0.102
    83   6 C    3.985 --    82 C    1.452    77 C    1.366   176 H    0.965
                            79 C    0.104
    84   6 C    3.929 --   103 C    1.343    68 C    1.242    85 S    1.119
    85  16 S    2.500 --    84 C    1.119    86 C    1.052
    86   6 C    3.921 --   105 C    1.379    87 C    1.267    85 S    1.052
    87   6 C    3.951 --    86 C    1.267   103 C    1.257    88 N    1.167
    88   7 N    3.556 --    87 C    1.167    96 C    1.063    89 C    1.012
    89   6 C    3.956 --    90 C    1.383    95 C    1.368    88 N    1.012
    90   6 C    3.978 --    91 C    1.448    89 C    1.383   177 H    0.968
                            94 C    0.104
    91   6 C    3.989 --    90 C    1.448    92 C    1.408   178 H    0.968
                            95 C    0.103
    92   6 C    3.975 --    91 C    1.408    94 C    1.392    93 C    1.029
    93   6 C    3.994 --    92 C    1.029   180 H    0.983   179 H    0.970
                           181 H    0.969
    94   6 C    3.989 --    95 C    1.465    92 C    1.392   182 H    0.967
                            90 C    0.104
    95   6 C    3.984 --    94 C    1.465    89 C    1.368   183 H    0.964
                            91 C    0.103
    96   6 C    3.963 --    97 C    1.357   102 C    1.348    88 N    1.063
    97   6 C    3.980 --    98 C    1.447    96 C    1.357   184 H    0.966
    98   6 C    3.990 --    97 C    1.447    99 C    1.411   185 H    0.968
                           102 C    0.101
    99   6 C    3.978 --    98 C    1.411   101 C    1.382   100 C    1.030
   100   6 C    3.994 --    99 C    1.030   186 H    0.985   187 H    0.969
                           188 H    0.968
   101   6 C    3.989 --   102 C    1.476    99 C    1.382   189 H    0.968
   102   6 C    3.985 --   101 C    1.476    96 C    1.348   190 H    0.967
                            98 C    0.101
   103   6 C    3.926 --    84 C    1.343    87 C    1.257   104 S    1.105
   104  16 S    2.557 --   103 C    1.105    67 C    1.100
   105   6 C    3.941 --   106 C    1.392    86 C    1.379   191 H    0.947
   106   6 C    3.951 --   105 C    1.392   116 C    1.194   107 C    1.072
   107   6 C    3.924 --   108 O    1.691   106 C    1.072   109 C    0.999
   108   8 O    1.994 --   107 C    1.691
   109   6 C    3.977 --   110 C    1.435   115 C    1.298   107 C    0.999
   110   6 C    3.978 --   109 C    1.435   111 C    1.382   192 H    0.963
   111   6 C    3.921 --   113 C    1.416   110 C    1.382   112 Br   0.985
   112  35 Br   1.113 --   111 C    0.985
   113   6 C    3.977 --   114 C    1.419   111 C    1.416   193 H    0.966
   114   6 C    3.974 --   113 C    1.419   115 C    1.411   194 H    0.959
   115   6 C    3.986 --   114 C    1.411   109 C    1.298   116 C    1.072
   116   6 C    3.967 --   117 C    1.434   106 C    1.194   115 C    1.072
   117   6 C    3.950 --   116 C    1.434   120 C    1.113   118 C    1.107
   118   6 C    3.942 --   119 N    2.744   117 C    1.107
   119   7 N    2.954 --   118 C    2.744
   120   6 C    3.941 --   121 N    2.739   117 C    1.113
   121   7 N    2.946 --   120 C    2.739
   122   1 H    0.994 --     1 C    0.930
   123   1 H    0.996 --     6 C    0.962
   124   1 H    0.996 --     9 C    0.958
   125   1 H    0.997 --    17 C    0.961
   126   1 H    0.998 --    18 C    0.971
   127   1 H    0.998 --    19 C    0.971
   128   1 H    0.998 --    20 C    0.971
   129   1 H    0.998 --    21 C    0.971
   130   1 H    0.998 --    22 C    0.978
   131   1 H    0.999 --    22 C    0.974
   132   1 H    0.996 --    23 C    0.962
   133   1 H    0.997 --    28 C    0.966
   134   1 H    0.997 --    29 C    0.968
   135   1 H    0.997 --    31 C    0.984
   136   1 H    0.996 --    31 C    0.966
   137   1 H    0.996 --    31 C    0.977
   138   1 H    0.998 --    32 C    0.968
   139   1 H    0.999 --    33 C    0.968
   140   1 H    0.998 --    35 C    0.967
   141   1 H    0.998 --    36 C    0.968
   142   1 H    0.997 --    38 C    0.980
   143   1 H    0.995 --    38 C    0.965
   144   1 H    0.997 --    38 C    0.982
   145   1 H    0.997 --    39 C    0.968
   146   1 H    0.998 --    40 C    0.967
   147   1 H    0.999 --    47 C    0.968
   148   1 H    0.998 --    48 C    0.968
   149   1 H    0.998 --    50 C    0.985
   150   1 H    0.996 --    50 C    0.976
   151   1 H    0.996 --    50 C    0.967
   152   1 H    0.998 --    51 C    0.967
   153   1 H    0.998 --    52 C    0.963
   154   1 H    0.998 --    54 C    0.968
   155   1 H    0.998 --    55 C    0.968
   156   1 H    0.998 --    57 C    0.983
   157   1 H    0.995 --    57 C    0.962
   158   1 H    0.997 --    57 C    0.981
   159   1 H    0.998 --    58 C    0.968
   160   1 H    0.999 --    59 C    0.969
   161   1 H    0.996 --    63 C    0.972
   162   1 H    0.997 --    64 C    0.969
   163   1 H    0.999 --    71 C    0.968
   164   1 H    0.998 --    72 C    0.969
   165   1 H    0.996 --    74 C    0.968
   166   1 H    0.998 --    74 C    0.985
   167   1 H    0.996 --    74 C    0.973
   168   1 H    0.998 --    75 C    0.968
   169   1 H    0.998 --    76 C    0.968
   170   1 H    0.998 --    78 C    0.967
   171   1 H    0.998 --    79 C    0.969
   172   1 H    0.998 --    81 C    0.986
   173   1 H    0.996 --    81 C    0.973
   174   1 H    0.996 --    81 C    0.972
   175   1 H    0.998 --    82 C    0.967
   176   1 H    0.999 --    83 C    0.965
   177   1 H    0.998 --    90 C    0.968
   178   1 H    0.998 --    91 C    0.968
   179   1 H    0.996 --    93 C    0.970
   180   1 H    0.997 --    93 C    0.983
   181   1 H    0.996 --    93 C    0.969
   182   1 H    0.997 --    94 C    0.967
   183   1 H    0.996 --    95 C    0.964
   184   1 H    0.998 --    97 C    0.966
   185   1 H    0.998 --    98 C    0.968
   186   1 H    0.997 --   100 C    0.985
   187   1 H    0.994 --   100 C    0.969
   188   1 H    0.995 --   100 C    0.968
   189   1 H    0.997 --   101 C    0.968
   190   1 H    0.998 --   102 C    0.967
   191   1 H    0.992 --   105 C    0.947
   192   1 H    0.994 --   110 C    0.963
   193   1 H    0.994 --   113 C    0.966
   194   1 H    0.995 --   114 C    0.959
 ---------------------------------------------------------------------------

Topologies differ in bond orders
Writing corrected topology to xtbtopo.mol

molecular dipole:
                 x           y           z       tot (Debye)
 q only:        0.316      -1.795       1.576
   full:        0.270      -1.472       1.617       5.599
molecular quadrupole (traceless):
                xx          xy          yy          xz          yz          zz
 q only:       79.825     -55.257    -129.099      69.693      59.034      49.274
  q+dip:       75.147     -49.936    -140.329      71.851      70.476      65.182
   full:       74.238     -47.684    -136.443      66.862      73.953      62.205


           -------------------------------------------------
          | TOTAL ENERGY             -314.787158809389 Eh   |
          | GRADIENT NORM               0.022318503549 Eh/α |
          | HOMO-LUMO GAP               0.624875446422 eV   |
           -------------------------------------------------

------------------------------------------------------------------------
 * finished run on 2022/02/11 at 15:13:53.267     
------------------------------------------------------------------------
 total:
 * wall-time:     0 d,  0 h,  0 min,  1.011 sec
 *  cpu-time:     0 d,  0 h,  0 min,  7.818 sec
 * ratio c/w:     7.736 speedup
 SCF:
 * wall-time:     0 d,  0 h,  0 min,  0.915 sec
 *  cpu-time:     0 d,  0 h,  0 min,  7.142 sec
 * ratio c/w:     7.806 speedup

