      -----------------------------------------------------------      
     |                   =====================                   |     
     |                           x T B                           |     
     |                   =====================                   |     
     |                         S. Grimme                         |     
     |          Mulliken Center for Theoretical Chemistry        |     
     |                    University of Bonn                     |     
      -----------------------------------------------------------      

   * xtb version 6.4.1 (unknown) compiled by 'oda6@login1.crc.pitt.edu' on 2021-06-25

   xtb is free software: you can redistribute it and/or modify it under
   the terms of the GNU Lesser General Public License as published by
   the Free Software Foundation, either version 3 of the License, or
   (at your option) any later version.
   
   xtb is distributed in the hope that it will be useful,
   but WITHOUT ANY WARRANTY; without even the implied warranty of
   MERCHANTABILITY or FITNESS FOR A PARTICULAR PURPOSE.  See the
   GNU Lesser General Public License for more details.
   
   Cite this work as:
   * C. Bannwarth, E. Caldeweyher, S. Ehlert, A. Hansen, P. Pracht,
     J. Seibert, S. Spicher, S. Grimme, WIREs Comput. Mol. Sci., 2020, 11,
     e01493. DOI: 10.1002/wcms.1493
   
   for GFN2-xTB:
   * C. Bannwarth, S. Ehlert and S. Grimme., J. Chem. Theory Comput., 2019,
     15, 1652-1671. DOI: 10.1021/acs.jctc.8b01176
   for GFN1-xTB:
   * S. Grimme, C. Bannwarth, P. Shushkov, J. Chem. Theory Comput., 2017,
     13, 1989-2009. DOI: 10.1021/acs.jctc.7b00118
   for GFN0-xTB:
   * P. Pracht, E. Caldeweyher, S. Ehlert, S. Grimme, ChemRxiv, 2019, preprint.
     DOI: 10.26434/chemrxiv.8326202.v1
   for GFN-FF:
   * S. Spicher and S. Grimme, Angew. Chem. Int. Ed., 2020, 59, 15665-15673.
     DOI: 10.1002/anie.202004239
   
   for DFT-D4:
   * E. Caldeweyher, C. Bannwarth and S. Grimme, J. Chem. Phys., 2017,
     147, 034112. DOI: 10.1063/1.4993215
   * E. Caldeweyher, S. Ehlert, A. Hansen, H. Neugebauer, S. Spicher,
     C. Bannwarth and S. Grimme, J. Chem. Phys., 2019, 150, 154122.
     DOI: 10.1063/1.5090222
   * E. Caldeweyher, J.-M. Mewes, S. Ehlert and S. Grimme, Phys. Chem. Chem. Phys.
     2020, 22, 8499-8512. DOI: 10.1039/D0CP00502A
   
   for sTDA-xTB:
   * S. Grimme and C. Bannwarth, J. Chem. Phys., 2016, 145, 054103.
     DOI: 10.1063/1.4959605
   
   in the mass-spec context:
   * V. Asgeirsson, C. Bauer and S. Grimme, Chem. Sci., 2017, 8, 4879.
     DOI: 10.1039/c7sc00601b
   * J. Koopman and S. Grimme, ACS Omega 2019, 4, 12, 15120-15133.
     DOI: 10.1021/acsomega.9b02011
   
   for metadynamics refer to:
   * S. Grimme, J. Chem. Theory Comput., 2019, 155, 2847-2862
     DOI: 10.1021/acs.jctc.9b00143
   
   for SPH calculations refer to:
   * S. Spicher and S. Grimme, J. Chem. Theory Comput., 2021, 17, 1701-1714
     DOI: 10.1021/acs.jctc.0c01306
   
   with help from (in alphabetical order)
   P. Atkinson, C. Bannwarth, F. Bohle, G. Brandenburg, E. Caldeweyher
   M. Checinski, S. Dohm, S. Ehlert, S. Ehrlich, I. Gerasimov, J. Koopman
   C. Lavigne, S. Lehtola, F. März, M. Müller, F. Musil, H. Neugebauer
   J. Pisarek, C. Plett, P. Pracht, J. Seibert, P. Shushkov, S. Spicher
   M. Stahn, M. Steiner, T. Strunk, J. Stückrath, T. Rose, and J. Unsleber
   
 * started run on 2022/02/05 at 09:17:49.697     

           -------------------------------------------------
          |                Calculation Setup                |
           -------------------------------------------------

          program call               : /ihome/ghutchison/oda6/xtb/xtb-641/bin/xtb ../../GFN2_output/39_44_130_133_39.mol --sp --alpb hexane
          hostname                   : smp-n57
          coordinate file            : ../../GFN2_output/39_44_130_133_39.mol
          omp threads                :                     8
          number of atoms            :                   176
          number of electrons        :                   550
          charge                     :                     0
          spin                       :                   0.0
          first test random number   :      0.90426984795506

   ID    Z sym.   atoms
    1    6 C      1-3, 5-13, 15, 17-36, 38, 39, 41-44, 46-52, 54-57, 59, 60,
                  62-65, 67-73, 75-78, 80-82, 86, 87, 91-94, 96-104, 106,
                  108-114
    2    8 O      4, 95
    3    7 N      14, 16, 40, 61, 83, 85, 88, 90, 105, 107
    4   16 S      37, 45, 53, 58, 66, 74, 79, 84, 89
    5    1 H      115-176

           -------------------------------------------------
          |                 G F N 2 - x T B                 |
           -------------------------------------------------

        Reference                      10.1021/acs.jctc.8b01176
      * Hamiltonian:
        H0-scaling (s, p, d)           1.850000    2.230000    2.230000
        zeta-weighting                 0.500000
      * Dispersion:
        s8                             2.700000
        a1                             0.520000
        a2                             5.000000
        s9                             5.000000
      * Repulsion:
        kExp                           1.500000    1.000000
        rExp                           1.000000
      * Coulomb:
        alpha                          2.000000
        third order                    shell-resolved
        anisotropic                    true
        a3                             3.000000
        a5                             4.000000
        cn-shift                       1.200000
        cn-exp                         4.000000
        max-rad                        5.000000

      * Solvation model:               ALPB
        Solvent                        hexane
        Parameter file                 internal GFN2-xTB/ALPB
        Dielectric constant                1.8800E+00
        Reference state                gsolv [1 M gas/solution]
        Free energy shift                  4.8134E-03 Eh       3.0204E+00 kcal/mol
        Temperature                        2.9815E+02 K
        Density                            6.6000E-01 kg/L
        Solvent mass                       8.6180E+01 g/mol
        Interaction kernel             P16
        Born radius scaling (c1)           1.1040E+00
        Born radii integrator          GBOBC
        Born offset                        0.0000E+00 a0       0.0000E+00 AA
        H-bond correction              false
        Ion screening                  false
        Surface tension                    1.0000E-05 Eh       1.5569E+01 dyn/cm
        Grid points                               230 per atom

          ...................................................
          :                      SETUP                      :
          :.................................................:
          :  # basis functions                 572          :
          :  # atomic orbitals                 563          :
          :  # shells                          299          :
          :  # electrons                       550          :
          :  max. iterations                   250          :
          :  Hamiltonian                  GFN2-xTB          :
          :  restarted?                      false          :
          :  GBSA solvation                   true          :
          :  PC potential                    false          :
          :  electronic temp.          300.0000000     K    :
          :  accuracy                    1.0000000          :
          :  -> integral cutoff          0.2500000E+02      :
          :  -> integral neglect         0.1000000E-07      :
          :  -> SCF convergence          0.1000000E-05 Eh   :
          :  -> wf. convergence          0.1000000E-03 e    :
          :  Broyden damping             0.4000000          :
          ...................................................

 iter      E             dE          RMSdq      gap      omega  full diag
   1   -301.8148030 -0.301815E+03  0.453E+00    0.60       0.0  T
   2   -301.9929549 -0.178152E+00  0.269E+00    0.68       1.0  T
   3   -301.6976151  0.295340E+00  0.153E+00    0.33       1.0  T
   4   -302.0392677 -0.341653E+00  0.644E-01    0.50       1.0  T
   5   -302.1054966 -0.662289E-01  0.246E-01    0.49       1.0  T
   6   -302.1071610 -0.166440E-02  0.141E-01    0.48       1.0  T
   7   -302.1098779 -0.271692E-02  0.656E-02    0.48       1.0  T
   8   -302.1102213 -0.343461E-03  0.269E-02    0.49       1.0  T
   9   -302.1102793 -0.579884E-04  0.130E-02    0.49       1.0  T
  10   -302.1102866 -0.726025E-05  0.635E-03    0.49       1.2  T
  11   -302.1102897 -0.310678E-05  0.291E-03    0.49       2.6  T
  12   -302.1102902 -0.480381E-06  0.163E-03    0.49       4.6  T
  13   -302.1102903 -0.941768E-07  0.790E-04    0.49       9.5  T
  14   -302.1102903 -0.458057E-07  0.349E-04    0.49      21.6  T

   *** convergence criteria satisfied after 14 iterations ***

         #    Occupation            Energy/Eh            Energy/eV
      -------------------------------------------------------------
         1        2.0000           -0.7696294             -20.9427
       ...           ...                  ...                  ...
       269        2.0000           -0.3849893             -10.4761
       270        2.0000           -0.3828808             -10.4187
       271        2.0000           -0.3749264             -10.2023
       272        2.0000           -0.3739308             -10.1752
       273        2.0000           -0.3705469             -10.0831
       274        2.0000           -0.3592999              -9.7770
       275        1.9998           -0.3550997              -9.6628 (HOMO)
       276        0.0002           -0.3372352              -9.1766 (LUMO)
       277                         -0.3219239              -8.7600
       278                         -0.3143786              -8.5547
       279                         -0.3126814              -8.5085
       280                         -0.2968711              -8.0783
       ...                                ...                  ...
       563                          1.1615560              31.6075
      -------------------------------------------------------------
                  HL-Gap            0.0178645 Eh            0.4861 eV
             Fermi-level           -0.3461618 Eh           -9.4195 eV

 SCC (total)                   0 d,  0 h,  0 min,  0.627 sec
 SCC setup                      ...        0 min,  0.007 sec (  1.125%)
 Dispersion                     ...        0 min,  0.007 sec (  1.092%)
 classical contributions        ...        0 min,  0.000 sec (  0.045%)
 integral evaluation            ...        0 min,  0.030 sec (  4.830%)
 iterations                     ...        0 min,  0.480 sec ( 76.447%)
 molecular gradient             ...        0 min,  0.101 sec ( 16.026%)
 printout                       ...        0 min,  0.003 sec (  0.422%)

         :::::::::::::::::::::::::::::::::::::::::::::::::::::
         ::                     SUMMARY                     ::
         :::::::::::::::::::::::::::::::::::::::::::::::::::::
         :: total energy            -297.317165753425 Eh    ::
         :: total w/o Gsasa/hb      -297.224521597904 Eh    ::
         :: gradient norm              0.021478189563 Eh/a0 ::
         :: HOMO-LUMO gap              0.486117992445 eV    ::
         ::.................................................::
         :: SCC energy              -302.110290317180 Eh    ::
         :: -> isotropic ES            0.175818416444 Eh    ::
         :: -> anisotropic ES          0.011683042289 Eh    ::
         :: -> anisotropic XC          0.198687042798 Eh    ::
         :: -> dispersion             -0.333909743446 Eh    ::
         :: -> Gsolv                  -0.121196451359 Eh    ::
         ::    -> Gelec               -0.028552295838 Eh    ::
         ::    -> Gsasa               -0.097457511341 Eh    ::
         ::    -> Ghb                  0.000000000000 Eh    ::
         ::    -> Gshift               0.004813355820 Eh    ::
         :: repulsion energy           4.781325363812 Eh    ::
         :: add. restraining           0.000000000000 Eh    ::
         :: total charge               0.000000000024 e     ::
         :::::::::::::::::::::::::::::::::::::::::::::::::::::

           -------------------------------------------------
          |                Property Printout                |
           -------------------------------------------------

    * Orbital Energies and Occupations

         #    Occupation            Energy/Eh            Energy/eV
      -------------------------------------------------------------
         1        2.0000           -0.7696294             -20.9427
       ...           ...                  ...                  ...
       263        2.0000           -0.3968692             -10.7994
       264        2.0000           -0.3939298             -10.7194
       265        2.0000           -0.3936979             -10.7131
       266        2.0000           -0.3931215             -10.6974
       267        2.0000           -0.3901364             -10.6162
       268        2.0000           -0.3898779             -10.6091
       269        2.0000           -0.3849893             -10.4761
       270        2.0000           -0.3828808             -10.4187
       271        2.0000           -0.3749264             -10.2023
       272        2.0000           -0.3739308             -10.1752
       273        2.0000           -0.3705469             -10.0831
       274        2.0000           -0.3592999              -9.7770
       275        1.9998           -0.3550997              -9.6628 (HOMO)
       276        0.0002           -0.3372352              -9.1766 (LUMO)
       277                         -0.3219239              -8.7600
       278                         -0.3143786              -8.5547
       279                         -0.3126814              -8.5085
       280                         -0.2968711              -8.0783
       281                         -0.2899878              -7.8910
       282                         -0.2819292              -7.6717
       283                         -0.2587893              -7.0420
       284                         -0.2512671              -6.8373
       285                         -0.2480570              -6.7500
       286                         -0.2460292              -6.6948
       ...                                ...                  ...
       563                          1.1615560              31.6075
      -------------------------------------------------------------
                  HL-Gap            0.0178645 Eh            0.4861 eV
             Fermi-level           -0.3461618 Eh           -9.4195 eV

     #   Z          covCN         q      C6AA      α(0)
     1   6 C        2.921    -0.016    28.410     8.741
     2   6 C        3.007    -0.039    28.946     8.826
     3   6 C        2.879     0.232    23.142     7.886
     4   8 O        0.990    -0.405    21.722     6.252
     5   6 C        3.062    -0.019    28.417     8.742
     6   6 C        2.904    -0.021    28.540     8.760
     7   6 C        3.262     0.009    26.627     8.335
     8   6 C        3.257     0.012    26.635     8.344
     9   6 C        2.905    -0.032    28.796     8.799
    10   6 C        3.051     0.008    27.790     8.646
    11   6 C        3.023     0.040    27.085     8.537
    12   6 C        2.947     0.003    27.954     8.672
    13   6 C        1.947     0.131    27.886     8.528
    14   7 N        0.911    -0.285    27.349     7.564
    15   6 C        1.948     0.133    27.832     8.520
    16   7 N        0.911    -0.276    27.136     7.534
    17   6 C        4.164    -0.024    20.923     6.496
    18   6 C        4.012    -0.015    20.766     6.474
    19   6 C        2.988    -0.041    29.015     8.836
    20   6 C        2.988    -0.042    29.031     8.838
    21   6 C        4.012    -0.015    20.767     6.474
    22   6 C        3.927    -0.060    21.591     6.604
    23   6 C        4.161    -0.024    20.920     6.496
    24   6 C        2.978     0.026    27.410     8.588
    25   6 C        3.103    -0.045    28.988     8.822
    26   6 C        3.120     0.006    27.707     8.621
    27   6 C        2.989    -0.014    28.346     8.733
    28   6 C        2.968     0.013    27.717     8.636
    29   6 C        2.930    -0.057    29.411     8.894
    30   6 C        2.964     0.012    27.742     8.639
    31   6 C        3.758    -0.108    22.610     6.779
    32   6 C        2.931    -0.058    29.429     8.897
    33   6 C        2.967     0.010    27.793     8.647
    34   6 C        3.758    -0.104    22.540     6.769
    35   6 C        3.758    -0.109    22.642     6.784
    36   6 C        3.036     0.014    27.667     8.627
    37  16 S        2.446     0.013   140.520    19.951
    38   6 C        3.027     0.003    27.922     8.668
    39   6 C        3.047     0.049    26.851     8.499
    40   7 N        2.749    -0.046    22.133     6.987
    41   6 C        2.946     0.062    26.612     8.461
    42   6 C        2.926    -0.038    28.937     8.822
    43   6 C        2.943    -0.038    28.944     8.824
    44   6 C        2.967     0.048    26.913     8.509
    45  16 S        2.096    -0.135   146.726    20.387
    46   6 C        3.745    -0.057    21.670     6.641
    47   6 C        2.984    -0.036    28.898     8.818
    48   6 C        2.921    -0.037    28.922     8.819
    49   6 C        2.932     0.064    26.577     8.455
    50   6 C        2.923    -0.037    28.928     8.820
    51   6 C        2.982    -0.033    28.807     8.804
    52   6 C        2.966     0.045    26.995     8.522
    53  16 S        2.032    -0.189   149.084    20.550
    54   6 C        3.744    -0.045    21.451     6.607
    55   6 C        2.942    -0.043    29.070     8.843
    56   6 C        2.925    -0.048    29.197     8.861
    57   6 C        3.181     0.003    27.522     8.564
    58  16 S        2.434    -0.052   143.198    20.141
    59   6 C        2.999     0.015    27.661     8.627
    60   6 C        3.052     0.058    26.658     8.468
    61   7 N        2.749    -0.018    21.590     6.901
    62   6 C        2.923     0.065    26.539     8.448
    63   6 C        2.922    -0.040    28.991     8.830
    64   6 C        2.985    -0.041    29.015     8.836
    65   6 C        2.965     0.046    26.956     8.516
    66  16 S        2.035    -0.162   147.895    20.468
    67   6 C        3.744    -0.054    21.616     6.632
    68   6 C        2.942    -0.045    29.110     8.849
    69   6 C        2.923    -0.047    29.170     8.857
    70   6 C        2.934     0.059    26.675     8.470
    71   6 C        2.923    -0.035    28.878     8.813
    72   6 C        2.985    -0.035    28.866     8.813
    73   6 C        2.966     0.052    26.825     8.495
    74  16 S        2.037    -0.162   147.892    20.468
    75   6 C        3.744    -0.055    21.639     6.636
    76   6 C        2.944    -0.042    29.045     8.839
    77   6 C        2.923    -0.041    29.014     8.833
    78   6 C        3.161     0.001    27.672     8.599
    79  16 S        2.266    -0.058   143.463    20.159
    80   6 C        3.022    -0.013    28.311     8.728
    81   6 C        3.334     0.069    24.170     7.792
    82   6 C        3.329     0.077    24.093     7.791
    83   7 N        1.853    -0.317    29.071     7.991
    84  16 S        2.645     0.370   126.864    18.957
    85   7 N        1.853    -0.304    28.741     7.946
    86   6 C        2.957    -0.027    28.675     8.783
    87   6 C        3.340     0.072    23.981     7.745
    88   7 N        1.854    -0.307    28.807     7.955
    89  16 S        2.714     0.436   124.550    18.783
    90   7 N        1.993    -0.298    28.511     7.919
    91   6 C        3.353     0.070    23.767     7.675
    92   6 C        2.904    -0.003    28.100     8.692
    93   6 C        3.009    -0.034    28.827     8.807
    94   6 C        2.874     0.234    23.108     7.880
    95   8 O        0.856    -0.412    21.915     6.276
    96   6 C        3.059    -0.020    28.451     8.747
    97   6 C        2.904    -0.022    28.562     8.763
    98   6 C        3.259     0.009    26.674     8.347
    99   6 C        3.256     0.011    26.653     8.347
   100   6 C        2.904    -0.033    28.832     8.804
   101   6 C        3.052     0.008    27.780     8.644
   102   6 C        3.023     0.049    26.882     8.505
   103   6 C        2.948     0.002    27.974     8.675
   104   6 C        1.941     0.138    27.731     8.504
   105   7 N        0.911    -0.314    28.074     7.663
   106   6 C        1.940     0.132    27.868     8.525
   107   7 N        0.911    -0.280    27.217     7.545
   108   6 C        4.162    -0.022    20.883     6.490
   109   6 C        4.013    -0.015    20.772     6.475
   110   6 C        2.995    -0.042    29.027     8.838
   111   6 C        2.995    -0.042    29.039     8.840
   112   6 C        4.013    -0.015    20.769     6.474
   113   6 C        3.915    -0.060    21.585     6.603
   114   6 C        4.160    -0.022    20.885     6.491
   115   1 H        0.925     0.067     2.118     2.276
   116   1 H        0.926     0.059     2.216     2.328
   117   1 H        0.926     0.058     2.223     2.332
   118   1 H        0.925     0.049     2.328     2.386
   119   1 H        0.925     0.039     2.464     2.455
   120   1 H        0.926     0.032     2.560     2.502
   121   1 H        0.926     0.032     2.560     2.502
   122   1 H        0.925     0.037     2.483     2.464
   123   1 H        0.925     0.042     2.424     2.435
   124   1 H        0.925     0.041     2.433     2.439
   125   1 H        0.925     0.048     2.346     2.395
   126   1 H        0.926     0.055     2.261     2.351
   127   1 H        0.926     0.040     2.446     2.445
   128   1 H        0.925     0.046     2.375     2.410
   129   1 H        0.924     0.047     2.363     2.404
   130   1 H        0.925     0.041     2.438     2.442
   131   1 H        0.926     0.034     2.534     2.489
   132   1 H        0.925     0.046     2.368     2.407
   133   1 H        0.925     0.041     2.435     2.440
   134   1 H        0.924     0.041     2.434     2.440
   135   1 H        0.925     0.051     2.306     2.375
   136   1 H        0.925     0.044     2.392     2.419
   137   1 H        0.925     0.049     2.328     2.386
   138   1 H        0.926     0.049     2.332     2.388
   139   1 H        0.926     0.060     2.204     2.321
   140   1 H        0.925     0.070     2.083     2.257
   141   1 H        0.925     0.068     2.112     2.273
   142   1 H        0.925     0.076     2.020     2.222
   143   1 H        0.926     0.058     2.219     2.330
   144   1 H        0.926     0.052     2.289     2.366
   145   1 H        0.926     0.053     2.287     2.365
   146   1 H        0.926     0.046     2.368     2.407
   147   1 H        0.925     0.058     2.219     2.330
   148   1 H        0.925     0.067     2.120     2.277
   149   1 H        0.925     0.066     2.126     2.280
   150   1 H        0.926     0.045     2.380     2.413
   151   1 H        0.926     0.041     2.430     2.437
   152   1 H        0.926     0.055     2.262     2.352
   153   1 H        0.926     0.054     2.275     2.359
   154   1 H        0.925     0.063     2.159     2.298
   155   1 H        0.925     0.065     2.139     2.287
   156   1 H        0.925     0.073     2.050     2.239
   157   1 H        0.926     0.049     2.329     2.386
   158   1 H        0.926     0.043     2.408     2.427
   159   1 H        0.926     0.048     2.350     2.397
   160   1 H        0.926     0.057     2.235     2.338
   161   1 H        0.925     0.065     2.139     2.287
   162   1 H        0.925     0.063     2.161     2.299
   163   1 H        0.925     0.071     2.079     2.255
   164   1 H        0.926     0.054     2.275     2.359
   165   1 H        0.926     0.047     2.356     2.400
   166   1 H        0.925     0.084     1.942     2.180
   167   1 H        0.926     0.061     2.189     2.314
   168   1 H        0.926     0.056     2.252     2.347
   169   1 H        0.925     0.044     2.392     2.419
   170   1 H        0.925     0.040     2.454     2.450
   171   1 H        0.926     0.038     2.480     2.463
   172   1 H        0.926     0.037     2.486     2.465
   173   1 H        0.925     0.038     2.470     2.458
   174   1 H        0.925     0.040     2.450     2.448
   175   1 H        0.925     0.036     2.509     2.477
   176   1 H        0.925     0.044     2.396     2.421

 Mol. C6AA /au·bohr⁶  :     547560.028780
 Mol. C8AA /au·bohr⁸  :   15446022.624703
 Mol. α(0) /au        :       1181.758486


Wiberg/Mayer (AO) data.
largest (>0.10) Wiberg bond orders for each atom

 ---------------------------------------------------------------------------
     #   Z sym  total        # sym  WBO       # sym  WBO       # sym  WBO
 ---------------------------------------------------------------------------
     1   6 C    3.947 --     2 C    1.471    24 C    1.316   115 H    0.942
     2   6 C    3.953 --     1 C    1.471    11 C    1.153     3 C    1.069
     3   6 C    3.912 --     4 O    1.670     2 C    1.069     5 C    1.035
     4   8 O    2.087 --     3 C    1.670    37 S    0.139
     5   6 C    3.971 --     6 C    1.381    10 C    1.306     3 C    1.035
     6   6 C    3.980 --     7 C    1.441     5 C    1.381   116 H    0.964
     7   6 C    3.955 --     6 C    1.441     8 C    1.329    23 C    0.996
     8   6 C    3.965 --     9 C    1.444     7 C    1.329    17 C    0.997
     9   6 C    3.976 --     8 C    1.444    10 C    1.372   117 H    0.958
    10   6 C    3.976 --     9 C    1.372     5 C    1.306    11 C    1.084
    11   6 C    3.963 --    12 C    1.458     2 C    1.153    10 C    1.084
    12   6 C    3.941 --    11 C    1.458    13 C    1.107    15 C    1.103
    13   6 C    3.941 --    14 N    2.735    12 C    1.107
    14   7 N    2.948 --    13 C    2.735
    15   6 C    3.941 --    16 N    2.747    12 C    1.103
    16   7 N    2.954 --    15 C    2.747
    17   6 C    3.985 --     8 C    0.997    23 C    0.978   118 H    0.959
                            18 C    0.947
    18   6 C    3.989 --    19 C    1.010    22 C    0.985   119 H    0.972
                            17 C    0.947
    19   6 C    3.987 --    20 C    1.924    18 C    1.010   120 H    0.971
    20   6 C    3.987 --    19 C    1.924    21 C    1.010   121 H    0.971
    21   6 C    3.989 --    20 C    1.010    22 C    0.985   122 H    0.972
                            23 C    0.947
    22   6 C    3.993 --    21 C    0.985    18 C    0.985   124 H    0.978
                           123 H    0.976
    23   6 C    3.984 --     7 C    0.996    17 C    0.978   125 H    0.959
                            21 C    0.947
    24   6 C    3.932 --    25 C    1.334     1 C    1.316    37 S    1.110
    25   6 C    3.959 --    26 C    1.423    24 C    1.334   126 H    0.963
    26   6 C    3.956 --    25 C    1.423    36 C    1.323    27 C    1.007
    27   6 C    3.984 --    33 C    1.372    28 C    1.363    26 C    1.007
                            30 C    0.101
    28   6 C    3.985 --    29 C    1.419    27 C    1.363    35 C    1.027
                            32 C    0.102
    29   6 C    3.988 --    28 C    1.419    30 C    1.410   127 H    0.963
                            33 C    0.101
    30   6 C    3.987 --    32 C    1.411    29 C    1.410    31 C    1.024
                            27 C    0.101
    31   6 C    3.996 --    30 C    1.024   130 H    0.981   128 H    0.981
                           129 H    0.967
    32   6 C    3.988 --    33 C    1.419    30 C    1.411   131 H    0.966
                            28 C    0.102
    33   6 C    3.985 --    32 C    1.419    27 C    1.372    34 C    1.025
                            29 C    0.101
    34   6 C    3.996 --    33 C    1.025   132 H    0.983   133 H    0.978
                           134 H    0.966
    35   6 C    3.994 --    28 C    1.027   135 H    0.984   136 H    0.971
                           137 H    0.970
    36   6 C    3.932 --    26 C    1.323    38 C    1.222    37 S    1.164
    37  16 S    2.781 --    36 C    1.164    24 C    1.110     4 O    0.139
    38   6 C    3.901 --    39 C    1.357    36 C    1.222    79 S    1.076
    39   6 C    3.938 --    38 C    1.357    57 C    1.237    40 N    1.107
    40   7 N    3.504 --    39 C    1.107    49 C    1.079    41 C    1.023
    41   6 C    3.953 --    42 C    1.371    48 C    1.359    40 N    1.023
    42   6 C    3.983 --    43 C    1.452    41 C    1.371   138 H    0.966
                            47 C    0.100
    43   6 C    3.984 --    42 C    1.452    44 C    1.386   139 H    0.963
    44   6 C    3.951 --    43 C    1.386    47 C    1.366    45 S    1.049
    45  16 S    2.323 --    44 C    1.049    46 C    1.009
    46   6 C    3.966 --    45 S    1.009   141 H    0.979   140 H    0.976
                           142 H    0.969
    47   6 C    3.984 --    48 C    1.475    44 C    1.366   143 H    0.966
                            42 C    0.100
    48   6 C    3.979 --    47 C    1.475    41 C    1.359   144 H    0.966
    49   6 C    3.962 --    56 C    1.351    50 C    1.334    40 N    1.079
    50   6 C    3.979 --    51 C    1.486    49 C    1.334   145 H    0.964
    51   6 C    3.989 --    50 C    1.486    52 C    1.362   146 H    0.966
    52   6 C    3.952 --    55 C    1.385    51 C    1.362    53 S    1.044
    53  16 S    2.260 --    52 C    1.044    54 C    1.009
    54   6 C    3.972 --    53 S    1.009   149 H    0.980   147 H    0.979
                           148 H    0.977
    55   6 C    3.987 --    56 C    1.456    52 C    1.385   150 H    0.964
    56   6 C    3.983 --    55 C    1.456    49 C    1.351   151 H    0.963
    57   6 C    3.912 --    78 C    1.358    39 C    1.237    58 S    1.100
    58  16 S    2.633 --    57 C    1.100    59 C    1.086
    59   6 C    3.916 --    60 C    1.297    80 C    1.262    58 S    1.086
    60   6 C    3.909 --    59 C    1.297    78 C    1.238    61 N    1.152
    61   7 N    3.530 --    60 C    1.152    62 C    1.068    70 C    1.034
    62   6 C    3.959 --    69 C    1.360    63 C    1.331    61 N    1.068
    63   6 C    3.973 --    64 C    1.490    62 C    1.331   152 H    0.963
    64   6 C    3.988 --    63 C    1.490    65 C    1.356   153 H    0.966
    65   6 C    3.947 --    68 C    1.379    64 C    1.356    66 S    1.061
    66  16 S    2.259 --    65 C    1.061    67 C    1.009
    67   6 C    3.972 --    66 S    1.009   154 H    0.981   155 H    0.980
                           156 H    0.977
    68   6 C    3.985 --    69 C    1.459    65 C    1.379   157 H    0.964
    69   6 C    3.975 --    68 C    1.459    62 C    1.360   158 H    0.964
    70   6 C    3.956 --    77 C    1.371    71 C    1.350    61 N    1.034
    71   6 C    3.979 --    72 C    1.477    70 C    1.350   159 H    0.966
    72   6 C    3.987 --    71 C    1.477    73 C    1.365   160 H    0.966
    73   6 C    3.949 --    76 C    1.382    72 C    1.365    74 S    1.058
    74  16 S    2.263 --    73 C    1.058    75 C    1.008
    75   6 C    3.972 --    74 S    1.008   162 H    0.981   161 H    0.978
                           163 H    0.977
    76   6 C    3.986 --    77 C    1.455    73 C    1.382   164 H    0.962
    77   6 C    3.973 --    76 C    1.455    70 C    1.371   165 H    0.966
    78   6 C    3.927 --    57 C    1.358    60 C    1.238    79 S    1.106
    79  16 S    2.552 --    78 C    1.106    38 C    1.076
    80   6 C    3.928 --    59 C    1.262    91 C    1.217    81 C    1.202
    81   6 C    3.967 --    85 N    1.391    80 C    1.202    82 C    1.142
    82   6 C    3.970 --    83 N    1.384    86 C    1.212    81 C    1.142
    83   7 N    3.051 --    84 S    1.390    82 C    1.384    85 N    0.144
    84  16 S    3.135 --    85 N    1.409    83 N    1.390
    85   7 N    3.060 --    84 S    1.409    81 C    1.391    83 N    0.144
    86   6 C    3.910 --    92 C    1.241    87 C    1.221    82 C    1.212
    87   6 C    3.964 --    88 N    1.361    86 C    1.221    91 C    1.163
    88   7 N    3.049 --    89 S    1.428    87 C    1.361    90 N    0.138
    89  16 S    3.175 --    88 N    1.428    90 N    1.411
    90   7 N    3.115 --    89 S    1.411    91 C    1.358    88 N    0.138
    91   6 C    3.962 --    90 N    1.358    80 C    1.217    87 C    1.163
    92   6 C    3.939 --    93 C    1.521    86 C    1.241   166 H    0.949
    93   6 C    3.920 --    92 C    1.521   102 C    1.160    94 C    1.022
    94   6 C    3.915 --    95 O    1.745    93 C    1.022    96 C    1.020
    95   8 O    2.017 --    94 C    1.745
    96   6 C    3.968 --    97 C    1.383   101 C    1.309    94 C    1.020
    97   6 C    3.980 --    98 C    1.440    96 C    1.383   167 H    0.963
    98   6 C    3.955 --    97 C    1.440    99 C    1.328   114 C    0.992
    99   6 C    3.966 --   100 C    1.447    98 C    1.328   108 C    0.993
   100   6 C    3.976 --    99 C    1.447   101 C    1.368   168 H    0.960
   101   6 C    3.978 --   100 C    1.368    96 C    1.309   102 C    1.083
   102   6 C    3.966 --   103 C    1.440    93 C    1.160   101 C    1.083
   103   6 C    3.962 --   102 C    1.440   104 C    1.115   106 C    1.107
   104   6 C    3.938 --   105 N    2.725   103 C    1.115
   105   7 N    2.958 --   104 C    2.725
   106   6 C    3.943 --   107 N    2.745   103 C    1.107
   107   7 N    2.957 --   106 C    2.745
   108   6 C    3.984 --    99 C    0.993   114 C    0.975   169 H    0.962
                           109 C    0.951
   109   6 C    3.989 --   110 C    1.004   113 C    0.989   170 H    0.971
                           108 C    0.951
   110   6 C    3.982 --   111 C    1.923   109 C    1.004   171 H    0.971
   111   6 C    3.982 --   110 C    1.923   112 C    1.004   172 H    0.971
   112   6 C    3.989 --   111 C    1.004   113 C    0.989   173 H    0.971
                           114 C    0.951
   113   6 C    3.994 --   112 C    0.989   109 C    0.989   174 H    0.978
                           175 H    0.974
   114   6 C    3.984 --    98 C    0.992   108 C    0.975   176 H    0.962
                           112 C    0.951
   115   1 H    0.994 --     1 C    0.942
   116   1 H    0.996 --     6 C    0.964
   117   1 H    0.996 --     9 C    0.958
   118   1 H    0.996 --    17 C    0.959
   119   1 H    0.998 --    18 C    0.972
   120   1 H    0.999 --    19 C    0.971
   121   1 H    0.999 --    20 C    0.971
   122   1 H    0.998 --    21 C    0.972
   123   1 H    0.996 --    22 C    0.976
   124   1 H    0.998 --    22 C    0.978
   125   1 H    0.996 --    23 C    0.959
   126   1 H    0.996 --    25 C    0.963
   127   1 H    0.997 --    29 C    0.963
   128   1 H    0.997 --    31 C    0.981
   129   1 H    0.997 --    31 C    0.967
   130   1 H    0.998 --    31 C    0.981
   131   1 H    0.997 --    32 C    0.966
   132   1 H    0.997 --    34 C    0.983
   133   1 H    0.998 --    34 C    0.978
   134   1 H    0.998 --    34 C    0.966
   135   1 H    0.997 --    35 C    0.984
   136   1 H    0.998 --    35 C    0.971
   137   1 H    0.997 --    35 C    0.970
   138   1 H    0.997 --    42 C    0.966
   139   1 H    0.996 --    43 C    0.963
   140   1 H    0.995 --    46 C    0.976
   141   1 H    0.994 --    46 C    0.979
   142   1 H    0.994 --    46 C    0.969
   143   1 H    0.996 --    47 C    0.966
   144   1 H    0.997 --    48 C    0.966
   145   1 H    0.997 --    50 C    0.964
   146   1 H    0.997 --    51 C    0.966
   147   1 H    0.996 --    54 C    0.979
   148   1 H    0.995 --    54 C    0.977
   149   1 H    0.995 --    54 C    0.980
   150   1 H    0.997 --    55 C    0.964
   151   1 H    0.998 --    56 C    0.963
   152   1 H    0.997 --    63 C    0.963
   153   1 H    0.997 --    64 C    0.966
   154   1 H    0.995 --    67 C    0.981
   155   1 H    0.995 --    67 C    0.980
   156   1 H    0.994 --    67 C    0.977
   157   1 H    0.997 --    68 C    0.964
   158   1 H    0.998 --    69 C    0.964
   159   1 H    0.997 --    71 C    0.966
   160   1 H    0.996 --    72 C    0.966
   161   1 H    0.995 --    75 C    0.978
   162   1 H    0.996 --    75 C    0.981
   163   1 H    0.995 --    75 C    0.977
   164   1 H    0.996 --    76 C    0.962
   165   1 H    0.998 --    77 C    0.966
   166   1 H    0.988 --    92 C    0.949
   167   1 H    0.996 --    97 C    0.963
   168   1 H    0.996 --   100 C    0.960
   169   1 H    0.997 --   108 C    0.962
   170   1 H    0.998 --   109 C    0.971
   171   1 H    0.998 --   110 C    0.971
   172   1 H    0.998 --   111 C    0.971
   173   1 H    0.998 --   112 C    0.971
   174   1 H    0.998 --   113 C    0.978
   175   1 H    0.999 --   113 C    0.974
   176   1 H    0.996 --   114 C    0.962
 ---------------------------------------------------------------------------

Topologies differ in bond orders
Writing corrected topology to xtbtopo.mol

molecular dipole:
                 x           y           z       tot (Debye)
 q only:       -0.249      -0.708       2.109
   full:        0.288      -0.789       2.709       7.208
molecular quadrupole (traceless):
                xx          xy          yy          xz          yz          zz
 q only:     -102.550      -3.478      62.767     -70.289     -42.830      39.783
  q+dip:      -97.236      -4.120      49.926     -72.014     -35.300      47.310
   full:     -101.862      -3.540      46.728     -74.722     -33.167      55.134


           -------------------------------------------------
          | TOTAL ENERGY             -297.317165753425 Eh   |
          | GRADIENT NORM               0.021478189563 Eh/α |
          | HOMO-LUMO GAP               0.486117992445 eV   |
           -------------------------------------------------

------------------------------------------------------------------------
 * finished run on 2022/02/05 at 09:17:50.416     
------------------------------------------------------------------------
 total:
 * wall-time:     0 d,  0 h,  0 min,  0.718 sec
 *  cpu-time:     0 d,  0 h,  0 min,  5.643 sec
 * ratio c/w:     7.857 speedup
 SCF:
 * wall-time:     0 d,  0 h,  0 min,  0.630 sec
 *  cpu-time:     0 d,  0 h,  0 min,  5.029 sec
 * ratio c/w:     7.978 speedup

