      -----------------------------------------------------------      
     |                   =====================                   |     
     |                           x T B                           |     
     |                   =====================                   |     
     |                         S. Grimme                         |     
     |          Mulliken Center for Theoretical Chemistry        |     
     |                    University of Bonn                     |     
      -----------------------------------------------------------      

   * xtb version 6.4.1 (unknown) compiled by 'oda6@login1.crc.pitt.edu' on 2021-06-25

   xtb is free software: you can redistribute it and/or modify it under
   the terms of the GNU Lesser General Public License as published by
   the Free Software Foundation, either version 3 of the License, or
   (at your option) any later version.
   
   xtb is distributed in the hope that it will be useful,
   but WITHOUT ANY WARRANTY; without even the implied warranty of
   MERCHANTABILITY or FITNESS FOR A PARTICULAR PURPOSE.  See the
   GNU Lesser General Public License for more details.
   
   Cite this work as:
   * C. Bannwarth, E. Caldeweyher, S. Ehlert, A. Hansen, P. Pracht,
     J. Seibert, S. Spicher, S. Grimme, WIREs Comput. Mol. Sci., 2020, 11,
     e01493. DOI: 10.1002/wcms.1493
   
   for GFN2-xTB:
   * C. Bannwarth, S. Ehlert and S. Grimme., J. Chem. Theory Comput., 2019,
     15, 1652-1671. DOI: 10.1021/acs.jctc.8b01176
   for GFN1-xTB:
   * S. Grimme, C. Bannwarth, P. Shushkov, J. Chem. Theory Comput., 2017,
     13, 1989-2009. DOI: 10.1021/acs.jctc.7b00118
   for GFN0-xTB:
   * P. Pracht, E. Caldeweyher, S. Ehlert, S. Grimme, ChemRxiv, 2019, preprint.
     DOI: 10.26434/chemrxiv.8326202.v1
   for GFN-FF:
   * S. Spicher and S. Grimme, Angew. Chem. Int. Ed., 2020, 59, 15665-15673.
     DOI: 10.1002/anie.202004239
   
   for DFT-D4:
   * E. Caldeweyher, C. Bannwarth and S. Grimme, J. Chem. Phys., 2017,
     147, 034112. DOI: 10.1063/1.4993215
   * E. Caldeweyher, S. Ehlert, A. Hansen, H. Neugebauer, S. Spicher,
     C. Bannwarth and S. Grimme, J. Chem. Phys., 2019, 150, 154122.
     DOI: 10.1063/1.5090222
   * E. Caldeweyher, J.-M. Mewes, S. Ehlert and S. Grimme, Phys. Chem. Chem. Phys.
     2020, 22, 8499-8512. DOI: 10.1039/D0CP00502A
   
   for sTDA-xTB:
   * S. Grimme and C. Bannwarth, J. Chem. Phys., 2016, 145, 054103.
     DOI: 10.1063/1.4959605
   
   in the mass-spec context:
   * V. Asgeirsson, C. Bauer and S. Grimme, Chem. Sci., 2017, 8, 4879.
     DOI: 10.1039/c7sc00601b
   * J. Koopman and S. Grimme, ACS Omega 2019, 4, 12, 15120-15133.
     DOI: 10.1021/acsomega.9b02011
   
   for metadynamics refer to:
   * S. Grimme, J. Chem. Theory Comput., 2019, 155, 2847-2862
     DOI: 10.1021/acs.jctc.9b00143
   
   for SPH calculations refer to:
   * S. Spicher and S. Grimme, J. Chem. Theory Comput., 2021, 17, 1701-1714
     DOI: 10.1021/acs.jctc.0c01306
   
   with help from (in alphabetical order)
   P. Atkinson, C. Bannwarth, F. Bohle, G. Brandenburg, E. Caldeweyher
   M. Checinski, S. Dohm, S. Ehlert, S. Ehrlich, I. Gerasimov, J. Koopman
   C. Lavigne, S. Lehtola, F. März, M. Müller, F. Musil, H. Neugebauer
   J. Pisarek, C. Plett, P. Pracht, J. Seibert, P. Shushkov, S. Spicher
   M. Stahn, M. Steiner, T. Strunk, J. Stückrath, T. Rose, and J. Unsleber
   
 * started run on 2022/02/05 at 00:08:50.263     

           -------------------------------------------------
          |                Calculation Setup                |
           -------------------------------------------------

          program call               : /ihome/ghutchison/oda6/xtb/xtb-641/bin/xtb ../../GFN2_output/39_50_130_92_39.mol --sp --alpb hexane
          hostname                   : smp-n57
          coordinate file            : ../../GFN2_output/39_50_130_92_39.mol
          omp threads                :                     8
          number of atoms            :                   194
          number of electrons        :                   594
          charge                     :                     0
          spin                       :                   0.0
          first test random number   :      0.80633614237354

   ID    Z sym.   atoms
    1    6 C      1-3, 5-13, 15, 17-26, 28-30, 32, 33, 35-38, 40-46, 48-51,
                  53, 54, 56-59, 61-67, 69-72, 74-83, 85-93, 95, 97, 98,
                  100-102, 104-112, 114, 116-122
    2    8 O      4, 103
    3    7 N      14, 16, 34, 55, 113, 115
    4   16 S      27, 31, 39, 47, 52, 60, 68, 73, 96, 99
    5   34 Se     84, 94
    6    1 H      123-194

           -------------------------------------------------
          |                 G F N 2 - x T B                 |
           -------------------------------------------------

        Reference                      10.1021/acs.jctc.8b01176
      * Hamiltonian:
        H0-scaling (s, p, d)           1.850000    2.230000    2.230000
        zeta-weighting                 0.500000
      * Dispersion:
        s8                             2.700000
        a1                             0.520000
        a2                             5.000000
        s9                             5.000000
      * Repulsion:
        kExp                           1.500000    1.000000
        rExp                           1.000000
      * Coulomb:
        alpha                          2.000000
        third order                    shell-resolved
        anisotropic                    true
        a3                             3.000000
        a5                             4.000000
        cn-shift                       1.200000
        cn-exp                         4.000000
        max-rad                        5.000000

      * Solvation model:               ALPB
        Solvent                        hexane
        Parameter file                 internal GFN2-xTB/ALPB
        Dielectric constant                1.8800E+00
        Reference state                gsolv [1 M gas/solution]
        Free energy shift                  4.8134E-03 Eh       3.0204E+00 kcal/mol
        Temperature                        2.9815E+02 K
        Density                            6.6000E-01 kg/L
        Solvent mass                       8.6180E+01 g/mol
        Interaction kernel             P16
        Born radius scaling (c1)           1.1040E+00
        Born radii integrator          GBOBC
        Born offset                        0.0000E+00 a0       0.0000E+00 AA
        H-bond correction              false
        Ion screening                  false
        Surface tension                    1.0000E-05 Eh       1.5569E+01 dyn/cm
        Grid points                               230 per atom

          ...................................................
          :                      SETUP                      :
          :.................................................:
          :  # basis functions                 632          :
          :  # atomic orbitals                 620          :
          :  # shells                          328          :
          :  # electrons                       594          :
          :  max. iterations                   250          :
          :  Hamiltonian                  GFN2-xTB          :
          :  restarted?                      false          :
          :  GBSA solvation                   true          :
          :  PC potential                    false          :
          :  electronic temp.          300.0000000     K    :
          :  accuracy                    1.0000000          :
          :  -> integral cutoff          0.2500000E+02      :
          :  -> integral neglect         0.1000000E-07      :
          :  -> SCF convergence          0.1000000E-05 Eh   :
          :  -> wf. convergence          0.1000000E-03 e    :
          :  Broyden damping             0.4000000          :
          ...................................................

 iter      E             dE          RMSdq      gap      omega  full diag
   1   -324.4448925 -0.324445E+03  0.460E+00    0.82       0.0  T
   2   -324.6347145 -0.189822E+00  0.259E+00    0.91       1.0  T
   3   -324.4894790  0.145235E+00  0.125E+00    0.47       1.0  T
   4   -324.6688654 -0.179386E+00  0.500E-01    0.65       1.0  T
   5   -324.6909404 -0.220750E-01  0.178E-01    0.59       1.0  T
   6   -324.6918137 -0.873312E-03  0.821E-02    0.63       1.0  T
   7   -324.6924832 -0.669413E-03  0.344E-02    0.63       1.0  T
   8   -324.6925658 -0.826261E-04  0.192E-02    0.63       1.0  T
   9   -324.6925849 -0.191686E-04  0.104E-02    0.63       1.0  T
  10   -324.6925896 -0.468092E-05  0.482E-03    0.62       1.5  T
  11   -324.6925906 -0.987040E-06  0.241E-03    0.63       3.0  T
  12   -324.6925907 -0.896803E-07  0.134E-03    0.63       5.3  T
  13   -324.6925908 -0.888431E-07  0.649E-04    0.63      11.1  T
  14   -324.6925908 -0.132553E-07  0.323E-04    0.63      22.2  T

   *** convergence criteria satisfied after 14 iterations ***

         #    Occupation            Energy/Eh            Energy/eV
      -------------------------------------------------------------
         1        2.0000           -0.7589891             -20.6531
       ...           ...                  ...                  ...
       291        2.0000           -0.3751228             -10.2076
       292        2.0000           -0.3715511             -10.1104
       293        2.0000           -0.3708015             -10.0900
       294        2.0000           -0.3703202             -10.0769
       295        2.0000           -0.3626202              -9.8674
       296        2.0000           -0.3577268              -9.7342
       297        2.0000           -0.3539555              -9.6316 (HOMO)
       298        0.0000           -0.3309841              -9.0065 (LUMO)
       299                         -0.3256018              -8.8601
       300                         -0.3175815              -8.6418
       301                         -0.3153206              -8.5803
       302                         -0.2951114              -8.0304
       ...                                ...                  ...
       620                          1.1610041              31.5925
      -------------------------------------------------------------
                  HL-Gap            0.0229714 Eh            0.6251 eV
             Fermi-level           -0.3424625 Eh           -9.3189 eV

 SCC (total)                   0 d,  0 h,  0 min,  0.727 sec
 SCC setup                      ...        0 min,  0.006 sec (  0.869%)
 Dispersion                     ...        0 min,  0.013 sec (  1.789%)
 classical contributions        ...        0 min,  0.000 sec (  0.049%)
 integral evaluation            ...        0 min,  0.047 sec (  6.459%)
 iterations                     ...        0 min,  0.541 sec ( 74.387%)
 molecular gradient             ...        0 min,  0.116 sec ( 15.985%)
 printout                       ...        0 min,  0.003 sec (  0.448%)

         :::::::::::::::::::::::::::::::::::::::::::::::::::::
         ::                     SUMMARY                     ::
         :::::::::::::::::::::::::::::::::::::::::::::::::::::
         :: total energy            -319.567896906223 Eh    ::
         :: total w/o Gsasa/hb      -319.463483562157 Eh    ::
         :: gradient norm              0.020559678345 Eh/a0 ::
         :: HOMO-LUMO gap              0.625082831587 eV    ::
         ::.................................................::
         :: SCC energy              -324.692590806253 Eh    ::
         :: -> isotropic ES            0.131086305526 Eh    ::
         :: -> anisotropic ES          0.014411786604 Eh    ::
         :: -> anisotropic XC          0.202717400782 Eh    ::
         :: -> dispersion             -0.360040996609 Eh    ::
         :: -> Gsolv                  -0.127485009697 Eh    ::
         ::    -> Gelec               -0.023071665631 Eh    ::
         ::    -> Gsasa               -0.109226699885 Eh    ::
         ::    -> Ghb                  0.000000000000 Eh    ::
         ::    -> Gshift               0.004813355820 Eh    ::
         :: repulsion energy           5.117363712185 Eh    ::
         :: add. restraining           0.000000000000 Eh    ::
         :: total charge               0.000000000003 e     ::
         :::::::::::::::::::::::::::::::::::::::::::::::::::::

           -------------------------------------------------
          |                Property Printout                |
           -------------------------------------------------

    * Orbital Energies and Occupations

         #    Occupation            Energy/Eh            Energy/eV
      -------------------------------------------------------------
         1        2.0000           -0.7589891             -20.6531
       ...           ...                  ...                  ...
       285        2.0000           -0.3916604             -10.6576
       286        2.0000           -0.3890234             -10.5859
       287        2.0000           -0.3880240             -10.5587
       288        2.0000           -0.3868812             -10.5276
       289        2.0000           -0.3862431             -10.5102
       290        2.0000           -0.3845479             -10.4641
       291        2.0000           -0.3751228             -10.2076
       292        2.0000           -0.3715511             -10.1104
       293        2.0000           -0.3708015             -10.0900
       294        2.0000           -0.3703202             -10.0769
       295        2.0000           -0.3626202              -9.8674
       296        2.0000           -0.3577268              -9.7342
       297        2.0000           -0.3539555              -9.6316 (HOMO)
       298        0.0000           -0.3309841              -9.0065 (LUMO)
       299                         -0.3256018              -8.8601
       300                         -0.3175815              -8.6418
       301                         -0.3153206              -8.5803
       302                         -0.2951114              -8.0304
       303                         -0.2792853              -7.5997
       304                         -0.2678133              -7.2876
       305                         -0.2590640              -7.0495
       306                         -0.2506777              -6.8213
       307                         -0.2504625              -6.8154
       308                         -0.2479833              -6.7480
       ...                                ...                  ...
       620                          1.1610041              31.5925
      -------------------------------------------------------------
                  HL-Gap            0.0229714 Eh            0.6251 eV
             Fermi-level           -0.3424625 Eh           -9.3189 eV

     #   Z          covCN         q      C6AA      α(0)
     1   6 C        2.920    -0.016    28.409     8.741
     2   6 C        3.008    -0.038    28.929     8.823
     3   6 C        2.879     0.232    23.146     7.887
     4   8 O        0.993    -0.405    21.716     6.251
     5   6 C        3.061    -0.019    28.412     8.741
     6   6 C        2.904    -0.022    28.546     8.761
     7   6 C        3.260     0.010    26.636     8.339
     8   6 C        3.256     0.013    26.615     8.342
     9   6 C        2.904    -0.032    28.799     8.799
    10   6 C        3.052     0.009    27.778     8.644
    11   6 C        3.022     0.039    27.092     8.538
    12   6 C        2.947     0.004    27.933     8.668
    13   6 C        1.948     0.133    27.827     8.519
    14   7 N        0.911    -0.274    27.089     7.528
    15   6 C        1.947     0.130    27.888     8.528
    16   7 N        0.911    -0.282    27.273     7.553
    17   6 C        4.162    -0.022    20.883     6.490
    18   6 C        4.013    -0.015    20.768     6.474
    19   6 C        2.995    -0.041    29.018     8.836
    20   6 C        2.995    -0.042    29.038     8.839
    21   6 C        4.013    -0.015    20.766     6.474
    22   6 C        3.915    -0.060    21.583     6.603
    23   6 C        4.161    -0.022    20.880     6.490
    24   6 C        2.982     0.026    27.412     8.588
    25   6 C        3.125    -0.047    28.966     8.813
    26   6 C        3.127     0.038    26.966     8.503
    27  16 S        2.225    -0.204   149.725    20.594
    28   6 C        3.793     0.003    20.534     6.453
    29   6 C        3.777    -0.101    22.452     6.751
    30   6 C        3.044     0.012    27.704     8.633
    31  16 S        2.465     0.006   140.831    19.973
    32   6 C        3.023     0.003    27.931     8.669
    33   6 C        3.045     0.052    26.798     8.490
    34   7 N        2.748    -0.045    22.120     6.985
    35   6 C        2.937     0.064    26.576     8.455
    36   6 C        2.924    -0.036    28.890     8.814
    37   6 C        2.981    -0.033    28.804     8.804
    38   6 C        2.966     0.046    26.968     8.518
    39  16 S        2.032    -0.187   149.006    20.545
    40   6 C        3.744    -0.045    21.447     6.606
    41   6 C        2.943    -0.042    29.044     8.839
    42   6 C        2.924    -0.046    29.139     8.852
    43   6 C        2.941     0.060    26.661     8.468
    44   6 C        2.927    -0.038    28.956     8.825
    45   6 C        2.948    -0.039    28.958     8.826
    46   6 C        2.966     0.052    26.828     8.496
    47  16 S        2.031    -0.169   148.199    20.489
    48   6 C        3.744    -0.047    21.485     6.612
    49   6 C        2.976    -0.036    28.885     8.816
    50   6 C        2.921    -0.038    28.951     8.824
    51   6 C        3.179     0.006    27.463     8.556
    52  16 S        2.514    -0.072   144.033    20.199
    53   6 C        3.053     0.001    27.964     8.673
    54   6 C        3.058     0.050    26.813     8.492
    55   7 N        2.747    -0.064    22.484     7.043
    56   6 C        2.921     0.062    26.617     8.460
    57   6 C        2.924    -0.046    29.151     8.854
    58   6 C        2.944    -0.038    28.946     8.824
    59   6 C        2.965     0.049    26.900     8.507
    60  16 S        2.032    -0.185   148.888    20.537
    61   6 C        3.744    -0.050    21.539     6.620
    62   6 C        2.981    -0.036    28.884     8.816
    63   6 C        2.922    -0.046    29.153     8.854
    64   6 C        2.937     0.060    26.655     8.467
    65   6 C        2.923    -0.040    28.993     8.830
    66   6 C        2.944    -0.042    29.036     8.838
    67   6 C        2.966     0.051    26.850     8.499
    68  16 S        2.035    -0.178   148.603    20.517
    69   6 C        3.744    -0.052    21.572     6.625
    70   6 C        2.984    -0.038    28.938     8.824
    71   6 C        2.922    -0.040    28.994     8.830
    72   6 C        3.179     0.002    27.556     8.570
    73  16 S        2.465    -0.070   143.951    20.193
    74   6 C        3.044     0.035    27.182     8.551
    75   6 C        3.061    -0.054    29.270     8.872
    76   6 C        3.138     0.002    27.739     8.620
    77   6 C        3.012    -0.005    28.127     8.700
    78   6 C        2.978     0.008    27.832     8.654
    79   6 C        3.094    -0.043    28.961     8.820
    80   6 C        3.093    -0.049    29.112     8.843
    81   6 C        2.971     0.015    27.664     8.627
    82   6 C        3.819    -0.051    21.475     6.595
    83   6 C        3.753    -0.102    22.514     6.766
    84  34 Se       2.336    -0.107   239.351    26.958
    85   6 C        3.009     0.028    27.361     8.580
    86   6 C        3.137    -0.003    27.861     8.639
    87   6 C        3.012     0.001    27.980     8.677
    88   6 C        2.975     0.002    27.983     8.677
    89   6 C        3.091    -0.043    28.947     8.819
    90   6 C        3.088    -0.057    29.319     8.876
    91   6 C        2.970     0.022    27.516     8.604
    92   6 C        3.819    -0.055    21.554     6.607
    93   6 C        3.756    -0.105    22.557     6.772
    94  34 Se       2.477    -0.061   237.778    26.869
    95   6 C        3.005     0.027    27.393     8.585
    96  16 S        2.660    -0.072   144.029    20.199
    97   6 C        3.069    -0.037    28.850     8.807
    98   6 C        2.979     0.035    27.220     8.558
    99  16 S        2.290    -0.050   143.116    20.135
   100   6 C        2.941    -0.009    28.236     8.715
   101   6 C        3.006    -0.033    28.818     8.806
   102   6 C        2.875     0.235    23.100     7.879
   103   8 O        0.856    -0.407    21.822     6.263
   104   6 C        3.057    -0.020    28.441     8.746
   105   6 C        2.904    -0.021    28.537     8.759
   106   6 C        3.259     0.012    26.618     8.339
   107   6 C        3.256     0.013    26.615     8.342
   108   6 C        2.904    -0.034    28.835     8.805
   109   6 C        3.050     0.007    27.816     8.650
   110   6 C        3.021     0.041    27.055     8.532
   111   6 C        2.948     0.006    27.891     8.662
   112   6 C        1.934     0.133    27.827     8.519
   113   7 N        0.911    -0.272    27.033     7.520
   114   6 C        1.936     0.134    27.818     8.517
   115   7 N        0.911    -0.272    27.033     7.520
   116   6 C        4.161    -0.022    20.881     6.490
   117   6 C        4.013    -0.015    20.763     6.473
   118   6 C        2.995    -0.042    29.022     8.837
   119   6 C        2.995    -0.042    29.026     8.838
   120   6 C        4.013    -0.015    20.765     6.473
   121   6 C        3.915    -0.060    21.584     6.603
   122   6 C        4.161    -0.022    20.880     6.490
   123   1 H        0.925     0.069     2.093     2.262
   124   1 H        0.926     0.058     2.221     2.331
   125   1 H        0.926     0.058     2.220     2.330
   126   1 H        0.925     0.046     2.370     2.408
   127   1 H        0.925     0.040     2.453     2.449
   128   1 H        0.926     0.038     2.473     2.459
   129   1 H        0.926     0.037     2.483     2.464
   130   1 H        0.925     0.038     2.474     2.460
   131   1 H        0.925     0.035     2.512     2.479
   132   1 H        0.925     0.040     2.450     2.448
   133   1 H        0.925     0.044     2.391     2.418
   134   1 H        0.926     0.064     2.152     2.294
   135   1 H        0.925     0.054     2.268     2.355
   136   1 H        0.925     0.064     2.155     2.295
   137   1 H        0.925     0.052     2.290     2.367
   138   1 H        0.925     0.053     2.278     2.361
   139   1 H        0.925     0.038     2.475     2.460
   140   1 H        0.926     0.054     2.270     2.356
   141   1 H        0.926     0.048     2.351     2.398
   142   1 H        0.925     0.067     2.117     2.275
   143   1 H        0.925     0.058     2.219     2.330
   144   1 H        0.925     0.067     2.123     2.278
   145   1 H        0.926     0.047     2.357     2.401
   146   1 H        0.926     0.040     2.444     2.445
   147   1 H        0.926     0.045     2.378     2.411
   148   1 H        0.926     0.051     2.310     2.377
   149   1 H        0.925     0.067     2.115     2.274
   150   1 H        0.925     0.059     2.214     2.327
   151   1 H        0.925     0.062     2.174     2.306
   152   1 H        0.926     0.056     2.247     2.344
   153   1 H        0.926     0.048     2.344     2.394
   154   1 H        0.926     0.044     2.403     2.424
   155   1 H        0.926     0.050     2.316     2.380
   156   1 H        0.925     0.061     2.192     2.315
   157   1 H        0.925     0.070     2.086     2.259
   158   1 H        0.925     0.074     2.046     2.237
   159   1 H        0.926     0.050     2.321     2.382
   160   1 H        0.926     0.038     2.477     2.461
   161   1 H        0.926     0.046     2.375     2.410
   162   1 H        0.926     0.050     2.318     2.381
   163   1 H        0.925     0.063     2.165     2.301
   164   1 H        0.925     0.069     2.091     2.262
   165   1 H        0.925     0.062     2.175     2.306
   166   1 H        0.926     0.051     2.304     2.373
   167   1 H        0.926     0.043     2.410     2.428
   168   1 H        0.926     0.055     2.260     2.351
   169   1 H        0.926     0.042     2.422     2.433
   170   1 H        0.926     0.041     2.435     2.440
   171   1 H        0.924     0.047     2.356     2.401
   172   1 H        0.924     0.049     2.338     2.391
   173   1 H        0.925     0.044     2.398     2.422
   174   1 H        0.925     0.044     2.395     2.420
   175   1 H        0.925     0.043     2.414     2.430
   176   1 H        0.926     0.029     2.594     2.518
   177   1 H        0.926     0.043     2.411     2.428
   178   1 H        0.924     0.056     2.242     2.342
   179   1 H        0.924     0.065     2.141     2.288
   180   1 H        0.924     0.062     2.180     2.309
   181   1 H        0.925     0.050     2.316     2.380
   182   1 H        0.925     0.049     2.330     2.387
   183   1 H        0.926     0.048     2.342     2.393
   184   1 H        0.925     0.083     1.944     2.180
   185   1 H        0.926     0.063     2.164     2.301
   186   1 H        0.926     0.057     2.239     2.340
   187   1 H        0.925     0.046     2.364     2.405
   188   1 H        0.925     0.040     2.455     2.450
   189   1 H        0.926     0.039     2.463     2.454
   190   1 H        0.926     0.039     2.467     2.456
   191   1 H        0.925     0.039     2.457     2.451
   192   1 H        0.925     0.035     2.516     2.480
   193   1 H        0.925     0.041     2.436     2.441
   194   1 H        0.925     0.046     2.370     2.408

 Mol. C6AA /au·bohr⁶  :     681132.058023
 Mol. C8AA /au·bohr⁸  :   20172925.449470
 Mol. α(0) /au        :       1326.100729


Wiberg/Mayer (AO) data.
largest (>0.10) Wiberg bond orders for each atom

 ---------------------------------------------------------------------------
     #   Z sym  total        # sym  WBO       # sym  WBO       # sym  WBO
 ---------------------------------------------------------------------------
     1   6 C    3.947 --     2 C    1.474    24 C    1.310   123 H    0.941
     2   6 C    3.952 --     1 C    1.474    11 C    1.151     3 C    1.070
     3   6 C    3.910 --     4 O    1.667     2 C    1.070     5 C    1.036
     4   8 O    2.089 --     3 C    1.667    31 S    0.144
     5   6 C    3.970 --     6 C    1.378    10 C    1.307     3 C    1.036
     6   6 C    3.978 --     7 C    1.442     5 C    1.378   124 H    0.964
     7   6 C    3.955 --     6 C    1.442     8 C    1.326    23 C    0.992
     8   6 C    3.964 --     9 C    1.445     7 C    1.326    17 C    0.994
     9   6 C    3.975 --     8 C    1.445    10 C    1.369   125 H    0.958
    10   6 C    3.975 --     9 C    1.369     5 C    1.307    11 C    1.085
    11   6 C    3.963 --    12 C    1.460     2 C    1.151    10 C    1.085
    12   6 C    3.941 --    11 C    1.460    15 C    1.106    13 C    1.102
    13   6 C    3.941 --    14 N    2.748    12 C    1.102
    14   7 N    2.954 --    13 C    2.748
    15   6 C    3.941 --    16 N    2.737    12 C    1.106
    16   7 N    2.949 --    15 C    2.737
    17   6 C    3.984 --     8 C    0.994    23 C    0.975   126 H    0.961
                            18 C    0.951
    18   6 C    3.989 --    19 C    1.004    22 C    0.989   127 H    0.971
                            17 C    0.951
    19   6 C    3.982 --    20 C    1.923    18 C    1.004   128 H    0.971
    20   6 C    3.982 --    19 C    1.923    21 C    1.004   129 H    0.971
    21   6 C    3.989 --    20 C    1.004    22 C    0.989   130 H    0.971
                            23 C    0.951
    22   6 C    3.994 --    21 C    0.989    18 C    0.989   132 H    0.978
                           131 H    0.974
    23   6 C    3.984 --     7 C    0.992    17 C    0.975   133 H    0.961
                            21 C    0.951
    24   6 C    3.934 --    25 C    1.346     1 C    1.310    31 S    1.099
    25   6 C    3.959 --    26 C    1.423    24 C    1.346   134 H    0.961
    26   6 C    3.936 --    25 C    1.423    30 C    1.325    27 S    1.005
    27  16 S    2.212 --    26 C    1.005    28 C    0.959
    28   6 C    3.962 --    29 C    1.028   135 H    0.973   136 H    0.967
                            27 S    0.959
    29   6 C    3.993 --    28 C    1.028   139 H    0.985   137 H    0.980
                           138 H    0.976
    30   6 C    3.938 --    26 C    1.325    32 C    1.243    31 S    1.155
    31  16 S    2.774 --    30 C    1.155    24 C    1.099     4 O    0.144
    32   6 C    3.911 --    33 C    1.346    30 C    1.243    73 S    1.069
    33   6 C    3.938 --    32 C    1.346    51 C    1.227    34 N    1.122
    34   7 N    3.513 --    33 C    1.122    35 C    1.073    43 C    1.023
    35   6 C    3.962 --    42 C    1.352    36 C    1.337    34 N    1.073
    36   6 C    3.978 --    37 C    1.485    35 C    1.337   140 H    0.964
    37   6 C    3.989 --    36 C    1.485    38 C    1.363   141 H    0.966
    38   6 C    3.954 --    41 C    1.384    37 C    1.363    39 S    1.046
    39  16 S    2.260 --    38 C    1.046    40 C    1.008
    40   6 C    3.971 --    39 S    1.008   144 H    0.980   143 H    0.979
                           142 H    0.977
    41   6 C    3.987 --    42 C    1.457    38 C    1.384   145 H    0.964
    42   6 C    3.984 --    41 C    1.457    35 C    1.352   146 H    0.966
    43   6 C    3.960 --    44 C    1.369    50 C    1.360    34 N    1.023
    44   6 C    3.983 --    45 C    1.450    43 C    1.369   147 H    0.966
                            49 C    0.100
    45   6 C    3.987 --    44 C    1.450    46 C    1.388   148 H    0.964
    46   6 C    3.954 --    45 C    1.388    49 C    1.371    47 S    1.049
    47  16 S    2.252 --    46 C    1.049    48 C    1.006
    48   6 C    3.973 --    47 S    1.006   150 H    0.981   151 H    0.979
                           149 H    0.973
    49   6 C    3.988 --    50 C    1.473    46 C    1.371   152 H    0.966
                            44 C    0.100
    50   6 C    3.980 --    49 C    1.473    43 C    1.360   153 H    0.966
    51   6 C    3.928 --    72 C    1.371    33 C    1.227    52 S    1.103
    52  16 S    2.564 --    51 C    1.103    53 C    1.089
    53   6 C    3.900 --    54 C    1.381    74 C    1.190    52 S    1.089
    54   6 C    3.939 --    53 C    1.381    72 C    1.224    55 N    1.100
    55   7 N    3.485 --    54 C    1.100    56 C    1.067    64 C    1.023
    56   6 C    3.961 --    57 C    1.357    63 C    1.346    55 N    1.067
    57   6 C    3.982 --    58 C    1.448    56 C    1.357   154 H    0.964
    58   6 C    3.989 --    57 C    1.448    59 C    1.376   155 H    0.958
    59   6 C    3.950 --    58 C    1.376    62 C    1.368    60 S    1.045
    60  16 S    2.237 --    59 C    1.045    61 C    1.007
    61   6 C    3.970 --    60 S    1.007   156 H    0.981   157 H    0.978
                           158 H    0.963
    62   6 C    3.989 --    63 C    1.476    59 C    1.368   159 H    0.967
    63   6 C    3.983 --    62 C    1.476    56 C    1.346   160 H    0.965
    64   6 C    3.962 --    65 C    1.377    71 C    1.361    55 N    1.023
    65   6 C    3.983 --    66 C    1.451    64 C    1.377   161 H    0.966
                            70 C    0.102
    66   6 C    3.988 --    65 C    1.451    67 C    1.386   162 H    0.963
    67   6 C    3.954 --    66 C    1.386    70 C    1.368    68 S    1.051
    68  16 S    2.259 --    67 C    1.051    69 C    1.010
    69   6 C    3.973 --    68 S    1.010   165 H    0.981   163 H    0.979
                           164 H    0.977
    70   6 C    3.989 --    71 C    1.470    67 C    1.368   166 H    0.966
                            65 C    0.102
    71   6 C    3.985 --    70 C    1.470    64 C    1.361   167 H    0.967
    72   6 C    3.933 --    51 C    1.371    54 C    1.224    73 S    1.102
    73  16 S    2.590 --    72 C    1.102    32 C    1.069
    74   6 C    3.922 --    75 C    1.507    53 C    1.190    96 S    1.065
    75   6 C    3.942 --    74 C    1.507    76 C    1.243   168 H    0.945
    76   6 C    3.965 --    77 C    1.264    75 C    1.243    95 C    1.241
    77   6 C    3.945 --    85 C    1.365    76 C    1.264    78 C    1.085
    78   6 C    3.956 --    79 C    1.565    84 Se   1.122    77 C    1.085
                            81 C    0.103
    79   6 C    3.974 --    78 C    1.565    80 C    1.264   169 H    0.959
    80   6 C    3.984 --    81 C    1.598    79 C    1.264   170 H    0.961
    81   6 C    3.946 --    80 C    1.598    84 Se   1.171    82 C    1.017
                            78 C    0.103
    82   6 C    3.996 --    81 C    1.017    83 C    0.999   172 H    0.967
                           171 H    0.963
    83   6 C    3.993 --    82 C    0.999   173 H    0.988   174 H    0.985
                           175 H    0.982
    84  34 Se   2.773 --    81 C    1.171    78 C    1.122
    85   6 C    3.944 --    77 C    1.365    86 C    1.238    99 S    1.114
    86   6 C    3.968 --    97 C    1.281    85 C    1.238    87 C    1.229
    87   6 C    3.953 --    95 C    1.376    86 C    1.229    88 C    1.115
    88   6 C    3.955 --    89 C    1.521    94 Se   1.133    87 C    1.115
    89   6 C    3.974 --    88 C    1.521    90 C    1.284   176 H    0.957
                            94 Se   0.106
    90   6 C    3.980 --    91 C    1.567    89 C    1.284   177 H    0.961
    91   6 C    3.938 --    90 C    1.567    94 Se   1.184    92 C    1.021
    92   6 C    3.994 --    91 C    1.021    93 C    1.017   178 H    0.959
                           179 H    0.950
    93   6 C    3.994 --    92 C    1.017   182 H    0.984   181 H    0.975
                           180 H    0.964
    94  34 Se   2.809 --    91 C    1.184    88 C    1.133    89 C    0.106
    95   6 C    3.938 --    87 C    1.376    76 C    1.241    96 S    1.093
    96  16 S    2.535 --    95 C    1.093    74 C    1.065
    97   6 C    3.973 --    98 C    1.470    86 C    1.281   183 H    0.956
    98   6 C    3.932 --    97 C    1.470   100 C    1.229    99 S    1.081
    99  16 S    2.507 --    85 C    1.114    98 C    1.081
   100   6 C    3.939 --   101 C    1.557    98 C    1.229   184 H    0.950
   101   6 C    3.947 --   100 C    1.557   110 C    1.136   102 C    1.012
   102   6 C    3.916 --   103 O    1.751   104 C    1.027   101 C    1.012
   103   8 O    2.026 --   102 C    1.751
   104   6 C    3.971 --   105 C    1.378   109 C    1.305   102 C    1.027
   105   6 C    3.981 --   106 C    1.445   104 C    1.378   185 H    0.963
   106   6 C    3.955 --   105 C    1.445   107 C    1.322   122 C    0.993
   107   6 C    3.965 --   108 C    1.451   106 C    1.322   116 C    0.994
   108   6 C    3.977 --   107 C    1.451   109 C    1.365   186 H    0.959
   109   6 C    3.980 --   108 C    1.365   104 C    1.305   110 C    1.086
   110   6 C    3.970 --   111 C    1.469   101 C    1.136   109 C    1.086
   111   6 C    3.968 --   110 C    1.469   112 C    1.106   114 C    1.100
   112   6 C    3.943 --   113 N    2.750   111 C    1.106
   113   7 N    2.963 --   112 C    2.750
   114   6 C    3.944 --   115 N    2.752   111 C    1.100
   115   7 N    2.968 --   114 C    2.752
   116   6 C    3.984 --   107 C    0.994   122 C    0.975   187 H    0.961
                           117 C    0.951
   117   6 C    3.989 --   118 C    1.004   121 C    0.989   188 H    0.971
                           116 C    0.951
   118   6 C    3.981 --   119 C    1.923   117 C    1.004   189 H    0.971
   119   6 C    3.982 --   118 C    1.923   120 C    1.004   190 H    0.971
   120   6 C    3.988 --   119 C    1.004   121 C    0.989   191 H    0.971
                           122 C    0.950
   121   6 C    3.994 --   117 C    0.989   120 C    0.989   193 H    0.978
                           192 H    0.974
   122   6 C    3.983 --   106 C    0.993   116 C    0.975   194 H    0.961
                           120 C    0.950
   123   1 H    0.994 --     1 C    0.941
   124   1 H    0.996 --     6 C    0.964
   125   1 H    0.996 --     9 C    0.958
   126   1 H    0.996 --    17 C    0.961
   127   1 H    0.998 --    18 C    0.971
   128   1 H    0.998 --    19 C    0.971
   129   1 H    0.998 --    20 C    0.971
   130   1 H    0.998 --    21 C    0.971
   131   1 H    0.999 --    22 C    0.974
   132   1 H    0.998 --    22 C    0.978
   133   1 H    0.996 --    23 C    0.961
   134   1 H    0.995 --    25 C    0.961
   135   1 H    0.997 --    28 C    0.973
   136   1 H    0.995 --    28 C    0.967
   137   1 H    0.997 --    29 C    0.980
   138   1 H    0.997 --    29 C    0.976
   139   1 H    0.998 --    29 C    0.985
   140   1 H    0.997 --    36 C    0.964
   141   1 H    0.997 --    37 C    0.966
   142   1 H    0.995 --    40 C    0.977
   143   1 H    0.996 --    40 C    0.979
   144   1 H    0.995 --    40 C    0.980
   145   1 H    0.997 --    41 C    0.964
   146   1 H    0.998 --    42 C    0.966
   147   1 H    0.998 --    44 C    0.966
   148   1 H    0.997 --    45 C    0.964
   149   1 H    0.995 --    48 C    0.973
   150   1 H    0.996 --    48 C    0.981
   151   1 H    0.996 --    48 C    0.979
   152   1 H    0.996 --    49 C    0.966
   153   1 H    0.997 --    50 C    0.966
   154   1 H    0.998 --    57 C    0.964
   155   1 H    0.997 --    58 C    0.958
   156   1 H    0.996 --    61 C    0.981
   157   1 H    0.995 --    61 C    0.978
   158   1 H    0.994 --    61 C    0.963
   159   1 H    0.997 --    62 C    0.967
   160   1 H    0.998 --    63 C    0.965
   161   1 H    0.998 --    65 C    0.966
   162   1 H    0.997 --    66 C    0.963
   163   1 H    0.996 --    69 C    0.979
   164   1 H    0.995 --    69 C    0.977
   165   1 H    0.996 --    69 C    0.981
   166   1 H    0.997 --    70 C    0.966
   167   1 H    0.998 --    71 C    0.967
   168   1 H    0.996 --    75 C    0.945
   169   1 H    0.998 --    79 C    0.959
   170   1 H    0.998 --    80 C    0.961
   171   1 H    0.997 --    82 C    0.963
   172   1 H    0.997 --    82 C    0.967
   173   1 H    0.998 --    83 C    0.988
   174   1 H    0.997 --    83 C    0.985
   175   1 H    0.998 --    83 C    0.982
   176   1 H    0.999 --    89 C    0.957
   177   1 H    0.997 --    90 C    0.961
   178   1 H    0.995 --    92 C    0.959
   179   1 H    0.993 --    92 C    0.950
   180   1 H    0.996 --    93 C    0.964
   181   1 H    0.997 --    93 C    0.975
   182   1 H    0.997 --    93 C    0.984
   183   1 H    0.997 --    97 C    0.956
   184   1 H    0.990 --   100 C    0.950
   185   1 H    0.995 --   105 C    0.963
   186   1 H    0.996 --   108 C    0.959
   187   1 H    0.996 --   116 C    0.961
   188   1 H    0.998 --   117 C    0.971
   189   1 H    0.998 --   118 C    0.971
   190   1 H    0.998 --   119 C    0.971
   191   1 H    0.998 --   120 C    0.971
   192   1 H    0.999 --   121 C    0.974
   193   1 H    0.998 --   121 C    0.978
   194   1 H    0.996 --   122 C    0.961
 ---------------------------------------------------------------------------

Topologies differ in bond orders
Writing corrected topology to xtbtopo.mol

molecular dipole:
                 x           y           z       tot (Debye)
 q only:        0.498      -0.222       1.629
   full:       -0.175       0.600       2.247       5.927
molecular quadrupole (traceless):
                xx          xy          yy          xz          yz          zz
 q only:      -28.140      58.907      90.366      45.819     -95.196     -62.227
  q+dip:      -31.975      55.963      82.286      32.652     -92.036     -50.311
   full:      -22.285      50.056      75.421      38.494     -91.282     -53.135


           -------------------------------------------------
          | TOTAL ENERGY             -319.567896906223 Eh   |
          | GRADIENT NORM               0.020559678345 Eh/α |
          | HOMO-LUMO GAP               0.625082831587 eV   |
           -------------------------------------------------

------------------------------------------------------------------------
 * finished run on 2022/02/05 at 00:08:51.110     
------------------------------------------------------------------------
 total:
 * wall-time:     0 d,  0 h,  0 min,  0.847 sec
 *  cpu-time:     0 d,  0 h,  0 min,  6.674 sec
 * ratio c/w:     7.882 speedup
 SCF:
 * wall-time:     0 d,  0 h,  0 min,  0.732 sec
 *  cpu-time:     0 d,  0 h,  0 min,  5.852 sec
 * ratio c/w:     7.996 speedup

