      -----------------------------------------------------------      
     |                   =====================                   |     
     |                           x T B                           |     
     |                   =====================                   |     
     |                         S. Grimme                         |     
     |          Mulliken Center for Theoretical Chemistry        |     
     |                    University of Bonn                     |     
      -----------------------------------------------------------      

   * xtb version 6.4.1 (unknown) compiled by 'oda6@login1.crc.pitt.edu' on 2021-06-25

   xtb is free software: you can redistribute it and/or modify it under
   the terms of the GNU Lesser General Public License as published by
   the Free Software Foundation, either version 3 of the License, or
   (at your option) any later version.
   
   xtb is distributed in the hope that it will be useful,
   but WITHOUT ANY WARRANTY; without even the implied warranty of
   MERCHANTABILITY or FITNESS FOR A PARTICULAR PURPOSE.  See the
   GNU Lesser General Public License for more details.
   
   Cite this work as:
   * C. Bannwarth, E. Caldeweyher, S. Ehlert, A. Hansen, P. Pracht,
     J. Seibert, S. Spicher, S. Grimme, WIREs Comput. Mol. Sci., 2020, 11,
     e01493. DOI: 10.1002/wcms.1493
   
   for GFN2-xTB:
   * C. Bannwarth, S. Ehlert and S. Grimme., J. Chem. Theory Comput., 2019,
     15, 1652-1671. DOI: 10.1021/acs.jctc.8b01176
   for GFN1-xTB:
   * S. Grimme, C. Bannwarth, P. Shushkov, J. Chem. Theory Comput., 2017,
     13, 1989-2009. DOI: 10.1021/acs.jctc.7b00118
   for GFN0-xTB:
   * P. Pracht, E. Caldeweyher, S. Ehlert, S. Grimme, ChemRxiv, 2019, preprint.
     DOI: 10.26434/chemrxiv.8326202.v1
   for GFN-FF:
   * S. Spicher and S. Grimme, Angew. Chem. Int. Ed., 2020, 59, 15665-15673.
     DOI: 10.1002/anie.202004239
   
   for DFT-D4:
   * E. Caldeweyher, C. Bannwarth and S. Grimme, J. Chem. Phys., 2017,
     147, 034112. DOI: 10.1063/1.4993215
   * E. Caldeweyher, S. Ehlert, A. Hansen, H. Neugebauer, S. Spicher,
     C. Bannwarth and S. Grimme, J. Chem. Phys., 2019, 150, 154122.
     DOI: 10.1063/1.5090222
   * E. Caldeweyher, J.-M. Mewes, S. Ehlert and S. Grimme, Phys. Chem. Chem. Phys.
     2020, 22, 8499-8512. DOI: 10.1039/D0CP00502A
   
   for sTDA-xTB:
   * S. Grimme and C. Bannwarth, J. Chem. Phys., 2016, 145, 054103.
     DOI: 10.1063/1.4959605
   
   in the mass-spec context:
   * V. Asgeirsson, C. Bauer and S. Grimme, Chem. Sci., 2017, 8, 4879.
     DOI: 10.1039/c7sc00601b
   * J. Koopman and S. Grimme, ACS Omega 2019, 4, 12, 15120-15133.
     DOI: 10.1021/acsomega.9b02011
   
   for metadynamics refer to:
   * S. Grimme, J. Chem. Theory Comput., 2019, 155, 2847-2862
     DOI: 10.1021/acs.jctc.9b00143
   
   for SPH calculations refer to:
   * S. Spicher and S. Grimme, J. Chem. Theory Comput., 2021, 17, 1701-1714
     DOI: 10.1021/acs.jctc.0c01306
   
   with help from (in alphabetical order)
   P. Atkinson, C. Bannwarth, F. Bohle, G. Brandenburg, E. Caldeweyher
   M. Checinski, S. Dohm, S. Ehlert, S. Ehrlich, I. Gerasimov, J. Koopman
   C. Lavigne, S. Lehtola, F. März, M. Müller, F. Musil, H. Neugebauer
   J. Pisarek, C. Plett, P. Pracht, J. Seibert, P. Shushkov, S. Spicher
   M. Stahn, M. Steiner, T. Strunk, J. Stückrath, T. Rose, and J. Unsleber
   
 * started run on 2022/02/04 at 20:28:25.271     

           -------------------------------------------------
          |                Calculation Setup                |
           -------------------------------------------------

          program call               : /ihome/ghutchison/oda6/xtb/xtb-641/bin/xtb ../../GFN2_output/39_71_71_71_39.mol --sp --alpb hexane
          hostname                   : smp-n57
          coordinate file            : ../../GFN2_output/39_71_71_71_39.mol
          omp threads                :                     8
          number of atoms            :                   218
          number of electrons        :                   658
          charge                     :                     0
          spin                       :                   0.0
          first test random number   :      0.74352033445576

   ID    Z sym.   atoms
    1    6 C      1-3, 5-13, 15, 17-32, 34-44, 46-49, 51, 52, 54-62, 64-74,
                  76-79, 81, 82, 84-92, 94-104, 106-109, 111, 112, 114-116,
                  118-126, 128, 130-136
    2    8 O      4, 117
    3    7 N      14, 16, 127, 129
    4   16 S      33, 45, 50, 53, 63, 75, 80, 83, 93, 105, 110, 113
    5    1 H      137-218

           -------------------------------------------------
          |                 G F N 2 - x T B                 |
           -------------------------------------------------

        Reference                      10.1021/acs.jctc.8b01176
      * Hamiltonian:
        H0-scaling (s, p, d)           1.850000    2.230000    2.230000
        zeta-weighting                 0.500000
      * Dispersion:
        s8                             2.700000
        a1                             0.520000
        a2                             5.000000
        s9                             5.000000
      * Repulsion:
        kExp                           1.500000    1.000000
        rExp                           1.000000
      * Coulomb:
        alpha                          2.000000
        third order                    shell-resolved
        anisotropic                    true
        a3                             3.000000
        a5                             4.000000
        cn-shift                       1.200000
        cn-exp                         4.000000
        max-rad                        5.000000

      * Solvation model:               ALPB
        Solvent                        hexane
        Parameter file                 internal GFN2-xTB/ALPB
        Dielectric constant                1.8800E+00
        Reference state                gsolv [1 M gas/solution]
        Free energy shift                  4.8134E-03 Eh       3.0204E+00 kcal/mol
        Temperature                        2.9815E+02 K
        Density                            6.6000E-01 kg/L
        Solvent mass                       8.6180E+01 g/mol
        Interaction kernel             P16
        Born radius scaling (c1)           1.1040E+00
        Born radii integrator          GBOBC
        Born offset                        0.0000E+00 a0       0.0000E+00 AA
        H-bond correction              false
        Ion screening                  false
        Surface tension                    1.0000E-05 Eh       1.5569E+01 dyn/cm
        Grid points                               230 per atom

          ...................................................
          :                      SETUP                      :
          :.................................................:
          :  # basis functions                 698          :
          :  # atomic orbitals                 686          :
          :  # shells                          366          :
          :  # electrons                       658          :
          :  max. iterations                   250          :
          :  Hamiltonian                  GFN2-xTB          :
          :  restarted?                      false          :
          :  GBSA solvation                   true          :
          :  PC potential                    false          :
          :  electronic temp.          300.0000000     K    :
          :  accuracy                    1.0000000          :
          :  -> integral cutoff          0.2500000E+02      :
          :  -> integral neglect         0.1000000E-07      :
          :  -> SCF convergence          0.1000000E-05 Eh   :
          :  -> wf. convergence          0.1000000E-03 e    :
          :  Broyden damping             0.4000000          :
          ...................................................

 iter      E             dE          RMSdq      gap      omega  full diag
   1   -358.8792500 -0.358879E+03  0.469E+00    1.23       0.0  T
   2   -359.0877888 -0.208539E+00  0.267E+00    1.10       1.0  T
   3   -358.9440898  0.143699E+00  0.119E+00    0.65       1.0  T
   4   -359.1263048 -0.182215E+00  0.454E-01    0.70       1.0  T
   5   -359.1446745 -0.183697E-01  0.166E-01    0.64       1.0  T
   6   -359.1455721 -0.897632E-03  0.744E-02    0.70       1.0  T
   7   -359.1461275 -0.555369E-03  0.291E-02    0.69       1.0  T
   8   -359.1461817 -0.542097E-04  0.154E-02    0.70       1.0  T
   9   -359.1461888 -0.710593E-05  0.794E-03    0.70       1.0  T
  10   -359.1461926 -0.384394E-05  0.306E-03    0.70       2.2  T
  11   -359.1461932 -0.532213E-06  0.164E-03    0.70       4.1  T
  12   -359.1461933 -0.828722E-07  0.860E-04    0.70       7.9  T
  13   -359.1461933 -0.519034E-07  0.335E-04    0.70      20.2  T

   *** convergence criteria satisfied after 13 iterations ***

         #    Occupation            Energy/Eh            Energy/eV
      -------------------------------------------------------------
         1        2.0000           -0.7413504             -20.1732
       ...           ...                  ...                  ...
       323        2.0000           -0.3677429             -10.0068
       324        2.0000           -0.3667484              -9.9797
       325        2.0000           -0.3647416              -9.9251
       326        2.0000           -0.3639981              -9.9049
       327        2.0000           -0.3627723              -9.8715
       328        2.0000           -0.3610789              -9.8255
       329        2.0000           -0.3593917              -9.7795 (HOMO)
       330        0.0000           -0.3337277              -9.0812 (LUMO)
       331                         -0.3294610              -8.9651
       332                         -0.3199284              -8.7057
       333                         -0.3188984              -8.6777
       334                         -0.2988415              -8.1319
       ...                                ...                  ...
       686                          1.1576706              31.5018
      -------------------------------------------------------------
                  HL-Gap            0.0256640 Eh            0.6984 eV
             Fermi-level           -0.3464745 Eh           -9.4281 eV

 SCC (total)                   0 d,  0 h,  0 min,  0.790 sec
 SCC setup                      ...        0 min,  0.009 sec (  1.148%)
 Dispersion                     ...        0 min,  0.012 sec (  1.521%)
 classical contributions        ...        0 min,  0.000 sec (  0.053%)
 integral evaluation            ...        0 min,  0.043 sec (  5.434%)
 iterations                     ...        0 min,  0.595 sec ( 75.255%)
 molecular gradient             ...        0 min,  0.127 sec ( 16.080%)
 printout                       ...        0 min,  0.004 sec (  0.498%)

         :::::::::::::::::::::::::::::::::::::::::::::::::::::
         ::                     SUMMARY                     ::
         :::::::::::::::::::::::::::::::::::::::::::::::::::::
         :: total energy            -353.280759487530 Eh    ::
         :: total w/o Gsasa/hb      -353.150609994902 Eh    ::
         :: gradient norm              0.019719272410 Eh/a0 ::
         :: HOMO-LUMO gap              0.698353662360 eV    ::
         ::.................................................::
         :: SCC energy              -359.146193310093 Eh    ::
         :: -> isotropic ES            0.132522211224 Eh    ::
         :: -> anisotropic ES          0.018553410981 Eh    ::
         :: -> anisotropic XC          0.229933659402 Eh    ::
         :: -> dispersion             -0.358653060017 Eh    ::
         :: -> Gsolv                  -0.152717285554 Eh    ::
         ::    -> Gelec               -0.022567792926 Eh    ::
         ::    -> Gsasa               -0.134962848447 Eh    ::
         ::    -> Ghb                  0.000000000000 Eh    ::
         ::    -> Gshift               0.004813355820 Eh    ::
         :: repulsion energy           5.862270642387 Eh    ::
         :: add. restraining           0.000000000000 Eh    ::
         :: total charge               0.000000001448 e     ::
         :::::::::::::::::::::::::::::::::::::::::::::::::::::

           -------------------------------------------------
          |                Property Printout                |
           -------------------------------------------------

    * Orbital Energies and Occupations

         #    Occupation            Energy/Eh            Energy/eV
      -------------------------------------------------------------
         1        2.0000           -0.7413504             -20.1732
       ...           ...                  ...                  ...
       317        2.0000           -0.3986036             -10.8466
       318        2.0000           -0.3958753             -10.7723
       319        2.0000           -0.3940078             -10.7215
       320        2.0000           -0.3869673             -10.5299
       321        2.0000           -0.3738970             -10.1743
       322        2.0000           -0.3712952             -10.1035
       323        2.0000           -0.3677429             -10.0068
       324        2.0000           -0.3667484              -9.9797
       325        2.0000           -0.3647416              -9.9251
       326        2.0000           -0.3639981              -9.9049
       327        2.0000           -0.3627723              -9.8715
       328        2.0000           -0.3610789              -9.8255
       329        2.0000           -0.3593917              -9.7795 (HOMO)
       330        0.0000           -0.3337277              -9.0812 (LUMO)
       331                         -0.3294610              -8.9651
       332                         -0.3199284              -8.7057
       333                         -0.3188984              -8.6777
       334                         -0.2988415              -8.1319
       335                         -0.2828260              -7.6961
       336                         -0.2691449              -7.3238
       337                         -0.2600250              -7.0756
       338                         -0.2594340              -7.0596
       339                         -0.2590827              -7.0500
       340                         -0.2559385              -6.9644
       ...                                ...                  ...
       686                          1.1576706              31.5018
      -------------------------------------------------------------
                  HL-Gap            0.0256640 Eh            0.6984 eV
             Fermi-level           -0.3464745 Eh           -9.4281 eV

     #   Z          covCN         q      C6AA      α(0)
     1   6 C        2.933    -0.008    28.218     8.712
     2   6 C        3.007    -0.032    28.775     8.799
     3   6 C        2.874     0.236    23.080     7.875
     4   8 O        0.856    -0.403    21.749     6.253
     5   6 C        3.057    -0.019    28.425     8.743
     6   6 C        2.904    -0.021    28.531     8.758
     7   6 C        3.258     0.012    26.602     8.336
     8   6 C        3.256     0.014    26.604     8.340
     9   6 C        2.904    -0.033    28.832     8.804
    10   6 C        3.052     0.007    27.809     8.649
    11   6 C        3.018     0.042    27.035     8.529
    12   6 C        2.947     0.008    27.850     8.656
    13   6 C        1.938     0.133    27.825     8.519
    14   7 N        0.911    -0.261    26.766     7.482
    15   6 C        1.937     0.136    27.778     8.511
    16   7 N        0.911    -0.275    27.112     7.531
    17   6 C        4.161    -0.022    20.882     6.490
    18   6 C        4.013    -0.015    20.762     6.473
    19   6 C        2.995    -0.042    29.021     8.837
    20   6 C        2.995    -0.042    29.021     8.837
    21   6 C        4.013    -0.015    20.765     6.473
    22   6 C        3.915    -0.060    21.585     6.603
    23   6 C        4.160    -0.022    20.880     6.490
    24   6 C        2.981     0.034    27.233     8.560
    25   6 C        3.070    -0.038    28.861     8.809
    26   6 C        3.146    -0.001    27.779     8.623
    27   6 C        2.996     0.003    27.948     8.672
    28   6 C        2.978     0.013    27.718     8.636
    29   6 C        2.922    -0.044    29.086     8.844
    30   6 C        2.920    -0.033    28.823     8.804
    31   6 C        2.947    -0.044    29.082     8.845
    32   6 C        2.966     0.055    26.753     8.484
    33  16 S        2.080    -0.198   149.493    20.579
    34   6 C        3.792     0.000    20.590     6.462
    35   6 C        3.795    -0.104    22.492     6.753
    36   6 C        2.990    -0.040    28.985     8.831
    37   6 C        3.008     0.028    27.368     8.582
    38   6 C        3.127     0.002    27.782     8.630
    39   6 C        2.989    -0.004    28.108     8.697
    40   6 C        2.977     0.013    27.713     8.635
    41   6 C        2.923    -0.040    28.983     8.829
    42   6 C        2.919    -0.028    28.702     8.785
    43   6 C        2.982    -0.040    28.979     8.830
    44   6 C        2.964     0.054    26.781     8.488
    45  16 S        2.060    -0.206   149.809    20.600
    46   6 C        3.793     0.005    20.503     6.448
    47   6 C        3.778    -0.103    22.496     6.757
    48   6 C        2.951    -0.047    29.172     8.859
    49   6 C        3.003     0.030    27.325     8.575
    50  16 S        2.276    -0.043   142.837    20.115
    51   6 C        3.068    -0.057    29.341     8.882
    52   6 C        3.010     0.033    27.234     8.561
    53  16 S        2.269    -0.049   143.074    20.132
    54   6 C        3.011     0.029    27.328     8.575
    55   6 C        3.069    -0.054    29.255     8.869
    56   6 C        3.139    -0.002    27.851     8.637
    57   6 C        2.991    -0.003    28.092     8.694
    58   6 C        2.976     0.015    27.680     8.630
    59   6 C        2.924    -0.041    29.015     8.833
    60   6 C        2.920    -0.030    28.753     8.793
    61   6 C        2.943    -0.043    29.066     8.842
    62   6 C        2.965     0.057    26.723     8.479
    63  16 S        2.064    -0.201   149.613    20.587
    64   6 C        3.793     0.003    20.545     6.455
    65   6 C        3.778    -0.104    22.512     6.760
    66   6 C        2.994    -0.042    29.033     8.839
    67   6 C        3.007     0.026    27.409     8.588
    68   6 C        3.132    -0.002    27.872     8.642
    69   6 C        2.990    -0.004    28.109     8.697
    70   6 C        2.976     0.014    27.702     8.633
    71   6 C        2.923    -0.037    28.932     8.821
    72   6 C        2.919    -0.027    28.677     8.782
    73   6 C        2.977    -0.037    28.903     8.819
    74   6 C        2.965     0.057    26.723     8.479
    75  16 S        2.052    -0.207   149.876    20.605
    76   6 C        3.793     0.008    20.453     6.440
    77   6 C        3.773    -0.102    22.470     6.754
    78   6 C        2.954    -0.045    29.124     8.852
    79   6 C        3.005     0.026    27.408     8.588
    80  16 S        2.278    -0.062   143.610    20.169
    81   6 C        3.070    -0.053    29.245     8.867
    82   6 C        3.008     0.030    27.322     8.574
    83  16 S        2.261    -0.058   143.477    20.160
    84   6 C        3.008     0.033    27.240     8.561
    85   6 C        3.071    -0.056    29.318     8.878
    86   6 C        3.134     0.002    27.762     8.625
    87   6 C        2.993    -0.004    28.119     8.698
    88   6 C        2.976     0.015    27.672     8.629
    89   6 C        2.922    -0.040    28.994     8.830
    90   6 C        2.921    -0.031    28.768     8.796
    91   6 C        2.938    -0.045    29.128     8.852
    92   6 C        2.964     0.055    26.766     8.486
    93  16 S        2.070    -0.204   149.749    20.596
    94   6 C        3.794     0.005    20.496     6.447
    95   6 C        3.779    -0.103    22.489     6.756
    96   6 C        3.004    -0.045    29.103     8.849
    97   6 C        3.003     0.031    27.289     8.569
    98   6 C        3.137    -0.000    27.804     8.630
    99   6 C        2.991     0.005    27.912     8.666
   100   6 C        2.977     0.017    27.623     8.621
   101   6 C        2.923    -0.033    28.827     8.805
   102   6 C        2.920    -0.028    28.699     8.785
   103   6 C        2.950    -0.034    28.839     8.808
   104   6 C        2.966     0.059    26.683     8.473
   105  16 S        2.053    -0.231   150.934    20.677
   106   6 C        3.793     0.004    20.517     6.450
   107   6 C        3.781    -0.099    22.420     6.745
   108   6 C        2.974    -0.035    28.873     8.814
   109   6 C        3.005     0.026    27.411     8.588
   110  16 S        2.263    -0.050   143.143    20.137
   111   6 C        3.057    -0.036    28.847     8.808
   112   6 C        2.979     0.039    27.115     8.542
   113  16 S        2.284    -0.062   143.639    20.171
   114   6 C        2.947    -0.008    28.218     8.713
   115   6 C        2.999    -0.033    28.802     8.803
   116   6 C        2.867     0.235    23.084     7.876
   117   8 O        0.856    -0.420    22.076     6.299
   118   6 C        3.061    -0.020    28.445     8.746
   119   6 C        2.904    -0.022    28.551     8.761
   120   6 C        3.259     0.011    26.617     8.337
   121   6 C        3.255     0.013    26.623     8.345
   122   6 C        2.904    -0.034    28.842     8.806
   123   6 C        3.043     0.007    27.828     8.652
   124   6 C        3.023     0.038    27.132     8.544
   125   6 C        2.947     0.010    27.793     8.647
   126   6 C        1.944     0.131    27.887     8.528
   127   7 N        0.911    -0.263    26.819     7.490
   128   6 C        1.946     0.135    27.792     8.513
   129   7 N        0.911    -0.264    26.850     7.494
   130   6 C        4.162    -0.022    20.880     6.490
   131   6 C        4.013    -0.015    20.766     6.474
   132   6 C        2.995    -0.041    29.012     8.836
   133   6 C        2.995    -0.042    29.039     8.840
   134   6 C        4.013    -0.015    20.761     6.473
   135   6 C        3.915    -0.060    21.584     6.603
   136   6 C        4.160    -0.022    20.884     6.490
   137   1 H        0.925     0.085     1.931     2.173
   138   1 H        0.926     0.064     2.150     2.293
   139   1 H        0.926     0.056     2.250     2.346
   140   1 H        0.925     0.047     2.356     2.400
   141   1 H        0.925     0.039     2.459     2.452
   142   1 H        0.926     0.039     2.457     2.451
   143   1 H        0.926     0.039     2.458     2.452
   144   1 H        0.925     0.040     2.449     2.447
   145   1 H        0.925     0.035     2.522     2.484
   146   1 H        0.925     0.041     2.432     2.439
   147   1 H        0.925     0.047     2.358     2.401
   148   1 H        0.926     0.048     2.351     2.398
   149   1 H        0.926     0.035     2.523     2.484
   150   1 H        0.926     0.038     2.469     2.457
   151   1 H        0.926     0.046     2.374     2.409
   152   1 H        0.925     0.071     2.076     2.253
   153   1 H        0.925     0.047     2.357     2.401
   154   1 H        0.925     0.051     2.310     2.377
   155   1 H        0.925     0.050     2.316     2.380
   156   1 H        0.925     0.049     2.332     2.388
   157   1 H        0.926     0.048     2.351     2.398
   158   1 H        0.926     0.043     2.410     2.428
   159   1 H        0.926     0.045     2.387     2.416
   160   1 H        0.926     0.047     2.360     2.402
   161   1 H        0.925     0.057     2.237     2.339
   162   1 H        0.925     0.048     2.346     2.395
   163   1 H        0.925     0.047     2.352     2.398
   164   1 H        0.925     0.051     2.308     2.376
   165   1 H        0.925     0.048     2.351     2.398
   166   1 H        0.926     0.046     2.373     2.409
   167   1 H        0.926     0.054     2.269     2.355
   168   1 H        0.926     0.052     2.299     2.371
   169   1 H        0.926     0.036     2.499     2.472
   170   1 H        0.926     0.042     2.429     2.437
   171   1 H        0.926     0.045     2.384     2.414
   172   1 H        0.925     0.058     2.218     2.329
   173   1 H        0.925     0.051     2.305     2.374
   174   1 H        0.925     0.050     2.320     2.382
   175   1 H        0.925     0.048     2.340     2.392
   176   1 H        0.925     0.047     2.355     2.400
   177   1 H        0.926     0.048     2.343     2.394
   178   1 H        0.926     0.045     2.390     2.417
   179   1 H        0.926     0.044     2.391     2.418
   180   1 H        0.926     0.045     2.385     2.415
   181   1 H        0.925     0.051     2.310     2.377
   182   1 H        0.925     0.046     2.372     2.408
   183   1 H        0.925     0.045     2.377     2.411
   184   1 H        0.925     0.044     2.398     2.422
   185   1 H        0.925     0.051     2.312     2.378
   186   1 H        0.926     0.045     2.387     2.416
   187   1 H        0.926     0.051     2.301     2.372
   188   1 H        0.926     0.052     2.299     2.371
   189   1 H        0.926     0.043     2.414     2.430
   190   1 H        0.926     0.043     2.413     2.429
   191   1 H        0.926     0.044     2.393     2.419
   192   1 H        0.925     0.057     2.232     2.336
   193   1 H        0.925     0.058     2.226     2.333
   194   1 H        0.925     0.046     2.368     2.406
   195   1 H        0.925     0.047     2.356     2.401
   196   1 H        0.925     0.049     2.338     2.391
   197   1 H        0.926     0.044     2.394     2.420
   198   1 H        0.926     0.046     2.372     2.408
   199   1 H        0.926     0.046     2.368     2.406
   200   1 H        0.926     0.045     2.387     2.416
   201   1 H        0.925     0.049     2.331     2.388
   202   1 H        0.925     0.054     2.273     2.358
   203   1 H        0.925     0.041     2.439     2.442
   204   1 H        0.925     0.043     2.414     2.430
   205   1 H        0.925     0.054     2.265     2.354
   206   1 H        0.926     0.052     2.301     2.372
   207   1 H        0.926     0.096     1.822     2.111
   208   1 H        0.925     0.073     2.049     2.238
   209   1 H        0.926     0.061     2.188     2.313
   210   1 H        0.926     0.059     2.212     2.326
   211   1 H        0.925     0.046     2.369     2.407
   212   1 H        0.925     0.041     2.436     2.441
   213   1 H        0.926     0.039     2.461     2.453
   214   1 H        0.926     0.038     2.473     2.459
   215   1 H        0.925     0.038     2.474     2.460
   216   1 H        0.925     0.036     2.510     2.477
   217   1 H        0.925     0.041     2.434     2.440
   218   1 H        0.925     0.045     2.380     2.412

 Mol. C6AA /au·bohr⁶  :     826601.012826
 Mol. C8AA /au·bohr⁸  :   23657696.075252
 Mol. α(0) /au        :       1459.773412


Wiberg/Mayer (AO) data.
largest (>0.10) Wiberg bond orders for each atom

 ---------------------------------------------------------------------------
     #   Z sym  total        # sym  WBO       # sym  WBO       # sym  WBO
 ---------------------------------------------------------------------------
     1   6 C    3.946 --     2 C    1.570    24 C    1.221   137 H    0.952
     2   6 C    3.949 --     1 C    1.570    11 C    1.127     3 C    1.007
     3   6 C    3.917 --     4 O    1.755     5 C    1.028     2 C    1.007
     4   8 O    2.031 --     3 C    1.755
     5   6 C    3.972 --     6 C    1.376    10 C    1.305     3 C    1.028
     6   6 C    3.981 --     7 C    1.445     5 C    1.376   138 H    0.963
     7   6 C    3.955 --     6 C    1.445     8 C    1.320    23 C    0.993
     8   6 C    3.965 --     9 C    1.452     7 C    1.320    17 C    0.994
     9   6 C    3.978 --     8 C    1.452    10 C    1.363   139 H    0.960
    10   6 C    3.981 --     9 C    1.363     5 C    1.305    11 C    1.087
    11   6 C    3.973 --    12 C    1.479     2 C    1.127    10 C    1.087
    12   6 C    3.971 --    11 C    1.479    15 C    1.107    13 C    1.095
    13   6 C    3.943 --    14 N    2.761    12 C    1.095
    14   7 N    2.974 --    13 C    2.761
    15   6 C    3.942 --    16 N    2.745    12 C    1.107
    16   7 N    2.967 --    15 C    2.745
    17   6 C    3.984 --     8 C    0.994    23 C    0.975   140 H    0.961
                            18 C    0.950
    18   6 C    3.989 --    19 C    1.004    22 C    0.989   141 H    0.971
                            17 C    0.950
    19   6 C    3.981 --    20 C    1.923    18 C    1.004   142 H    0.971
    20   6 C    3.981 --    19 C    1.923    21 C    1.004   143 H    0.971
    21   6 C    3.988 --    20 C    1.004    22 C    0.989   144 H    0.971
                            23 C    0.950
    22   6 C    3.994 --    21 C    0.989    18 C    0.989   146 H    0.978
                           145 H    0.974
    23   6 C    3.983 --     7 C    0.993    17 C    0.975   147 H    0.961
                            21 C    0.950
    24   6 C    3.939 --    25 C    1.487     1 C    1.221    50 S    1.079
    25   6 C    3.979 --    24 C    1.487    26 C    1.263   148 H    0.952
    26   6 C    3.972 --    27 C    1.267    25 C    1.263    49 C    1.230
    27   6 C    3.961 --    37 C    1.415    26 C    1.267    28 C    1.025
    28   6 C    3.987 --    36 C    1.413    29 C    1.375    27 C    1.025
    29   6 C    3.985 --    30 C    1.444    28 C    1.375   149 H    0.970
    30   6 C    3.991 --    29 C    1.444    31 C    1.438   150 H    0.969
                            36 C    0.103
    31   6 C    3.985 --    30 C    1.438    32 C    1.388   151 H    0.966
    32   6 C    3.966 --    31 C    1.388    36 C    1.382    33 S    1.054
    33  16 S    2.237 --    32 C    1.054    34 C    0.972
    34   6 C    3.968 --    35 C    1.025   153 H    0.976    33 S    0.972
                           152 H    0.965
    35   6 C    3.993 --    34 C    1.025   154 H    0.986   156 H    0.986
                           155 H    0.979
    36   6 C    3.985 --    28 C    1.413    32 C    1.382   157 H    0.967
                            30 C    0.103
    37   6 C    3.946 --    27 C    1.415    38 C    1.228    53 S    1.097
    38   6 C    3.966 --    39 C    1.281    51 C    1.244    37 C    1.228
    39   6 C    3.964 --    49 C    1.389    38 C    1.281    40 C    1.045
    40   6 C    3.988 --    41 C    1.388    48 C    1.379    39 C    1.045
                            43 C    0.100
    41   6 C    3.983 --    42 C    1.431    40 C    1.388   158 H    0.966
    42   6 C    3.990 --    43 C    1.454    41 C    1.431   159 H    0.968
                            48 C    0.100
    43   6 C    3.982 --    42 C    1.454    44 C    1.372   160 H    0.968
                            40 C    0.100
    44   6 C    3.964 --    48 C    1.409    43 C    1.372    45 S    1.039
    45  16 S    2.235 --    44 C    1.039    46 C    0.981
    46   6 C    3.974 --    47 C    1.026    45 S    0.981   162 H    0.970
                           161 H    0.969
    47   6 C    3.992 --    46 C    1.026   164 H    0.986   165 H    0.984
                           163 H    0.978
    48   6 C    3.985 --    44 C    1.409    40 C    1.379   166 H    0.959
                            42 C    0.100
    49   6 C    3.947 --    39 C    1.389    26 C    1.230    50 S    1.110
    50  16 S    2.501 --    49 C    1.110    24 C    1.079
    51   6 C    3.949 --    52 C    1.523    38 C    1.244   167 H    0.955
    52   6 C    3.929 --    51 C    1.523    54 C    1.157    53 S    1.105
    53  16 S    2.507 --    52 C    1.105    37 C    1.097
    54   6 C    3.934 --    55 C    1.532    52 C    1.157    80 S    1.096
    55   6 C    3.951 --    54 C    1.532    56 C    1.235   168 H    0.956
    56   6 C    3.972 --    57 C    1.282    79 C    1.242    55 C    1.235
    57   6 C    3.961 --    67 C    1.391    56 C    1.282    58 C    1.040
    58   6 C    3.987 --    66 C    1.410    59 C    1.367    57 C    1.040
    59   6 C    3.986 --    60 C    1.451    58 C    1.367   169 H    0.969
    60   6 C    3.990 --    59 C    1.451    61 C    1.431   170 H    0.968
                            66 C    0.103
    61   6 C    3.982 --    60 C    1.431    62 C    1.393   171 H    0.963
    62   6 C    3.964 --    61 C    1.393    66 C    1.383    63 S    1.045
    63  16 S    2.243 --    62 C    1.045    64 C    0.981
    64   6 C    3.974 --    65 C    1.026    63 S    0.981   173 H    0.970
                           172 H    0.969
    65   6 C    3.993 --    64 C    1.026   174 H    0.986   175 H    0.983
                           176 H    0.979
    66   6 C    3.983 --    58 C    1.410    62 C    1.383   177 H    0.964
                            60 C    0.103
    67   6 C    3.946 --    57 C    1.391    68 C    1.242    83 S    1.098
    68   6 C    3.971 --    69 C    1.281    67 C    1.242    81 C    1.234
    69   6 C    3.964 --    79 C    1.388    68 C    1.281    70 C    1.046
    70   6 C    3.987 --    71 C    1.388    78 C    1.379    69 C    1.046
                            73 C    0.100
    71   6 C    3.982 --    72 C    1.432    70 C    1.388   178 H    0.965
    72   6 C    3.990 --    73 C    1.452    71 C    1.432   179 H    0.968
                            78 C    0.101
    73   6 C    3.982 --    72 C    1.452    74 C    1.376   180 H    0.968
                            70 C    0.100
    74   6 C    3.963 --    78 C    1.411    73 C    1.376    75 S    1.034
    75  16 S    2.217 --    74 C    1.034    76 C    0.978
    76   6 C    3.974 --    77 C    1.026    75 S    0.978   181 H    0.971
                           182 H    0.968
    77   6 C    3.994 --    76 C    1.026   185 H    0.986   183 H    0.983
                           184 H    0.979
    78   6 C    3.985 --    74 C    1.411    70 C    1.379   186 H    0.960
                            72 C    0.101
    79   6 C    3.945 --    69 C    1.388    56 C    1.242    80 S    1.099
    80  16 S    2.508 --    79 C    1.099    54 C    1.096
    81   6 C    3.953 --    82 C    1.535    68 C    1.234   187 H    0.955
    82   6 C    3.933 --    81 C    1.535    84 C    1.149    83 S    1.099
    83  16 S    2.508 --    82 C    1.099    67 C    1.098
    84   6 C    3.929 --    85 C    1.531    82 C    1.149   110 S    1.103
    85   6 C    3.952 --    84 C    1.531    86 C    1.240   188 H    0.953
    86   6 C    3.965 --    87 C    1.282    85 C    1.240   109 C    1.233
    87   6 C    3.964 --    97 C    1.392    86 C    1.282    88 C    1.039
    88   6 C    3.987 --    96 C    1.403    89 C    1.375    87 C    1.039
    89   6 C    3.984 --    90 C    1.446    88 C    1.375   189 H    0.967
    90   6 C    3.990 --    89 C    1.446    91 C    1.434   190 H    0.969
                            96 C    0.104
    91   6 C    3.982 --    90 C    1.434    92 C    1.386   191 H    0.963
    92   6 C    3.964 --    91 C    1.386    96 C    1.385    93 S    1.049
    93  16 S    2.256 --    92 C    1.049    94 C    0.982
    94   6 C    3.972 --    95 C    1.026    93 S    0.982   192 H    0.968
                           193 H    0.967
    95   6 C    3.993 --    94 C    1.026   196 H    0.986   195 H    0.984
                           194 H    0.979
    96   6 C    3.986 --    88 C    1.403    92 C    1.385   197 H    0.964
                            90 C    0.104
    97   6 C    3.947 --    87 C    1.392    98 C    1.225   113 S    1.117
    98   6 C    3.970 --   111 C    1.270    99 C    1.263    97 C    1.225
    99   6 C    3.959 --   109 C    1.405    98 C    1.263   100 C    1.043
   100   6 C    3.987 --   108 C    1.386   101 C    1.385    99 C    1.043
                           103 C    0.101
   101   6 C    3.983 --   102 C    1.439   100 C    1.385   198 H    0.966
   102   6 C    3.990 --   103 C    1.442   101 C    1.439   199 H    0.968
                           108 C    0.104
   103   6 C    3.983 --   102 C    1.442   104 C    1.397   200 H    0.966
                           100 C    0.101
   104   6 C    3.966 --   108 C    1.414   103 C    1.397   105 S    1.011
   105  16 S    2.151 --   104 C    1.011   106 C    0.972
   106   6 C    3.975 --   107 C    1.027   105 S    0.972   202 H    0.972
                           201 H    0.971
   107   6 C    3.993 --   106 C    1.027   204 H    0.987   205 H    0.981
                           203 H    0.979
   108   6 C    3.984 --   104 C    1.414   100 C    1.386   206 H    0.966
                           102 C    0.104
   109   6 C    3.946 --    99 C    1.405    86 C    1.233   110 S    1.095
   110  16 S    2.508 --    84 C    1.103   109 C    1.095
   111   6 C    3.943 --   112 C    1.478    98 C    1.270   207 H    0.938
   112   6 C    3.935 --   111 C    1.478   114 C    1.241   113 S    1.066
   113  16 S    2.495 --    97 C    1.117   112 C    1.066
   114   6 C    3.946 --   115 C    1.552   112 C    1.241   208 H    0.944
   115   6 C    3.949 --   114 C    1.552   124 C    1.122   116 C    1.035
   116   6 C    3.913 --   117 O    1.722   115 C    1.035   118 C    1.033
   117   8 O    2.024 --   116 C    1.722
   118   6 C    3.974 --   119 C    1.374   123 C    1.308   116 C    1.033
   119   6 C    3.980 --   120 C    1.448   118 C    1.374   209 H    0.963
   120   6 C    3.955 --   119 C    1.448   121 C    1.319   136 C    0.993
   121   6 C    3.965 --   122 C    1.453   120 C    1.319   130 C    0.994
   122   6 C    3.977 --   121 C    1.453   123 C    1.360   210 H    0.958
   123   6 C    3.977 --   122 C    1.360   118 C    1.308   124 C    1.093
   124   6 C    3.973 --   125 C    1.490   115 C    1.122   123 C    1.093
   125   6 C    3.953 --   124 C    1.490   128 C    1.097   126 C    1.096
   126   6 C    3.943 --   127 N    2.752   125 C    1.096
   127   7 N    2.959 --   126 C    2.752
   128   6 C    3.942 --   129 N    2.757   125 C    1.097
   129   7 N    2.964 --   128 C    2.757
   130   6 C    3.984 --   121 C    0.994   136 C    0.975   211 H    0.961
                           131 C    0.950
   131   6 C    3.989 --   132 C    1.004   135 C    0.989   212 H    0.971
                           130 C    0.950
   132   6 C    3.982 --   133 C    1.923   131 C    1.004   213 H    0.971
   133   6 C    3.982 --   132 C    1.923   134 C    1.004   214 H    0.971
   134   6 C    3.988 --   133 C    1.004   135 C    0.989   215 H    0.971
                           136 C    0.950
   135   6 C    3.994 --   134 C    0.989   131 C    0.989   217 H    0.978
                           216 H    0.974
   136   6 C    3.983 --   120 C    0.993   130 C    0.975   218 H    0.961
                           134 C    0.950
   137   1 H    0.990 --     1 C    0.952
   138   1 H    0.995 --     6 C    0.963
   139   1 H    0.996 --     9 C    0.960
   140   1 H    0.996 --    17 C    0.961
   141   1 H    0.998 --    18 C    0.971
   142   1 H    0.998 --    19 C    0.971
   143   1 H    0.998 --    20 C    0.971
   144   1 H    0.998 --    21 C    0.971
   145   1 H    0.999 --    22 C    0.974
   146   1 H    0.998 --    22 C    0.978
   147   1 H    0.996 --    23 C    0.961
   148   1 H    0.997 --    25 C    0.952
   149   1 H    0.998 --    29 C    0.970
   150   1 H    0.998 --    30 C    0.969
   151   1 H    0.997 --    31 C    0.966
   152   1 H    0.995 --    34 C    0.965
   153   1 H    0.997 --    34 C    0.976
   154   1 H    0.997 --    35 C    0.986
   155   1 H    0.997 --    35 C    0.979
   156   1 H    0.997 --    35 C    0.986
   157   1 H    0.998 --    36 C    0.967
   158   1 H    0.997 --    41 C    0.966
   159   1 H    0.997 --    42 C    0.968
   160   1 H    0.997 --    43 C    0.968
   161   1 H    0.996 --    46 C    0.969
   162   1 H    0.998 --    46 C    0.970
   163   1 H    0.997 --    47 C    0.978
   164   1 H    0.997 --    47 C    0.986
   165   1 H    0.998 --    47 C    0.984
   166   1 H    0.998 --    48 C    0.959
   167   1 H    0.996 --    51 C    0.955
   168   1 H    0.997 --    55 C    0.956
   169   1 H    0.998 --    59 C    0.969
   170   1 H    0.997 --    60 C    0.968
   171   1 H    0.997 --    61 C    0.963
   172   1 H    0.996 --    64 C    0.969
   173   1 H    0.997 --    64 C    0.970
   174   1 H    0.997 --    65 C    0.986
   175   1 H    0.998 --    65 C    0.983
   176   1 H    0.997 --    65 C    0.979
   177   1 H    0.998 --    66 C    0.964
   178   1 H    0.997 --    71 C    0.965
   179   1 H    0.997 --    72 C    0.968
   180   1 H    0.997 --    73 C    0.968
   181   1 H    0.997 --    76 C    0.971
   182   1 H    0.998 --    76 C    0.968
   183   1 H    0.998 --    77 C    0.983
   184   1 H    0.998 --    77 C    0.979
   185   1 H    0.997 --    77 C    0.986
   186   1 H    0.998 --    78 C    0.960
   187   1 H    0.997 --    81 C    0.955
   188   1 H    0.997 --    85 C    0.953
   189   1 H    0.997 --    89 C    0.967
   190   1 H    0.997 --    90 C    0.969
   191   1 H    0.998 --    91 C    0.963
   192   1 H    0.996 --    94 C    0.968
   193   1 H    0.997 --    94 C    0.967
   194   1 H    0.998 --    95 C    0.979
   195   1 H    0.998 --    95 C    0.984
   196   1 H    0.998 --    95 C    0.986
   197   1 H    0.998 --    96 C    0.964
   198   1 H    0.997 --   101 C    0.966
   199   1 H    0.997 --   102 C    0.968
   200   1 H    0.998 --   103 C    0.966
   201   1 H    0.998 --   106 C    0.971
   202   1 H    0.996 --   106 C    0.972
   203   1 H    0.998 --   107 C    0.979
   204   1 H    0.998 --   107 C    0.987
   205   1 H    0.997 --   107 C    0.981
   206   1 H    0.997 --   108 C    0.966
   207   1 H    0.990 --   111 C    0.938
   208   1 H    0.993 --   114 C    0.944
   209   1 H    0.996 --   119 C    0.963
   210   1 H    0.996 --   122 C    0.958
   211   1 H    0.996 --   130 C    0.961
   212   1 H    0.998 --   131 C    0.971
   213   1 H    0.998 --   132 C    0.971
   214   1 H    0.998 --   133 C    0.971
   215   1 H    0.998 --   134 C    0.971
   216   1 H    0.999 --   135 C    0.974
   217   1 H    0.998 --   135 C    0.978
   218   1 H    0.996 --   136 C    0.961
 ---------------------------------------------------------------------------

Topologies differ in bond orders
Writing corrected topology to xtbtopo.mol

molecular dipole:
                 x           y           z       tot (Debye)
 q only:        1.957       2.083       1.772
   full:        2.773       2.898       1.919      11.303
molecular quadrupole (traceless):
                xx          xy          yy          xz          yz          zz
 q only:      107.584     -49.982    -119.966     -37.226      50.369      12.383
  q+dip:      118.167     -45.260    -126.586     -52.199      46.055       8.419
   full:      115.235     -40.658    -139.121     -48.608      43.956      23.886


           -------------------------------------------------
          | TOTAL ENERGY             -353.280759487530 Eh   |
          | GRADIENT NORM               0.019719272410 Eh/α |
          | HOMO-LUMO GAP               0.698353662360 eV   |
           -------------------------------------------------

------------------------------------------------------------------------
 * finished run on 2022/02/04 at 20:28:26.168     
------------------------------------------------------------------------
 total:
 * wall-time:     0 d,  0 h,  0 min,  0.897 sec
 *  cpu-time:     0 d,  0 h,  0 min,  7.071 sec
 * ratio c/w:     7.879 speedup
 SCF:
 * wall-time:     0 d,  0 h,  0 min,  0.794 sec
 *  cpu-time:     0 d,  0 h,  0 min,  6.331 sec
 * ratio c/w:     7.975 speedup

