      -----------------------------------------------------------      
     |                   =====================                   |     
     |                           x T B                           |     
     |                   =====================                   |     
     |                         S. Grimme                         |     
     |          Mulliken Center for Theoretical Chemistry        |     
     |                    University of Bonn                     |     
      -----------------------------------------------------------      

   * xtb version 6.4.1 (unknown) compiled by 'oda6@login1.crc.pitt.edu' on 2021-06-25

   xtb is free software: you can redistribute it and/or modify it under
   the terms of the GNU Lesser General Public License as published by
   the Free Software Foundation, either version 3 of the License, or
   (at your option) any later version.
   
   xtb is distributed in the hope that it will be useful,
   but WITHOUT ANY WARRANTY; without even the implied warranty of
   MERCHANTABILITY or FITNESS FOR A PARTICULAR PURPOSE.  See the
   GNU Lesser General Public License for more details.
   
   Cite this work as:
   * C. Bannwarth, E. Caldeweyher, S. Ehlert, A. Hansen, P. Pracht,
     J. Seibert, S. Spicher, S. Grimme, WIREs Comput. Mol. Sci., 2020, 11,
     e01493. DOI: 10.1002/wcms.1493
   
   for GFN2-xTB:
   * C. Bannwarth, S. Ehlert and S. Grimme., J. Chem. Theory Comput., 2019,
     15, 1652-1671. DOI: 10.1021/acs.jctc.8b01176
   for GFN1-xTB:
   * S. Grimme, C. Bannwarth, P. Shushkov, J. Chem. Theory Comput., 2017,
     13, 1989-2009. DOI: 10.1021/acs.jctc.7b00118
   for GFN0-xTB:
   * P. Pracht, E. Caldeweyher, S. Ehlert, S. Grimme, ChemRxiv, 2019, preprint.
     DOI: 10.26434/chemrxiv.8326202.v1
   for GFN-FF:
   * S. Spicher and S. Grimme, Angew. Chem. Int. Ed., 2020, 59, 15665-15673.
     DOI: 10.1002/anie.202004239
   
   for DFT-D4:
   * E. Caldeweyher, C. Bannwarth and S. Grimme, J. Chem. Phys., 2017,
     147, 034112. DOI: 10.1063/1.4993215
   * E. Caldeweyher, S. Ehlert, A. Hansen, H. Neugebauer, S. Spicher,
     C. Bannwarth and S. Grimme, J. Chem. Phys., 2019, 150, 154122.
     DOI: 10.1063/1.5090222
   * E. Caldeweyher, J.-M. Mewes, S. Ehlert and S. Grimme, Phys. Chem. Chem. Phys.
     2020, 22, 8499-8512. DOI: 10.1039/D0CP00502A
   
   for sTDA-xTB:
   * S. Grimme and C. Bannwarth, J. Chem. Phys., 2016, 145, 054103.
     DOI: 10.1063/1.4959605
   
   in the mass-spec context:
   * V. Asgeirsson, C. Bauer and S. Grimme, Chem. Sci., 2017, 8, 4879.
     DOI: 10.1039/c7sc00601b
   * J. Koopman and S. Grimme, ACS Omega 2019, 4, 12, 15120-15133.
     DOI: 10.1021/acsomega.9b02011
   
   for metadynamics refer to:
   * S. Grimme, J. Chem. Theory Comput., 2019, 155, 2847-2862
     DOI: 10.1021/acs.jctc.9b00143
   
   for SPH calculations refer to:
   * S. Spicher and S. Grimme, J. Chem. Theory Comput., 2021, 17, 1701-1714
     DOI: 10.1021/acs.jctc.0c01306
   
   with help from (in alphabetical order)
   P. Atkinson, C. Bannwarth, F. Bohle, G. Brandenburg, E. Caldeweyher
   M. Checinski, S. Dohm, S. Ehlert, S. Ehrlich, I. Gerasimov, J. Koopman
   C. Lavigne, S. Lehtola, F. März, M. Müller, F. Musil, H. Neugebauer
   J. Pisarek, C. Plett, P. Pracht, J. Seibert, P. Shushkov, S. Spicher
   M. Stahn, M. Steiner, T. Strunk, J. Stückrath, T. Rose, and J. Unsleber
   
 * started run on 2022/02/09 at 14:23:22.897     

           -------------------------------------------------
          |                Calculation Setup                |
           -------------------------------------------------

          program call               : /ihome/ghutchison/oda6/xtb/xtb-641/bin/xtb ../../GFN2_output/51_127_130_130_51.mol --sp --alpb hexane
          hostname                   : smp-n26
          coordinate file            : ../../GFN2_output/51_127_130_130_51.mol
          omp threads                :                     8
          number of atoms            :                   180
          number of electrons        :                   556
          charge                     :                     0
          spin                       :                   0.0
          first test random number   :      0.77713451956233

   ID    Z sym.   atoms
    1    6 C      1-3, 5, 7, 8, 10, 12, 13, 15-18, 20-24, 26-29, 31-37,
                  39-42, 44, 45, 47-50, 52-58, 60-63, 65, 66, 68-71, 73-79,
                  81-84, 86, 87, 89-92, 94-100, 102-105, 107-109, 111
    2    7 N      4, 6, 14, 19, 25, 46, 67, 88, 110, 112
    3    9 F      9, 11
    4   16 S      30, 38, 43, 51, 59, 64, 72, 80, 85, 93, 101, 106
    5    1 H      113-180

           -------------------------------------------------
          |                 G F N 2 - x T B                 |
           -------------------------------------------------

        Reference                      10.1021/acs.jctc.8b01176
      * Hamiltonian:
        H0-scaling (s, p, d)           1.850000    2.230000    2.230000
        zeta-weighting                 0.500000
      * Dispersion:
        s8                             2.700000
        a1                             0.520000
        a2                             5.000000
        s9                             5.000000
      * Repulsion:
        kExp                           1.500000    1.000000
        rExp                           1.000000
      * Coulomb:
        alpha                          2.000000
        third order                    shell-resolved
        anisotropic                    true
        a3                             3.000000
        a5                             4.000000
        cn-shift                       1.200000
        cn-exp                         4.000000
        max-rad                        5.000000

      * Solvation model:               ALPB
        Solvent                        hexane
        Parameter file                 internal GFN2-xTB/ALPB
        Dielectric constant                1.8800E+00
        Reference state                gsolv [1 M gas/solution]
        Free energy shift                  4.8134E-03 Eh       3.0204E+00 kcal/mol
        Temperature                        2.9815E+02 K
        Density                            6.6000E-01 kg/L
        Solvent mass                       8.6180E+01 g/mol
        Interaction kernel             P16
        Born radius scaling (c1)           1.1040E+00
        Born radii integrator          GBOBC
        Born offset                        0.0000E+00 a0       0.0000E+00 AA
        H-bond correction              false
        Ion screening                  false
        Surface tension                    1.0000E-05 Eh       1.5569E+01 dyn/cm
        Grid points                               230 per atom

          ...................................................
          :                      SETUP                      :
          :.................................................:
          :  # basis functions                 588          :
          :  # atomic orbitals                 576          :
          :  # shells                          304          :
          :  # electrons                       556          :
          :  max. iterations                   250          :
          :  Hamiltonian                  GFN2-xTB          :
          :  restarted?                      false          :
          :  GBSA solvation                   true          :
          :  PC potential                    false          :
          :  electronic temp.          300.0000000     K    :
          :  accuracy                    1.0000000          :
          :  -> integral cutoff          0.2500000E+02      :
          :  -> integral neglect         0.1000000E-07      :
          :  -> SCF convergence          0.1000000E-05 Eh   :
          :  -> wf. convergence          0.1000000E-03 e    :
          :  Broyden damping             0.4000000          :
          ...................................................

 iter      E             dE          RMSdq      gap      omega  full diag
   1   -305.2871555 -0.305287E+03  0.481E+00    1.02       0.0  T
   2   -305.4629133 -0.175758E+00  0.280E+00    0.95       1.0  T
   3   -305.2764884  0.186425E+00  0.140E+00    0.40       1.0  T
   4   -305.5194344 -0.242946E+00  0.499E-01    0.39       1.0  T
   5   -305.5369819 -0.175474E-01  0.193E-01    0.37       1.0  T
   6   -305.5380092 -0.102734E-02  0.842E-02    0.40       1.0  T
   7   -305.5386579 -0.648732E-03  0.333E-02    0.40       1.0  T
   8   -305.5387059 -0.479951E-04  0.198E-02    0.40       1.0  T
   9   -305.5387298 -0.238339E-04  0.913E-03    0.40       1.0  T
  10   -305.5387321 -0.234453E-05  0.437E-03    0.40       1.7  T
  11   -305.5387336 -0.147506E-05  0.193E-03    0.40       3.9  T
  12   -305.5387337 -0.900204E-07  0.967E-04    0.40       7.7  T
  13   -305.5387337 -0.358596E-07  0.456E-04    0.40      16.4  T

   *** convergence criteria satisfied after 13 iterations ***

         #    Occupation            Energy/Eh            Energy/eV
      -------------------------------------------------------------
         1        2.0000           -0.8557895             -23.2872
       ...           ...                  ...                  ...
       272        2.0000           -0.3773392             -10.2679
       273        2.0000           -0.3737893             -10.1713
       274        2.0000           -0.3665282              -9.9737
       275        2.0000           -0.3641726              -9.9096
       276        2.0000           -0.3636059              -9.8942
       277        2.0000           -0.3569401              -9.7128
       278        1.9991           -0.3501864              -9.5291 (HOMO)
       279        0.0009           -0.3355157              -9.1298 (LUMO)
       280                         -0.3236720              -8.8076
       281                         -0.3014981              -8.2042
       282                         -0.2883835              -7.8473
       283                         -0.2734639              -7.4413
       ...                                ...                  ...
       576                          1.1652614              31.7084
      -------------------------------------------------------------
                  HL-Gap            0.0146707 Eh            0.3992 eV
             Fermi-level           -0.3428507 Eh           -9.3294 eV

 SCC (total)                   0 d,  0 h,  0 min,  0.629 sec
 SCC setup                      ...        0 min,  0.007 sec (  1.134%)
 Dispersion                     ...        0 min,  0.011 sec (  1.691%)
 classical contributions        ...        0 min,  0.000 sec (  0.057%)
 integral evaluation            ...        0 min,  0.034 sec (  5.427%)
 iterations                     ...        0 min,  0.460 sec ( 73.153%)
 molecular gradient             ...        0 min,  0.114 sec ( 18.076%)
 printout                       ...        0 min,  0.003 sec (  0.446%)

         :::::::::::::::::::::::::::::::::::::::::::::::::::::
         ::                     SUMMARY                     ::
         :::::::::::::::::::::::::::::::::::::::::::::::::::::
         :: total energy            -300.803371120188 Eh    ::
         :: total w/o Gsasa/hb      -300.705729276370 Eh    ::
         :: gradient norm              0.014448933557 Eh/a0 ::
         :: HOMO-LUMO gap              0.399209477373 eV    ::
         ::.................................................::
         :: SCC energy              -305.538733709576 Eh    ::
         :: -> isotropic ES            0.117132961413 Eh    ::
         :: -> anisotropic ES          0.020110696997 Eh    ::
         :: -> anisotropic XC          0.203243008301 Eh    ::
         :: -> dispersion             -0.336230069322 Eh    ::
         :: -> Gsolv                  -0.118832193947 Eh    ::
         ::    -> Gelec               -0.021190350129 Eh    ::
         ::    -> Gsasa               -0.102455199638 Eh    ::
         ::    -> Ghb                  0.000000000000 Eh    ::
         ::    -> Gshift               0.004813355820 Eh    ::
         :: repulsion energy           4.718359179698 Eh    ::
         :: add. restraining           0.000000000000 Eh    ::
         :: total charge              -0.000000000000 e     ::
         :::::::::::::::::::::::::::::::::::::::::::::::::::::

           -------------------------------------------------
          |                Property Printout                |
           -------------------------------------------------

    * Orbital Energies and Occupations

         #    Occupation            Energy/Eh            Energy/eV
      -------------------------------------------------------------
         1        2.0000           -0.8557895             -23.2872
       ...           ...                  ...                  ...
       266        2.0000           -0.3929169             -10.6918
       267        2.0000           -0.3921147             -10.6700
       268        2.0000           -0.3888037             -10.5799
       269        2.0000           -0.3855940             -10.4925
       270        2.0000           -0.3809911             -10.3673
       271        2.0000           -0.3795305             -10.3276
       272        2.0000           -0.3773392             -10.2679
       273        2.0000           -0.3737893             -10.1713
       274        2.0000           -0.3665282              -9.9737
       275        2.0000           -0.3641726              -9.9096
       276        2.0000           -0.3636059              -9.8942
       277        2.0000           -0.3569401              -9.7128
       278        1.9991           -0.3501864              -9.5291 (HOMO)
       279        0.0009           -0.3355157              -9.1298 (LUMO)
       280                         -0.3236720              -8.8076
       281                         -0.3014981              -8.2042
       282                         -0.2883835              -7.8473
       283                         -0.2734639              -7.4413
       284                         -0.2719257              -7.3995
       285                         -0.2575400              -7.0080
       286                         -0.2565769              -6.9818
       287                         -0.2546781              -6.9301
       288                         -0.2524658              -6.8699
       289                         -0.2513673              -6.8401
       ...                                ...                  ...
       576                          1.1652614              31.7084
      -------------------------------------------------------------
                  HL-Gap            0.0146707 Eh            0.3992 eV
             Fermi-level           -0.3428507 Eh           -9.3294 eV

     #   Z          covCN         q      C6AA      α(0)
     1   6 C        2.919     0.013    27.715     8.633
     2   6 C        2.946     0.034    27.237     8.560
     3   6 C        1.923     0.145    27.568     8.479
     4   7 N        0.911    -0.261    26.777     7.484
     5   6 C        1.931     0.132    27.859     8.524
     6   7 N        0.911    -0.244    26.367     7.426
     7   6 C        2.967    -0.016    28.406     8.742
     8   6 C        2.783     0.152    24.685     8.138
     9   9 F        0.787    -0.215    11.390     3.987
    10   6 C        2.779     0.141    24.906     8.174
    11   9 F        0.787    -0.219    11.434     3.994
    12   6 C        3.015    -0.009    28.214     8.713
    13   6 C        2.972     0.068    26.466     8.439
    14   7 N        2.148    -0.199    25.892     7.550
    15   6 C        2.937     0.098    25.818     8.333
    16   6 C        3.810    -0.065    21.746     6.638
    17   6 C        3.754    -0.101    22.484     6.761
    18   6 C        2.939     0.103    25.725     8.318
    19   7 N        1.851    -0.239    27.099     7.715
    20   6 C        2.960     0.077    26.288     8.410
    21   6 C        3.809    -0.064    21.723     6.635
    22   6 C        3.753    -0.110    22.654     6.787
    23   6 C        3.000     0.007    27.858     8.658
    24   6 C        3.051     0.057    26.675     8.471
    25   7 N        2.748    -0.044    22.088     6.980
    26   6 C        2.921     0.059    26.668     8.469
    27   6 C        2.924    -0.040    29.006     8.832
    28   6 C        2.944    -0.041    29.028     8.837
    29   6 C        2.966     0.046    26.963     8.517
    30  16 S        2.033    -0.179   148.644    20.520
    31   6 C        3.744    -0.051    21.570     6.625
    32   6 C        2.982    -0.043    29.051     8.841
    33   6 C        2.922    -0.050    29.249     8.869
    34   6 C        2.933     0.062    26.606     8.459
    35   6 C        2.924    -0.037    28.930     8.821
    36   6 C        2.981    -0.035    28.864     8.813
    37   6 C        2.966     0.048    26.911     8.509
    38  16 S        2.032    -0.188   149.027    20.546
    39   6 C        3.745    -0.051    21.557     6.623
    40   6 C        2.944    -0.044    29.088     8.846
    41   6 C        2.922    -0.044    29.081     8.843
    42   6 C        3.168     0.002    27.623     8.587
    43  16 S        2.259    -0.066   143.806    20.183
    44   6 C        3.026    -0.004    28.100     8.695
    45   6 C        3.062     0.053    26.745     8.481
    46   7 N        2.748    -0.068    22.555     7.054
    47   6 C        2.926     0.056    26.737     8.480
    48   6 C        2.922    -0.048    29.181     8.859
    49   6 C        2.980    -0.040    28.980     8.830
    50   6 C        2.966     0.045    26.984     8.520
    51  16 S        2.030    -0.189   149.071    20.549
    52   6 C        3.744    -0.047    21.492     6.613
    53   6 C        2.944    -0.044    29.091     8.846
    54   6 C        2.925    -0.047    29.168     8.857
    55   6 C        2.923     0.062    26.610     8.459
    56   6 C        2.924    -0.048    29.204     8.862
    57   6 C        2.947    -0.038    28.953     8.825
    58   6 C        2.966     0.047    26.944     8.514
    59  16 S        2.026    -0.206   149.824    20.601
    60   6 C        3.744    -0.048    21.511     6.616
    61   6 C        2.974    -0.035    28.869     8.813
    62   6 C        2.927    -0.045    29.122     8.850
    63   6 C        3.172    -0.006    27.790     8.611
    64  16 S        2.544    -0.047   142.980    20.125
    65   6 C        3.032     0.013    27.692     8.632
    66   6 C        3.069     0.053    26.742     8.479
    67   7 N        2.747    -0.094    23.075     7.134
    68   6 C        2.917     0.061    26.626     8.462
    69   6 C        2.924    -0.049    29.218     8.864
    70   6 C        2.943    -0.043    29.060     8.841
    71   6 C        2.965     0.043    27.034     8.528
    72  16 S        2.034    -0.202   149.668    20.591
    73   6 C        3.745    -0.047    21.482     6.612
    74   6 C        2.985    -0.040    28.977     8.830
    75   6 C        2.923    -0.049    29.219     8.864
    76   6 C        2.925     0.060    26.653     8.466
    77   6 C        2.922    -0.048    29.193     8.860
    78   6 C        2.982    -0.039    28.958     8.827
    79   6 C        2.965     0.045    26.999     8.523
    80  16 S        2.031    -0.197   149.447    20.575
    81   6 C        3.745    -0.049    21.533     6.619
    82   6 C        2.942    -0.046    29.132     8.852
    83   6 C        2.925    -0.056    29.379     8.889
    84   6 C        3.174     0.008    27.439     8.555
    85  16 S        2.243    -0.023   142.012    20.057
    86   6 C        2.991     0.001    27.986     8.678
    87   6 C        3.053     0.058    26.648     8.466
    88   7 N        2.748    -0.055    22.308     7.015
    89   6 C        2.934     0.058    26.706     8.475
    90   6 C        2.920    -0.044    29.096     8.846
    91   6 C        2.981    -0.038    28.943     8.825
    92   6 C        2.966     0.050    26.884     8.505
    93  16 S        2.032    -0.177   148.545    20.513
    94   6 C        3.744    -0.050    21.538     6.620
    95   6 C        2.945    -0.041    29.028     8.837
    96   6 C        2.926    -0.045    29.110     8.848
    97   6 C        2.920     0.055    26.772     8.485
    98   6 C        2.923    -0.047    29.157     8.855
    99   6 C        2.943    -0.043    29.060     8.841
   100   6 C        2.965     0.048    26.920     8.510
   101  16 S        2.036    -0.173   148.393    20.503
   102   6 C        3.744    -0.052    21.577     6.626
   103   6 C        2.985    -0.039    28.962     8.828
   104   6 C        2.921    -0.046    29.141     8.853
   105   6 C        3.175     0.001    27.614     8.582
   106  16 S        2.262    -0.042   142.773    20.111
   107   6 C        2.940    -0.007    28.201     8.710
   108   6 C        2.946     0.009    27.828     8.652
   109   6 C        1.930     0.126    28.000     8.545
   110   7 N        0.911    -0.266    26.876     7.498
   111   6 C        1.925     0.130    27.913     8.532
   112   7 N        0.911    -0.263    26.819     7.490
   113   1 H        0.925     0.078     1.995     2.209
   114   1 H        0.924     0.069     2.092     2.262
   115   1 H        0.925     0.063     2.162     2.299
   116   1 H        0.925     0.040     2.452     2.449
   117   1 H        0.925     0.050     2.318     2.381
   118   1 H        0.925     0.049     2.328     2.386
   119   1 H        0.924     0.057     2.237     2.339
   120   1 H        0.924     0.063     2.160     2.298
   121   1 H        0.925     0.051     2.309     2.376
   122   1 H        0.925     0.042     2.420     2.433
   123   1 H        0.925     0.069     2.093     2.263
   124   1 H        0.926     0.050     2.321     2.383
   125   1 H        0.926     0.052     2.297     2.370
   126   1 H        0.925     0.062     2.179     2.308
   127   1 H        0.925     0.067     2.118     2.276
   128   1 H        0.925     0.071     2.070     2.250
   129   1 H        0.926     0.047     2.353     2.399
   130   1 H        0.926     0.037     2.484     2.465
   131   1 H        0.926     0.048     2.348     2.396
   132   1 H        0.926     0.054     2.271     2.356
   133   1 H        0.925     0.063     2.159     2.298
   134   1 H        0.925     0.058     2.220     2.330
   135   1 H        0.925     0.070     2.085     2.258
   136   1 H        0.926     0.047     2.352     2.398
   137   1 H        0.926     0.046     2.370     2.408
   138   1 H        0.926     0.055     2.264     2.353
   139   1 H        0.926     0.050     2.324     2.384
   140   1 H        0.925     0.065     2.144     2.290
   141   1 H        0.925     0.060     2.193     2.316
   142   1 H        0.925     0.060     2.193     2.316
   143   1 H        0.926     0.047     2.358     2.402
   144   1 H        0.926     0.037     2.493     2.469
   145   1 H        0.926     0.042     2.427     2.436
   146   1 H        0.926     0.046     2.364     2.404
   147   1 H        0.925     0.055     2.255     2.349
   148   1 H        0.925     0.069     2.099     2.266
   149   1 H        0.925     0.065     2.144     2.290
   150   1 H        0.926     0.043     2.403     2.424
   151   1 H        0.926     0.040     2.454     2.450
   152   1 H        0.926     0.040     2.454     2.449
   153   1 H        0.926     0.046     2.376     2.411
   154   1 H        0.925     0.069     2.096     2.264
   155   1 H        0.925     0.067     2.124     2.279
   156   1 H        0.925     0.059     2.206     2.322
   157   1 H        0.926     0.044     2.398     2.422
   158   1 H        0.926     0.036     2.509     2.477
   159   1 H        0.926     0.044     2.393     2.419
   160   1 H        0.926     0.048     2.339     2.392
   161   1 H        0.925     0.065     2.145     2.291
   162   1 H        0.925     0.068     2.109     2.271
   163   1 H        0.925     0.061     2.185     2.312
   164   1 H        0.926     0.046     2.368     2.406
   165   1 H        0.926     0.027     2.629     2.536
   166   1 H        0.926     0.047     2.360     2.402
   167   1 H        0.926     0.053     2.283     2.363
   168   1 H        0.925     0.065     2.147     2.291
   169   1 H        0.925     0.067     2.118     2.276
   170   1 H        0.925     0.060     2.197     2.318
   171   1 H        0.926     0.050     2.323     2.383
   172   1 H        0.926     0.040     2.455     2.450
   173   1 H        0.926     0.044     2.401     2.423
   174   1 H        0.926     0.052     2.300     2.372
   175   1 H        0.925     0.071     2.075     2.253
   176   1 H        0.925     0.065     2.142     2.289
   177   1 H        0.925     0.063     2.160     2.298
   178   1 H        0.926     0.053     2.286     2.364
   179   1 H        0.926     0.046     2.371     2.408
   180   1 H        0.925     0.064     2.150     2.293

 Mol. C6AA /au·bohr⁶  :     578851.858890
 Mol. C8AA /au·bohr⁸  :   16732844.541828
 Mol. α(0) /au        :       1223.834436


Wiberg/Mayer (AO) data.
largest (>0.10) Wiberg bond orders for each atom

 ---------------------------------------------------------------------------
     #   Z sym  total        # sym  WBO       # sym  WBO       # sym  WBO
 ---------------------------------------------------------------------------
     1   6 C    3.970 --     2 C    1.593     7 C    1.162   113 H    0.955
     2   6 C    3.952 --     1 C    1.593     3 C    1.088     5 C    1.084
     3   6 C    3.944 --     4 N    2.758     2 C    1.088
     4   7 N    2.993 --     3 C    2.758
     5   6 C    3.944 --     6 N    2.788     2 C    1.084
     6   7 N    2.974 --     5 C    2.788
     7   6 C    3.930 --     8 C    1.352    20 C    1.190     1 C    1.162
     8   6 C    3.866 --     7 C    1.352    10 C    1.338     9 F    0.965
     9   9 F    1.093 --     8 C    0.965
    10   6 C    3.861 --     8 C    1.338    12 C    1.326    11 F    0.958
    11   9 F    1.088 --    10 C    0.958
    12   6 C    3.963 --    10 C    1.326    23 C    1.208    13 C    1.180
    13   6 C    3.976 --    14 N    1.318    20 C    1.236    12 C    1.180
    14   7 N    3.224 --    15 C    1.484    13 C    1.318    64 S    0.172
    15   6 C    3.940 --    14 N    1.484    18 C    1.221    16 C    1.016
    16   6 C    3.989 --    15 C    1.016    17 C    0.992   115 H    0.969
                           114 H    0.958
    17   6 C    3.990 --    16 C    0.992   116 H    0.988   118 H    0.985
                           117 H    0.984
    18   6 C    3.951 --    19 N    1.498    15 C    1.221    21 C    1.017
    19   7 N    3.089 --    18 C    1.498    20 C    1.313
    20   6 C    3.975 --    19 N    1.313    13 C    1.236     7 C    1.190
    21   6 C    3.989 --    18 C    1.017    22 C    0.987   120 H    0.970
                           119 H    0.964
    22   6 C    3.982 --    21 C    0.987   122 H    0.984   121 H    0.983
                           123 H    0.973
    23   6 C    3.920 --    24 C    1.353    12 C    1.208    64 S    1.088
    24   6 C    3.924 --    23 C    1.353    42 C    1.223    25 N    1.124
    25   7 N    3.510 --    24 C    1.124    26 C    1.053    34 C    1.044
    26   6 C    3.961 --    27 C    1.363    33 C    1.352    25 N    1.053
    27   6 C    3.981 --    28 C    1.460    26 C    1.363   124 H    0.965
    28   6 C    3.988 --    27 C    1.460    29 C    1.381   125 H    0.964
    29   6 C    3.956 --    28 C    1.381    32 C    1.368    30 S    1.053
    30  16 S    2.254 --    29 C    1.053    31 C    1.007
    31   6 C    3.971 --    30 S    1.007   126 H    0.981   127 H    0.980
                           128 H    0.977
    32   6 C    3.989 --    33 C    1.476    29 C    1.368   129 H    0.967
    33   6 C    3.984 --    32 C    1.476    26 C    1.352   130 H    0.966
    34   6 C    3.960 --    41 C    1.370    35 C    1.348    25 N    1.044
    35   6 C    3.982 --    36 C    1.473    34 C    1.348   131 H    0.966
    36   6 C    3.988 --    35 C    1.473    37 C    1.370   132 H    0.965
                            41 C    0.100
    37   6 C    3.948 --    40 C    1.386    36 C    1.370    38 S    1.045
    38  16 S    2.244 --    37 C    1.045    39 C    1.006
    39   6 C    3.972 --    38 S    1.006   133 H    0.981   134 H    0.981
                           135 H    0.978
    40   6 C    3.988 --    41 C    1.454    37 C    1.386   136 H    0.964
    41   6 C    3.976 --    40 C    1.454    34 C    1.370   137 H    0.966
                            36 C    0.100
    42   6 C    3.936 --    63 C    1.386    24 C    1.223    43 S    1.102
    43  16 S    2.547 --    42 C    1.102    44 C    1.090
    44   6 C    3.892 --    45 C    1.453    43 S    1.090    65 C    1.088
    45   6 C    3.959 --    44 C    1.453    63 C    1.204    46 N    1.087
    46   7 N    3.500 --    45 C    1.087    55 C    1.068    47 C    1.039
    47   6 C    3.962 --    54 C    1.377    48 C    1.355    46 N    1.039
    48   6 C    3.986 --    49 C    1.476    47 C    1.355   138 H    0.958
    49   6 C    3.989 --    48 C    1.476    50 C    1.367   139 H    0.967
                            54 C    0.101
    50   6 C    3.957 --    53 C    1.391    49 C    1.367    51 S    1.044
    51  16 S    2.244 --    50 C    1.044    52 C    1.008
    52   6 C    3.974 --    51 S    1.008   142 H    0.982   141 H    0.978
                           140 H    0.978
    53   6 C    3.988 --    54 C    1.445    50 C    1.391   143 H    0.964
    54   6 C    3.986 --    53 C    1.445    47 C    1.377   144 H    0.966
                            49 C    0.101
    55   6 C    3.962 --    56 C    1.357    62 C    1.347    46 N    1.068
    56   6 C    3.983 --    57 C    1.460    55 C    1.357   145 H    0.965
    57   6 C    3.988 --    56 C    1.460    58 C    1.383   146 H    0.966
    58   6 C    3.950 --    57 C    1.383    61 C    1.381    59 S    1.032
    59  16 S    2.208 --    58 C    1.032    60 C    1.003
    60   6 C    3.972 --    59 S    1.003   147 H    0.983   148 H    0.980
                           149 H    0.979
    61   6 C    3.989 --    62 C    1.462    58 C    1.381   150 H    0.967
    62   6 C    3.985 --    61 C    1.462    55 C    1.347   151 H    0.962
    63   6 C    3.938 --    42 C    1.386    45 C    1.204    64 S    1.105
    64  16 S    2.715 --    63 C    1.105    23 C    1.088    14 N    0.172
    65   6 C    3.914 --    66 C    1.503   106 S    1.107    44 C    1.088
    66   6 C    3.961 --    65 C    1.503    84 C    1.223    67 N    1.010
    67   7 N    3.426 --    68 C    1.065    76 C    1.059    66 C    1.010
    68   6 C    3.964 --    69 C    1.359    75 C    1.354    67 N    1.065
    69   6 C    3.985 --    70 C    1.454    68 C    1.359   152 H    0.966
                            74 C    0.102
    70   6 C    3.988 --    69 C    1.454    71 C    1.383   153 H    0.964
    71   6 C    3.954 --    70 C    1.383    74 C    1.374    72 S    1.040
    72  16 S    2.239 --    71 C    1.040    73 C    1.009
    73   6 C    3.971 --    72 S    1.009   156 H    0.981   155 H    0.978
                           154 H    0.977
    74   6 C    3.990 --    75 C    1.465    71 C    1.374   157 H    0.966
                            69 C    0.102
    75   6 C    3.984 --    74 C    1.465    68 C    1.354   158 H    0.964
    76   6 C    3.962 --    83 C    1.368    77 C    1.342    67 N    1.059
    77   6 C    3.986 --    78 C    1.482    76 C    1.342   159 H    0.965
    78   6 C    3.988 --    77 C    1.482    79 C    1.363   160 H    0.967
                            83 C    0.100
    79   6 C    3.954 --    82 C    1.393    78 C    1.363    80 S    1.042
    80  16 S    2.240 --    79 C    1.042    81 C    1.009
    81   6 C    3.973 --    80 S    1.009   163 H    0.981   161 H    0.978
                           162 H    0.977
    82   6 C    3.989 --    83 C    1.445    79 C    1.393   164 H    0.963
    83   6 C    3.983 --    82 C    1.445    76 C    1.368   165 H    0.963
                            78 C    0.100
    84   6 C    3.941 --   105 C    1.361    66 C    1.223    85 S    1.132
    85  16 S    2.553 --    84 C    1.132    86 C    1.078
    86   6 C    3.928 --    87 C    1.331   107 C    1.281    85 S    1.078
    87   6 C    3.949 --    86 C    1.331   105 C    1.242    88 N    1.120
    88   7 N    3.507 --    87 C    1.120    89 C    1.044    97 C    1.043
    89   6 C    3.960 --    96 C    1.362    90 C    1.355    88 N    1.044
    90   6 C    3.977 --    91 C    1.475    89 C    1.355   166 H    0.963
    91   6 C    3.988 --    90 C    1.475    92 C    1.367   167 H    0.967
                            96 C    0.100
    92   6 C    3.950 --    95 C    1.383    91 C    1.367    93 S    1.053
    93  16 S    2.248 --    92 C    1.053    94 C    1.007
    94   6 C    3.974 --    93 S    1.007   170 H    0.981   168 H    0.981
                           169 H    0.978
    95   6 C    3.988 --    96 C    1.457    92 C    1.383   171 H    0.964
    96   6 C    3.982 --    95 C    1.457    89 C    1.362   172 H    0.966
                            91 C    0.100
    97   6 C    3.959 --    98 C    1.366   104 C    1.352    88 N    1.043
    98   6 C    3.984 --    99 C    1.456    97 C    1.366   173 H    0.965
                           103 C    0.101
    99   6 C    3.988 --    98 C    1.456   100 C    1.382   174 H    0.964
   100   6 C    3.952 --    99 C    1.382   103 C    1.365   101 S    1.058
   101  16 S    2.263 --   100 C    1.058   102 C    1.009
   102   6 C    3.972 --   101 S    1.009   176 H    0.981   177 H    0.981
                           175 H    0.977
   103   6 C    3.989 --   104 C    1.477   100 C    1.365   178 H    0.967
                            98 C    0.101
   104   6 C    3.983 --   103 C    1.477    97 C    1.352   179 H    0.966
   105   6 C    3.939 --    84 C    1.361    87 C    1.242   106 S    1.109
   106  16 S    2.572 --   105 C    1.109    65 C    1.107
   107   6 C    3.975 --   108 C    1.501    86 C    1.281   180 H    0.950
   108   6 C    3.944 --   107 C    1.501   111 C    1.106   109 C    1.098
   109   6 C    3.944 --   110 N    2.769   108 C    1.098
   110   7 N    2.955 --   109 C    2.769
   111   6 C    3.944 --   112 N    2.754   108 C    1.106
   112   7 N    2.977 --   111 C    2.754
   113   1 H    0.992 --     1 C    0.955
   114   1 H    0.994 --    16 C    0.958
   115   1 H    0.995 --    16 C    0.969
   116   1 H    0.998 --    17 C    0.988
   117   1 H    0.996 --    17 C    0.984
   118   1 H    0.997 --    17 C    0.985
   119   1 H    0.994 --    21 C    0.964
   120   1 H    0.995 --    21 C    0.970
   121   1 H    0.996 --    22 C    0.983
   122   1 H    0.998 --    22 C    0.984
   123   1 H    0.995 --    22 C    0.973
   124   1 H    0.997 --    27 C    0.965
   125   1 H    0.997 --    28 C    0.964
   126   1 H    0.995 --    31 C    0.981
   127   1 H    0.995 --    31 C    0.980
   128   1 H    0.994 --    31 C    0.977
   129   1 H    0.997 --    32 C    0.967
   130   1 H    0.998 --    33 C    0.966
   131   1 H    0.997 --    35 C    0.966
   132   1 H    0.996 --    36 C    0.965
   133   1 H    0.996 --    39 C    0.981
   134   1 H    0.996 --    39 C    0.981
   135   1 H    0.995 --    39 C    0.978
   136   1 H    0.997 --    40 C    0.964
   137   1 H    0.998 --    41 C    0.966
   138   1 H    0.997 --    48 C    0.958
   139   1 H    0.997 --    49 C    0.967
   140   1 H    0.995 --    52 C    0.978
   141   1 H    0.996 --    52 C    0.978
   142   1 H    0.996 --    52 C    0.982
   143   1 H    0.997 --    53 C    0.964
   144   1 H    0.999 --    54 C    0.966
   145   1 H    0.998 --    56 C    0.965
   146   1 H    0.997 --    57 C    0.966
   147   1 H    0.997 --    60 C    0.983
   148   1 H    0.995 --    60 C    0.980
   149   1 H    0.995 --    60 C    0.979
   150   1 H    0.998 --    61 C    0.967
   151   1 H    0.998 --    62 C    0.962
   152   1 H    0.998 --    69 C    0.966
   153   1 H    0.997 --    70 C    0.964
   154   1 H    0.995 --    73 C    0.977
   155   1 H    0.995 --    73 C    0.978
   156   1 H    0.996 --    73 C    0.981
   157   1 H    0.998 --    74 C    0.966
   158   1 H    0.998 --    75 C    0.964
   159   1 H    0.998 --    77 C    0.965
   160   1 H    0.997 --    78 C    0.967
   161   1 H    0.995 --    81 C    0.978
   162   1 H    0.995 --    81 C    0.977
   163   1 H    0.996 --    81 C    0.981
   164   1 H    0.997 --    82 C    0.963
   165   1 H    0.999 --    83 C    0.963
   166   1 H    0.997 --    90 C    0.963
   167   1 H    0.997 --    91 C    0.967
   168   1 H    0.996 --    94 C    0.981
   169   1 H    0.995 --    94 C    0.978
   170   1 H    0.996 --    94 C    0.981
   171   1 H    0.997 --    95 C    0.964
   172   1 H    0.998 --    96 C    0.966
   173   1 H    0.998 --    98 C    0.965
   174   1 H    0.997 --    99 C    0.964
   175   1 H    0.995 --   102 C    0.977
   176   1 H    0.996 --   102 C    0.981
   177   1 H    0.995 --   102 C    0.981
   178   1 H    0.997 --   103 C    0.967
   179   1 H    0.997 --   104 C    0.966
   180   1 H    0.995 --   107 C    0.950
 ---------------------------------------------------------------------------

Topologies differ in bond orders
Writing corrected topology to xtbtopo.mol

molecular dipole:
                 x           y           z       tot (Debye)
 q only:        0.387       3.434      -0.249
   full:        0.563       3.882       0.707      10.130
molecular quadrupole (traceless):
                xx          xy          yy          xz          yz          zz
 q only:     -162.880     -21.635      32.093     -28.296      23.585     130.788
  q+dip:     -199.974     -15.992      34.722     -17.199      24.875     165.252
   full:     -201.410     -16.478      35.773     -18.285      23.305     165.637


           -------------------------------------------------
          | TOTAL ENERGY             -300.803371120188 Eh   |
          | GRADIENT NORM               0.014448933557 Eh/α |
          | HOMO-LUMO GAP               0.399209477373 eV   |
           -------------------------------------------------

------------------------------------------------------------------------
 * finished run on 2022/02/09 at 14:23:23.634     
------------------------------------------------------------------------
 total:
 * wall-time:     0 d,  0 h,  0 min,  0.738 sec
 *  cpu-time:     0 d,  0 h,  0 min,  5.766 sec
 * ratio c/w:     7.817 speedup
 SCF:
 * wall-time:     0 d,  0 h,  0 min,  0.632 sec
 *  cpu-time:     0 d,  0 h,  0 min,  5.036 sec
 * ratio c/w:     7.968 speedup

