      -----------------------------------------------------------      
     |                   =====================                   |     
     |                           x T B                           |     
     |                   =====================                   |     
     |                         S. Grimme                         |     
     |          Mulliken Center for Theoretical Chemistry        |     
     |                    University of Bonn                     |     
      -----------------------------------------------------------      

   * xtb version 6.4.1 (unknown) compiled by 'oda6@login1.crc.pitt.edu' on 2021-06-25

   xtb is free software: you can redistribute it and/or modify it under
   the terms of the GNU Lesser General Public License as published by
   the Free Software Foundation, either version 3 of the License, or
   (at your option) any later version.
   
   xtb is distributed in the hope that it will be useful,
   but WITHOUT ANY WARRANTY; without even the implied warranty of
   MERCHANTABILITY or FITNESS FOR A PARTICULAR PURPOSE.  See the
   GNU Lesser General Public License for more details.
   
   Cite this work as:
   * C. Bannwarth, E. Caldeweyher, S. Ehlert, A. Hansen, P. Pracht,
     J. Seibert, S. Spicher, S. Grimme, WIREs Comput. Mol. Sci., 2020, 11,
     e01493. DOI: 10.1002/wcms.1493
   
   for GFN2-xTB:
   * C. Bannwarth, S. Ehlert and S. Grimme., J. Chem. Theory Comput., 2019,
     15, 1652-1671. DOI: 10.1021/acs.jctc.8b01176
   for GFN1-xTB:
   * S. Grimme, C. Bannwarth, P. Shushkov, J. Chem. Theory Comput., 2017,
     13, 1989-2009. DOI: 10.1021/acs.jctc.7b00118
   for GFN0-xTB:
   * P. Pracht, E. Caldeweyher, S. Ehlert, S. Grimme, ChemRxiv, 2019, preprint.
     DOI: 10.26434/chemrxiv.8326202.v1
   for GFN-FF:
   * S. Spicher and S. Grimme, Angew. Chem. Int. Ed., 2020, 59, 15665-15673.
     DOI: 10.1002/anie.202004239
   
   for DFT-D4:
   * E. Caldeweyher, C. Bannwarth and S. Grimme, J. Chem. Phys., 2017,
     147, 034112. DOI: 10.1063/1.4993215
   * E. Caldeweyher, S. Ehlert, A. Hansen, H. Neugebauer, S. Spicher,
     C. Bannwarth and S. Grimme, J. Chem. Phys., 2019, 150, 154122.
     DOI: 10.1063/1.5090222
   * E. Caldeweyher, J.-M. Mewes, S. Ehlert and S. Grimme, Phys. Chem. Chem. Phys.
     2020, 22, 8499-8512. DOI: 10.1039/D0CP00502A
   
   for sTDA-xTB:
   * S. Grimme and C. Bannwarth, J. Chem. Phys., 2016, 145, 054103.
     DOI: 10.1063/1.4959605
   
   in the mass-spec context:
   * V. Asgeirsson, C. Bauer and S. Grimme, Chem. Sci., 2017, 8, 4879.
     DOI: 10.1039/c7sc00601b
   * J. Koopman and S. Grimme, ACS Omega 2019, 4, 12, 15120-15133.
     DOI: 10.1021/acsomega.9b02011
   
   for metadynamics refer to:
   * S. Grimme, J. Chem. Theory Comput., 2019, 155, 2847-2862
     DOI: 10.1021/acs.jctc.9b00143
   
   for SPH calculations refer to:
   * S. Spicher and S. Grimme, J. Chem. Theory Comput., 2021, 17, 1701-1714
     DOI: 10.1021/acs.jctc.0c01306
   
   with help from (in alphabetical order)
   P. Atkinson, C. Bannwarth, F. Bohle, G. Brandenburg, E. Caldeweyher
   M. Checinski, S. Dohm, S. Ehlert, S. Ehrlich, I. Gerasimov, J. Koopman
   C. Lavigne, S. Lehtola, F. März, M. Müller, F. Musil, H. Neugebauer
   J. Pisarek, C. Plett, P. Pracht, J. Seibert, P. Shushkov, S. Spicher
   M. Stahn, M. Steiner, T. Strunk, J. Stückrath, T. Rose, and J. Unsleber
   
 * started run on 2022/02/03 at 22:01:31.594     

           -------------------------------------------------
          |                Calculation Setup                |
           -------------------------------------------------

          program call               : /ihome/ghutchison/oda6/xtb/xtb-641/bin/xtb ../../GFN2_output/62_133_152_133_62.mol --sp --alpb hexane
          hostname                   : smp-n57
          coordinate file            : ../../GFN2_output/62_133_152_133_62.mol
          omp threads                :                     8
          number of atoms            :                    77
          number of electrons        :                   324
          charge                     :                     0
          spin                       :                   0.0
          first test random number   :      0.90799439148024

   ID    Z sym.   atoms
    1    6 C      1-3, 5-9, 11, 13-15, 17, 19-21, 25, 26, 30-35, 39-42, 46,
                  47, 51-54, 56-60, 62, 64-66, 68
    2    8 O      4, 55
    3   35 Br     10, 61
    4   17 Cl     12, 63
    5    7 N      16, 18, 22, 24, 27, 29, 36, 38, 43, 45, 48, 50, 67, 69
    6   16 S      23, 28, 37, 44, 49
    7    1 H      70-77

           -------------------------------------------------
          |                 G F N 2 - x T B                 |
           -------------------------------------------------

        Reference                      10.1021/acs.jctc.8b01176
      * Hamiltonian:
        H0-scaling (s, p, d)           1.850000    2.230000    2.230000
        zeta-weighting                 0.500000
      * Dispersion:
        s8                             2.700000
        a1                             0.520000
        a2                             5.000000
        s9                             5.000000
      * Repulsion:
        kExp                           1.500000    1.000000
        rExp                           1.000000
      * Coulomb:
        alpha                          2.000000
        third order                    shell-resolved
        anisotropic                    true
        a3                             3.000000
        a5                             4.000000
        cn-shift                       1.200000
        cn-exp                         4.000000
        max-rad                        5.000000

      * Solvation model:               ALPB
        Solvent                        hexane
        Parameter file                 internal GFN2-xTB/ALPB
        Dielectric constant                1.8800E+00
        Reference state                gsolv [1 M gas/solution]
        Free energy shift                  4.8134E-03 Eh       3.0204E+00 kcal/mol
        Temperature                        2.9815E+02 K
        Density                            6.6000E-01 kg/L
        Solvent mass                       8.6180E+01 g/mol
        Interaction kernel             P16
        Born radius scaling (c1)           1.1040E+00
        Born radii integrator          GBOBC
        Born offset                        0.0000E+00 a0       0.0000E+00 AA
        H-bond correction              false
        Ion screening                  false
        Surface tension                    1.0000E-05 Eh       1.5569E+01 dyn/cm
        Grid points                               230 per atom

          ...................................................
          :                      SETUP                      :
          :.................................................:
          :  # basis functions                 338          :
          :  # atomic orbitals                 329          :
          :  # shells                          155          :
          :  # electrons                       324          :
          :  max. iterations                   250          :
          :  Hamiltonian                  GFN2-xTB          :
          :  restarted?                      false          :
          :  GBSA solvation                   true          :
          :  PC potential                    false          :
          :  electronic temp.          300.0000000     K    :
          :  accuracy                    1.0000000          :
          :  -> integral cutoff          0.2500000E+02      :
          :  -> integral neglect         0.1000000E-07      :
          :  -> SCF convergence          0.1000000E-05 Eh   :
          :  -> wf. convergence          0.1000000E-03 e    :
          :  Broyden damping             0.4000000          :
          ...................................................

 iter      E             dE          RMSdq      gap      omega  full diag
   1   -182.9870011 -0.182987E+03  0.562E+00    0.89       0.0  T
   2   -183.1988055 -0.211804E+00  0.352E+00    0.76       1.0  T
   3   -183.1615083  0.372972E-01  0.183E+00    0.87       1.0  T
   4   -183.2730664 -0.111558E+00  0.610E-01    0.83       1.0  T
   5   -183.2903375 -0.172711E-01  0.255E-01    0.81       1.0  T
   6   -183.2907569 -0.419426E-03  0.165E-01    0.81       1.0  T
   7   -183.2911222 -0.365292E-03  0.122E-01    0.81       1.0  T
   8   -183.2914451 -0.322865E-03  0.940E-02    0.81       1.0  T
   9   -183.2916308 -0.185739E-03  0.665E-02    0.81       1.0  T
  10   -183.2917623 -0.131462E-03  0.321E-02    0.81       1.0  T
  11   -183.2917907 -0.284293E-04  0.169E-02    0.81       1.0  T
  12   -183.2917980 -0.726852E-05  0.795E-03    0.81       1.4  T
  13   -183.2917992 -0.124596E-05  0.427E-03    0.81       2.7  T
  14   -183.2917995 -0.324158E-06  0.279E-03    0.81       4.1  T
  15   -183.2917996 -0.773672E-07  0.205E-03    0.81       5.6  T
  16   -183.2917997 -0.870354E-07  0.133E-03    0.81       8.6  T
  17   -183.2917998 -0.567278E-07  0.740E-04    0.81      15.4  T
  18   -183.2917998 -0.205254E-07  0.358E-04    0.81      31.9  T

   *** convergence criteria satisfied after 18 iterations ***

         #    Occupation            Energy/Eh            Energy/eV
      -------------------------------------------------------------
         1        2.0000           -1.0804248             -29.3999
       ...           ...                  ...                  ...
       156        2.0000           -0.4203591             -11.4386
       157        2.0000           -0.4176511             -11.3649
       158        2.0000           -0.4174117             -11.3583
       159        2.0000           -0.4157665             -11.3136
       160        2.0000           -0.4141415             -11.2694
       161        2.0000           -0.4017364             -10.9318
       162        2.0000           -0.3903194             -10.6211 (HOMO)
       163        0.0000           -0.3605068              -9.8099 (LUMO)
       164                         -0.3516574              -9.5691
       165                         -0.3380327              -9.1983
       166                         -0.3378733              -9.1940
       167                         -0.3206756              -8.7260
       ...                                ...                  ...
       329                          1.1500973              31.2957
      -------------------------------------------------------------
                  HL-Gap            0.0298126 Eh            0.8112 eV
             Fermi-level           -0.3754131 Eh          -10.2155 eV

 SCC (total)                   0 d,  0 h,  0 min,  0.260 sec
 SCC setup                      ...        0 min,  0.003 sec (  1.092%)
 Dispersion                     ...        0 min,  0.003 sec (  1.254%)
 classical contributions        ...        0 min,  0.000 sec (  0.081%)
 integral evaluation            ...        0 min,  0.015 sec (  5.750%)
 iterations                     ...        0 min,  0.214 sec ( 82.319%)
 molecular gradient             ...        0 min,  0.024 sec (  9.128%)
 printout                       ...        0 min,  0.001 sec (  0.344%)

         :::::::::::::::::::::::::::::::::::::::::::::::::::::
         ::                     SUMMARY                     ::
         :::::::::::::::::::::::::::::::::::::::::::::::::::::
         :: total energy            -180.790785963536 Eh    ::
         :: total w/o Gsasa/hb      -180.728529937694 Eh    ::
         :: gradient norm              0.022037847976 Eh/a0 ::
         :: HOMO-LUMO gap              0.811242061607 eV    ::
         ::.................................................::
         :: SCC energy              -183.291799779870 Eh    ::
         :: -> isotropic ES            0.229997933524 Eh    ::
         :: -> anisotropic ES          0.004488485941 Eh    ::
         :: -> anisotropic XC          0.126597057193 Eh    ::
         :: -> dispersion             -0.151398064493 Eh    ::
         :: -> Gsolv                  -0.096786067718 Eh    ::
         ::    -> Gelec               -0.034530041876 Eh    ::
         ::    -> Gsasa               -0.067069381662 Eh    ::
         ::    -> Ghb                  0.000000000000 Eh    ::
         ::    -> Gshift               0.004813355820 Eh    ::
         :: repulsion energy           2.501334025412 Eh    ::
         :: add. restraining           0.000000000000 Eh    ::
         :: total charge              -0.000000000026 e     ::
         :::::::::::::::::::::::::::::::::::::::::::::::::::::

           -------------------------------------------------
          |                Property Printout                |
           -------------------------------------------------

    * Orbital Energies and Occupations

         #    Occupation            Energy/Eh            Energy/eV
      -------------------------------------------------------------
         1        2.0000           -1.0804248             -29.3999
       ...           ...                  ...                  ...
       150        2.0000           -0.4310197             -11.7286
       151        2.0000           -0.4303604             -11.7107
       152        2.0000           -0.4302756             -11.7084
       153        2.0000           -0.4281389             -11.6503
       154        2.0000           -0.4266728             -11.6104
       155        2.0000           -0.4206916             -11.4476
       156        2.0000           -0.4203591             -11.4386
       157        2.0000           -0.4176511             -11.3649
       158        2.0000           -0.4174117             -11.3583
       159        2.0000           -0.4157665             -11.3136
       160        2.0000           -0.4141415             -11.2694
       161        2.0000           -0.4017364             -10.9318
       162        2.0000           -0.3903194             -10.6211 (HOMO)
       163        0.0000           -0.3605068              -9.8099 (LUMO)
       164                         -0.3516574              -9.5691
       165                         -0.3380327              -9.1983
       166                         -0.3378733              -9.1940
       167                         -0.3206756              -8.7260
       168                         -0.3194756              -8.6934
       169                         -0.3187659              -8.6741
       170                         -0.3027030              -8.2370
       171                         -0.3025114              -8.2318
       172                         -0.2750559              -7.4847
       173                         -0.2743447              -7.4653
       ...                                ...                  ...
       329                          1.1500973              31.2957
      -------------------------------------------------------------
                  HL-Gap            0.0298126 Eh            0.8112 eV
             Fermi-level           -0.3754131 Eh          -10.2155 eV

     #   Z          covCN         q      C6AA      α(0)
     1   6 C        2.902     0.004    27.924     8.664
     2   6 C        3.006    -0.023    28.568     8.768
     3   6 C        2.864     0.248    22.853     7.836
     4   8 O        0.856    -0.402    21.726     6.249
     5   6 C        3.076    -0.025    28.542     8.759
     6   6 C        3.030     0.015    27.645     8.624
     7   6 C        2.914    -0.029    28.722     8.788
     8   6 C        3.003    -0.024    28.598     8.772
     9   6 C        2.945     0.083    26.158     8.388
    10  35 Br       1.145    -0.122   188.404    22.131
    11   6 C        2.948     0.107    25.626     8.303
    12  17 Cl       1.028    -0.108   102.520    15.491
    13   6 C        3.017     0.042    27.046     8.531
    14   6 C        2.947     0.019    27.588     8.615
    15   6 C        1.941     0.133    27.823     8.518
    16   7 N        0.911    -0.251    26.522     7.448
    17   6 C        1.942     0.135    27.795     8.514
    18   7 N        0.911    -0.251    26.535     7.450
    19   6 C        2.959    -0.002    28.065     8.689
    20   6 C        3.352     0.074    23.686     7.663
    21   6 C        3.341     0.070    24.016     7.749
    22   7 N        1.852    -0.297    28.559     7.921
    23  16 S        2.669     0.478   123.067    18.671
    24   7 N        1.852    -0.300    28.614     7.928
    25   6 C        2.962     0.007    27.852     8.656
    26   6 C        3.356     0.076    23.592     7.638
    27   7 N        1.853    -0.284    28.216     7.873
    28  16 S        2.690     0.493   122.553    18.632
    29   7 N        1.852    -0.300    28.613     7.928
    30   6 C        3.355     0.087    23.370     7.603
    31   6 C        2.964     0.017    27.624     8.621
    32   6 C        2.920    -0.027    28.684     8.783
    33   6 C        2.920    -0.027    28.682     8.782
    34   6 C        2.964     0.017    27.621     8.621
    35   6 C        3.356     0.078    23.545     7.630
    36   7 N        1.854    -0.291    28.383     7.896
    37  16 S        2.690     0.447   124.172    18.755
    38   7 N        1.854    -0.291    28.387     7.897
    39   6 C        3.355     0.078    23.558     7.634
    40   6 C        2.962     0.007    27.851     8.656
    41   6 C        3.356     0.076    23.588     7.638
    42   6 C        3.356     0.088    23.358     7.600
    43   7 N        1.852    -0.300    28.632     7.931
    44  16 S        2.690     0.493   122.576    18.634
    45   7 N        1.853    -0.285    28.236     7.876
    46   6 C        2.959    -0.001    28.059     8.688
    47   6 C        3.352     0.074    23.696     7.666
    48   7 N        1.852    -0.300    28.616     7.928
    49  16 S        2.670     0.479   123.060    18.671
    50   7 N        1.852    -0.297    28.553     7.920
    51   6 C        3.341     0.070    24.011     7.748
    52   6 C        2.902     0.005    27.913     8.663
    53   6 C        3.007    -0.023    28.564     8.767
    54   6 C        2.864     0.248    22.850     7.835
    55   8 O        0.856    -0.402    21.730     6.250
    56   6 C        3.076    -0.025    28.542     8.759
    57   6 C        3.030     0.015    27.643     8.624
    58   6 C        2.914    -0.029    28.719     8.788
    59   6 C        3.003    -0.024    28.596     8.772
    60   6 C        2.945     0.083    26.158     8.388
    61  35 Br       1.145    -0.122   188.402    22.131
    62   6 C        2.948     0.107    25.625     8.303
    63  17 Cl       1.028    -0.107   102.513    15.490
    64   6 C        3.017     0.042    27.045     8.531
    65   6 C        2.947     0.019    27.587     8.615
    66   6 C        1.940     0.133    27.825     8.519
    67   7 N        0.911    -0.251    26.525     7.449
    68   6 C        1.941     0.135    27.796     8.514
    69   7 N        0.911    -0.251    26.534     7.450
    70   1 H        0.925     0.090     1.877     2.142
    71   1 H        0.926     0.084     1.935     2.175
    72   1 H        0.926     0.093     1.851     2.127
    73   1 H        0.926     0.077     2.007     2.215
    74   1 H        0.926     0.077     2.010     2.217
    75   1 H        0.925     0.090     1.879     2.144
    76   1 H        0.926     0.084     1.934     2.175
    77   1 H        0.926     0.093     1.850     2.127

 Mol. C6AA /au·bohr⁶  :     179549.912060
 Mol. C8AA /au·bohr⁸  :    5671984.373632
 Mol. α(0) /au        :        675.546766


Wiberg/Mayer (AO) data.
largest (>0.10) Wiberg bond orders for each atom

 ---------------------------------------------------------------------------
     #   Z sym  total        # sym  WBO       # sym  WBO       # sym  WBO
 ---------------------------------------------------------------------------
     1   6 C    3.949 --     2 C    1.547    19 C    1.219    70 H    0.939
     2   6 C    3.954 --     1 C    1.547    13 C    1.141     3 C    1.029
     3   6 C    3.914 --     4 O    1.750     2 C    1.029     5 C    1.018
     4   8 O    2.037 --     3 C    1.750
     5   6 C    3.975 --    11 C    1.381     6 C    1.288     3 C    1.018
     6   6 C    3.982 --     7 C    1.399     5 C    1.288    13 C    1.083
     7   6 C    3.974 --     8 C    1.423     6 C    1.399    71 H    0.956
     8   6 C    3.974 --     7 C    1.423     9 C    1.411    72 H    0.961
     9   6 C    3.931 --     8 C    1.411    11 C    1.334    10 Br   1.009
    10  35 Br   1.158 --     9 C    1.009
    11   6 C    3.925 --     5 C    1.381     9 C    1.334    12 Cl   1.023
    12  17 Cl   1.206 --    11 C    1.023
    13   6 C    3.975 --    14 C    1.487     2 C    1.141     6 C    1.083
    14   6 C    3.944 --    13 C    1.487    17 C    1.097    15 C    1.096
    15   6 C    3.945 --    16 N    2.759    14 C    1.096
    16   7 N    2.963 --    15 C    2.759
    17   6 C    3.944 --    18 N    2.761    14 C    1.097
    18   7 N    2.963 --    17 C    2.761
    19   6 C    3.946 --    30 C    1.234    20 C    1.231     1 C    1.219
    20   6 C    3.964 --    24 N    1.372    19 C    1.231    21 C    1.142
    21   6 C    3.968 --    22 N    1.351    25 C    1.257    20 C    1.142
    22   7 N    3.061 --    23 S    1.461    21 C    1.351    24 N    0.160
    23  16 S    3.185 --    22 N    1.461    24 N    1.440
    24   7 N    3.066 --    23 S    1.440    20 C    1.372    22 N    0.160
    25   6 C    3.954 --    26 C    1.259    21 C    1.257    31 C    1.121
    26   6 C    3.969 --    27 N    1.351    25 C    1.259    30 C    1.140
    27   7 N    3.078 --    28 S    1.475    26 C    1.351    29 N    0.159
    28  16 S    3.196 --    27 N    1.475    29 N    1.437
    29   7 N    3.067 --    28 S    1.437    30 C    1.373    27 N    0.159
    30   6 C    3.963 --    29 N    1.373    19 C    1.234    26 C    1.140
    31   6 C    3.954 --    32 C    1.422    39 C    1.193    25 C    1.121
    32   6 C    3.949 --    31 C    1.422    33 C    1.383    73 H    0.960
    33   6 C    3.949 --    34 C    1.422    32 C    1.383    74 H    0.960
    34   6 C    3.954 --    33 C    1.422    35 C    1.193    40 C    1.120
    35   6 C    3.965 --    36 N    1.386    34 C    1.193    39 C    1.174
    36   7 N    3.079 --    37 S    1.439    35 C    1.386    38 N    0.157
    37  16 S    3.204 --    36 N    1.439    38 N    1.439
    38   7 N    3.079 --    37 S    1.439    39 C    1.387    36 N    0.157
    39   6 C    3.965 --    38 N    1.387    31 C    1.193    35 C    1.174
    40   6 C    3.954 --    41 C    1.259    51 C    1.258    34 C    1.120
    41   6 C    3.969 --    45 N    1.351    40 C    1.259    42 C    1.141
    42   6 C    3.968 --    43 N    1.372    46 C    1.234    41 C    1.141
    43   7 N    3.067 --    44 S    1.438    42 C    1.372    45 N    0.159
    44  16 S    3.196 --    45 N    1.474    43 N    1.438
    45   7 N    3.077 --    44 S    1.474    41 C    1.351    43 N    0.159
    46   6 C    3.947 --    42 C    1.234    47 C    1.232    52 C    1.218
    47   6 C    3.964 --    48 N    1.372    46 C    1.232    51 C    1.142
    48   7 N    3.065 --    49 S    1.440    47 C    1.372    50 N    0.160
    49  16 S    3.186 --    50 N    1.462    48 N    1.440
    50   7 N    3.061 --    49 S    1.462    51 C    1.351    48 N    0.160
    51   6 C    3.968 --    50 N    1.351    40 C    1.258    47 C    1.142
    52   6 C    3.949 --    53 C    1.547    46 C    1.218    75 H    0.940
    53   6 C    3.954 --    52 C    1.547    64 C    1.142    54 C    1.029
    54   6 C    3.914 --    55 O    1.750    53 C    1.029    56 C    1.018
    55   8 O    2.038 --    54 C    1.750
    56   6 C    3.975 --    62 C    1.381    57 C    1.288    54 C    1.018
    57   6 C    3.982 --    58 C    1.400    56 C    1.288    64 C    1.083
    58   6 C    3.974 --    59 C    1.423    57 C    1.400    76 H    0.956
    59   6 C    3.974 --    58 C    1.423    60 C    1.411    77 H    0.961
    60   6 C    3.931 --    59 C    1.411    62 C    1.334    61 Br   1.009
    61  35 Br   1.158 --    60 C    1.009
    62   6 C    3.925 --    56 C    1.381    60 C    1.334    63 Cl   1.023
    63  17 Cl   1.206 --    62 C    1.023
    64   6 C    3.975 --    65 C    1.486    53 C    1.142    57 C    1.083
    65   6 C    3.949 --    64 C    1.486    68 C    1.098    66 C    1.096
    66   6 C    3.945 --    67 N    2.760    65 C    1.096
    67   7 N    2.963 --    66 C    2.760
    68   6 C    3.944 --    69 N    2.761    65 C    1.098
    69   7 N    2.963 --    68 C    2.761
    70   1 H    0.988 --     1 C    0.939
    71   1 H    0.992 --     7 C    0.956
    72   1 H    0.991 --     8 C    0.961
    73   1 H    0.992 --    32 C    0.960
    74   1 H    0.992 --    33 C    0.960
    75   1 H    0.988 --    52 C    0.940
    76   1 H    0.992 --    58 C    0.956
    77   1 H    0.991 --    59 C    0.961
 ---------------------------------------------------------------------------

Topologies differ in bond orders
Writing corrected topology to xtbtopo.mol

molecular dipole:
                 x           y           z       tot (Debye)
 q only:        0.606      -0.082      -0.761
   full:        0.820      -0.100      -1.015       3.325
molecular quadrupole (traceless):
                xx          xy          yy          xz          yz          zz
 q only:      -24.945      29.443      34.835     -43.527      17.164      -9.891
  q+dip:      -39.701      53.028      62.222     -60.518      29.231     -22.522
   full:      -46.019      61.070      75.685     -63.572      31.559     -29.666


           -------------------------------------------------
          | TOTAL ENERGY             -180.790785963536 Eh   |
          | GRADIENT NORM               0.022037847976 Eh/α |
          | HOMO-LUMO GAP               0.811242061607 eV   |
           -------------------------------------------------

------------------------------------------------------------------------
 * finished run on 2022/02/03 at 22:01:31.910     
------------------------------------------------------------------------
 total:
 * wall-time:     0 d,  0 h,  0 min,  0.315 sec
 *  cpu-time:     0 d,  0 h,  0 min,  2.448 sec
 * ratio c/w:     7.762 speedup
 SCF:
 * wall-time:     0 d,  0 h,  0 min,  0.263 sec
 *  cpu-time:     0 d,  0 h,  0 min,  2.094 sec
 * ratio c/w:     7.975 speedup

