      -----------------------------------------------------------      
     |                   =====================                   |     
     |                           x T B                           |     
     |                   =====================                   |     
     |                         S. Grimme                         |     
     |          Mulliken Center for Theoretical Chemistry        |     
     |                    University of Bonn                     |     
      -----------------------------------------------------------      

   * xtb version 6.4.1 (unknown) compiled by 'oda6@login1.crc.pitt.edu' on 2021-06-25

   xtb is free software: you can redistribute it and/or modify it under
   the terms of the GNU Lesser General Public License as published by
   the Free Software Foundation, either version 3 of the License, or
   (at your option) any later version.
   
   xtb is distributed in the hope that it will be useful,
   but WITHOUT ANY WARRANTY; without even the implied warranty of
   MERCHANTABILITY or FITNESS FOR A PARTICULAR PURPOSE.  See the
   GNU Lesser General Public License for more details.
   
   Cite this work as:
   * C. Bannwarth, E. Caldeweyher, S. Ehlert, A. Hansen, P. Pracht,
     J. Seibert, S. Spicher, S. Grimme, WIREs Comput. Mol. Sci., 2020, 11,
     e01493. DOI: 10.1002/wcms.1493
   
   for GFN2-xTB:
   * C. Bannwarth, S. Ehlert and S. Grimme., J. Chem. Theory Comput., 2019,
     15, 1652-1671. DOI: 10.1021/acs.jctc.8b01176
   for GFN1-xTB:
   * S. Grimme, C. Bannwarth, P. Shushkov, J. Chem. Theory Comput., 2017,
     13, 1989-2009. DOI: 10.1021/acs.jctc.7b00118
   for GFN0-xTB:
   * P. Pracht, E. Caldeweyher, S. Ehlert, S. Grimme, ChemRxiv, 2019, preprint.
     DOI: 10.26434/chemrxiv.8326202.v1
   for GFN-FF:
   * S. Spicher and S. Grimme, Angew. Chem. Int. Ed., 2020, 59, 15665-15673.
     DOI: 10.1002/anie.202004239
   
   for DFT-D4:
   * E. Caldeweyher, C. Bannwarth and S. Grimme, J. Chem. Phys., 2017,
     147, 034112. DOI: 10.1063/1.4993215
   * E. Caldeweyher, S. Ehlert, A. Hansen, H. Neugebauer, S. Spicher,
     C. Bannwarth and S. Grimme, J. Chem. Phys., 2019, 150, 154122.
     DOI: 10.1063/1.5090222
   * E. Caldeweyher, J.-M. Mewes, S. Ehlert and S. Grimme, Phys. Chem. Chem. Phys.
     2020, 22, 8499-8512. DOI: 10.1039/D0CP00502A
   
   for sTDA-xTB:
   * S. Grimme and C. Bannwarth, J. Chem. Phys., 2016, 145, 054103.
     DOI: 10.1063/1.4959605
   
   in the mass-spec context:
   * V. Asgeirsson, C. Bauer and S. Grimme, Chem. Sci., 2017, 8, 4879.
     DOI: 10.1039/c7sc00601b
   * J. Koopman and S. Grimme, ACS Omega 2019, 4, 12, 15120-15133.
     DOI: 10.1021/acsomega.9b02011
   
   for metadynamics refer to:
   * S. Grimme, J. Chem. Theory Comput., 2019, 155, 2847-2862
     DOI: 10.1021/acs.jctc.9b00143
   
   for SPH calculations refer to:
   * S. Spicher and S. Grimme, J. Chem. Theory Comput., 2021, 17, 1701-1714
     DOI: 10.1021/acs.jctc.0c01306
   
   with help from (in alphabetical order)
   P. Atkinson, C. Bannwarth, F. Bohle, G. Brandenburg, E. Caldeweyher
   M. Checinski, S. Dohm, S. Ehlert, S. Ehrlich, I. Gerasimov, J. Koopman
   C. Lavigne, S. Lehtola, F. März, M. Müller, F. Musil, H. Neugebauer
   J. Pisarek, C. Plett, P. Pracht, J. Seibert, P. Shushkov, S. Spicher
   M. Stahn, M. Steiner, T. Strunk, J. Stückrath, T. Rose, and J. Unsleber
   
 * started run on 2022/02/11 at 04:08:42.329     

           -------------------------------------------------
          |                Calculation Setup                |
           -------------------------------------------------

          program call               : /ihome/ghutchison/oda6/xtb/xtb-641/bin/xtb ../../GFN2_output/64_15_130_10_64.mol --sp --alpb hexane
          hostname                   : smp-n25
          coordinate file            : ../../GFN2_output/64_15_130_10_64.mol
          omp threads                :                     8
          number of atoms            :                   162
          number of electrons        :                   536
          charge                     :                     0
          spin                       :                   0.0
          first test random number   :      0.22133736024316

   ID    Z sym.   atoms
    1    6 C      1-3, 5-7, 9, 11-15, 17, 19-22, 24-34, 36-39, 41-47, 49-52,
                  54, 55, 57-60, 62-68, 70-73, 75-78, 80-84, 86-88, 90, 91,
                  93-95, 97-99, 101, 103-107, 109
    2    8 O      4, 23, 79, 85, 96
    3   17 Cl     8, 100
    4    9 F      10, 102
    5    7 N      16, 18, 35, 56, 108, 110
    6   16 S      40, 48, 53, 61, 69, 74, 89, 92
    7    1 H      111-162

           -------------------------------------------------
          |                 G F N 2 - x T B                 |
           -------------------------------------------------

        Reference                      10.1021/acs.jctc.8b01176
      * Hamiltonian:
        H0-scaling (s, p, d)           1.850000    2.230000    2.230000
        zeta-weighting                 0.500000
      * Dispersion:
        s8                             2.700000
        a1                             0.520000
        a2                             5.000000
        s9                             5.000000
      * Repulsion:
        kExp                           1.500000    1.000000
        rExp                           1.000000
      * Coulomb:
        alpha                          2.000000
        third order                    shell-resolved
        anisotropic                    true
        a3                             3.000000
        a5                             4.000000
        cn-shift                       1.200000
        cn-exp                         4.000000
        max-rad                        5.000000

      * Solvation model:               ALPB
        Solvent                        hexane
        Parameter file                 internal GFN2-xTB/ALPB
        Dielectric constant                1.8800E+00
        Reference state                gsolv [1 M gas/solution]
        Free energy shift                  4.8134E-03 Eh       3.0204E+00 kcal/mol
        Temperature                        2.9815E+02 K
        Density                            6.6000E-01 kg/L
        Solvent mass                       8.6180E+01 g/mol
        Interaction kernel             P16
        Born radius scaling (c1)           1.1040E+00
        Born radii integrator          GBOBC
        Born offset                        0.0000E+00 a0       0.0000E+00 AA
        H-bond correction              false
        Ion screening                  false
        Surface tension                    1.0000E-05 Eh       1.5569E+01 dyn/cm
        Grid points                               230 per atom

          ...................................................
          :                      SETUP                      :
          :.................................................:
          :  # basis functions                 552          :
          :  # atomic orbitals                 542          :
          :  # shells                          282          :
          :  # electrons                       536          :
          :  max. iterations                   250          :
          :  Hamiltonian                  GFN2-xTB          :
          :  restarted?                      false          :
          :  GBSA solvation                   true          :
          :  PC potential                    false          :
          :  electronic temp.          300.0000000     K    :
          :  accuracy                    1.0000000          :
          :  -> integral cutoff          0.2500000E+02      :
          :  -> integral neglect         0.1000000E-07      :
          :  -> SCF convergence          0.1000000E-05 Eh   :
          :  -> wf. convergence          0.1000000E-03 e    :
          :  Broyden damping             0.4000000          :
          ...................................................

 iter      E             dE          RMSdq      gap      omega  full diag
   1   -299.4516947 -0.299452E+03  0.503E+00    0.84       0.0  T
   2   -299.6497711 -0.198076E+00  0.283E+00    0.76       1.0  T
   3   -299.4764693  0.173302E+00  0.142E+00    0.09       1.0  T
   4   -299.6849769 -0.208508E+00  0.557E-01    0.62       1.0  T
   5   -299.7163138 -0.313369E-01  0.198E-01    0.36       1.0  T
   6   -299.7180463 -0.173251E-02  0.957E-02    0.22       1.0  T
   7   -299.7184026 -0.356336E-03  0.542E-02    0.24       1.0  T
   8   -299.7185111 -0.108521E-03  0.364E-02    0.23       1.0  T
   9   -299.7185845 -0.733963E-04  0.250E-02    0.24       1.0  T
  10   -299.7186109 -0.263482E-04  0.174E-02    0.24       1.0  T
  11   -299.7186286 -0.177687E-04  0.117E-02    0.24       1.0  T
  12   -299.7186361 -0.742445E-05  0.747E-03    0.24       1.1  T
  13   -299.7186400 -0.394757E-05  0.348E-03    0.24       2.3  T
  14   -299.7186410 -0.991522E-06  0.168E-03    0.24       4.7  T
  15   -299.7186411 -0.123705E-06  0.840E-04    0.24       9.4  T
  16   -299.7186412 -0.250254E-07  0.385E-04    0.24      20.4  T

   *** convergence criteria satisfied after 16 iterations ***

         #    Occupation            Energy/Eh            Energy/eV
      -------------------------------------------------------------
         1        2.0000           -1.0832841             -29.4777
       ...           ...                  ...                  ...
       262        2.0000           -0.3872777             -10.5384
       263        2.0000           -0.3810209             -10.3681
       264        2.0000           -0.3723439             -10.1320
       265        2.0000           -0.3699167             -10.0659
       266        2.0000           -0.3649833              -9.9317
       267        1.9996           -0.3583853              -9.7522
       268        1.9809           -0.3547791              -9.6540 (HOMO)
       269        0.0195           -0.3459818              -9.4146 (LUMO)
       270        0.0000           -0.3395459              -9.2395
       271                         -0.3296891              -8.9713
       272                         -0.3286134              -8.9420
       273                         -0.3231984              -8.7947
       ...                                ...                  ...
       542                          1.1515329              31.3348
      -------------------------------------------------------------
                  HL-Gap            0.0087973 Eh            0.2394 eV
             Fermi-level           -0.3503702 Eh           -9.5341 eV

 SCC (total)                   0 d,  0 h,  0 min,  0.833 sec
 SCC setup                      ...        0 min,  0.006 sec (  0.714%)
 Dispersion                     ...        0 min,  0.006 sec (  0.754%)
 classical contributions        ...        0 min,  0.000 sec (  0.035%)
 integral evaluation            ...        0 min,  0.028 sec (  3.420%)
 iterations                     ...        0 min,  0.710 sec ( 85.273%)
 molecular gradient             ...        0 min,  0.079 sec (  9.445%)
 printout                       ...        0 min,  0.003 sec (  0.347%)

         :::::::::::::::::::::::::::::::::::::::::::::::::::::
         ::                     SUMMARY                     ::
         :::::::::::::::::::::::::::::::::::::::::::::::::::::
         :: total energy            -295.218232104126 Eh    ::
         :: total w/o Gsasa/hb      -295.120985714294 Eh    ::
         :: gradient norm              0.022673734545 Eh/a0 ::
         :: HOMO-LUMO gap              0.239387386192 eV    ::
         ::.................................................::
         :: SCC energy              -299.718641153959 Eh    ::
         :: -> isotropic ES            0.216321458976 Eh    ::
         :: -> anisotropic ES          0.005085386176 Eh    ::
         :: -> anisotropic XC          0.162413108082 Eh    ::
         :: -> dispersion             -0.285090669722 Eh    ::
         :: -> Gsolv                  -0.128064771221 Eh    ::
         ::    -> Gelec               -0.030818381390 Eh    ::
         ::    -> Gsasa               -0.102059745651 Eh    ::
         ::    -> Ghb                  0.000000000000 Eh    ::
         ::    -> Gshift               0.004813355820 Eh    ::
         :: repulsion energy           4.495822411820 Eh    ::
         :: add. restraining           0.000000000000 Eh    ::
         :: total charge              -0.000000000000 e     ::
         :::::::::::::::::::::::::::::::::::::::::::::::::::::

           -------------------------------------------------
          |                Property Printout                |
           -------------------------------------------------

    * Orbital Energies and Occupations

         #    Occupation            Energy/Eh            Energy/eV
      -------------------------------------------------------------
         1        2.0000           -1.0832841             -29.4777
       ...           ...                  ...                  ...
       256        2.0000           -0.4123627             -11.2210
       257        2.0000           -0.4113229             -11.1927
       258        2.0000           -0.4099169             -11.1544
       259        2.0000           -0.4070839             -11.0773
       260        2.0000           -0.4031962             -10.9715
       261        2.0000           -0.3931316             -10.6977
       262        2.0000           -0.3872777             -10.5384
       263        2.0000           -0.3810209             -10.3681
       264        2.0000           -0.3723439             -10.1320
       265        2.0000           -0.3699167             -10.0659
       266        2.0000           -0.3649833              -9.9317
       267        1.9996           -0.3583853              -9.7522
       268        1.9809           -0.3547791              -9.6540 (HOMO)
       269        0.0195           -0.3459818              -9.4146 (LUMO)
       270        0.0000           -0.3395459              -9.2395
       271                         -0.3296891              -8.9713
       272                         -0.3286134              -8.9420
       273                         -0.3231984              -8.7947
       274                         -0.2976615              -8.0998
       275                         -0.2779174              -7.5625
       276                         -0.2762178              -7.5163
       277                         -0.2698005              -7.3416
       278                         -0.2588034              -7.0424
       279                         -0.2584712              -7.0334
       ...                                ...                  ...
       542                          1.1515329              31.3348
      -------------------------------------------------------------
                  HL-Gap            0.0087973 Eh            0.2394 eV
             Fermi-level           -0.3503702 Eh           -9.5341 eV

     #   Z          covCN         q      C6AA      α(0)
     1   6 C        2.903     0.003    27.957     8.670
     2   6 C        3.008    -0.020    28.496     8.757
     3   6 C        2.864     0.243    22.938     7.851
     4   8 O        0.857    -0.375    21.191     6.172
     5   6 C        3.038    -0.012    28.280     8.722
     6   6 C        2.947    -0.022    28.565     8.766
     7   6 C        2.885     0.095    25.890     8.342
     8  17 Cl       0.962    -0.119   102.880    15.518
     9   6 C        2.818     0.179    24.152     8.052
    10   9 F        0.788    -0.201    11.247     3.961
    11   6 C        2.912    -0.042    29.044     8.837
    12   6 C        3.034     0.014    27.666     8.627
    13   6 C        3.011     0.044    26.990     8.522
    14   6 C        2.947     0.022    27.505     8.602
    15   6 C        1.936     0.135    27.793     8.514
    16   7 N        0.911    -0.246    26.403     7.432
    17   6 C        1.937     0.135    27.799     8.515
    18   7 N        0.911    -0.243    26.331     7.422
    19   6 C        2.981     0.032    27.276     8.567
    20   6 C        2.919    -0.003    28.101     8.693
    21   6 C        3.047    -0.016    28.360     8.734
    22   6 C        2.867     0.245    22.902     7.845
    23   8 O        0.856    -0.397    21.630     6.236
    24   6 C        3.047    -0.024    28.546     8.763
    25   6 C        3.045     0.012    27.709     8.634
    26   6 C        3.041     0.015    27.645     8.624
    27   6 C        2.913    -0.024    28.599     8.769
    28   6 C        2.925    -0.019    28.471     8.750
    29   6 C        2.912    -0.027    28.672     8.780
    30   6 C        2.931    -0.024    28.605     8.771
    31   6 C        2.991     0.015    27.658     8.627
    32   6 C        2.916    -0.015    28.383     8.736
    33   6 C        3.009    -0.003    28.086     8.693
    34   6 C        3.072     0.046    26.901     8.504
    35   7 N        2.748    -0.080    22.791     7.090
    36   6 C        2.926     0.061    26.642     8.465
    37   6 C        2.924    -0.046    29.148     8.854
    38   6 C        2.983    -0.039    28.966     8.828
    39   6 C        2.966     0.045    26.991     8.522
    40  16 S        2.033    -0.192   149.207    20.559
    41   6 C        3.744    -0.051    21.556     6.623
    42   6 C        2.942    -0.044    29.093     8.846
    43   6 C        2.923    -0.049    29.228     8.866
    44   6 C        2.923     0.055    26.761     8.483
    45   6 C        2.924    -0.048    29.195     8.861
    46   6 C        2.944    -0.044    29.084     8.845
    47   6 C        2.966     0.045    26.985     8.521
    48  16 S        2.035    -0.174   148.400    20.503
    49   6 C        3.744    -0.055    21.634     6.635
    50   6 C        2.983    -0.041    29.008     8.835
    51   6 C        2.922    -0.046    29.144     8.853
    52   6 C        3.181     0.005    27.469     8.555
    53  16 S        2.298    -0.069   143.917    20.191
    54   6 C        3.012    -0.006    28.159     8.705
    55   6 C        3.047     0.052    26.789     8.489
    56   7 N        2.748    -0.053    22.271     7.009
    57   6 C        2.931     0.058    26.697     8.474
    58   6 C        2.922    -0.041    29.018     8.834
    59   6 C        2.987    -0.038    28.936     8.824
    60   6 C        2.966     0.050    26.883     8.505
    61  16 S        2.037    -0.177   148.531    20.512
    62   6 C        3.744    -0.052    21.585     6.627
    63   6 C        2.943    -0.044    29.088     8.846
    64   6 C        2.923    -0.043    29.071     8.842
    65   6 C        2.928     0.065    26.544     8.449
    66   6 C        2.924    -0.044    29.104     8.847
    67   6 C        2.958    -0.030    28.745     8.794
    68   6 C        2.968     0.051    26.848     8.499
    69  16 S        2.019    -0.229   150.846    20.671
    70   6 C        3.744    -0.045    21.449     6.607
    71   6 C        2.955    -0.031    28.768     8.797
    72   6 C        2.923    -0.047    29.163     8.856
    73   6 C        3.177    -0.003    27.683     8.591
    74  16 S        2.249    -0.049   143.103    20.134
    75   6 C        3.043     0.032    27.245     8.561
    76   6 C        3.077    -0.054    29.247     8.867
    77   6 C        3.120    -0.016    28.221     8.701
    78   6 C        2.887     0.127    25.208     8.231
    79   8 O        1.703    -0.320    19.339     5.937
    80   6 C        3.695     0.085    19.332     6.290
    81   6 C        3.750    -0.117    22.801     6.810
    82   6 C        3.010    -0.004    28.105     8.696
    83   6 C        3.109    -0.020    28.354     8.724
    84   6 C        2.883     0.130    25.160     8.223
    85   8 O        1.703    -0.323    19.399     5.947
    86   6 C        3.695     0.084    19.351     6.293
    87   6 C        3.750    -0.116    22.788     6.808
    88   6 C        3.006     0.006    27.867     8.659
    89  16 S        2.260    -0.047   142.991    20.126
    90   6 C        3.067    -0.036    28.827     8.804
    91   6 C        2.977     0.032    27.283     8.568
    92  16 S        2.292     0.035   139.639    19.889
    93   6 C        2.918    -0.010    28.264     8.718
    94   6 C        3.004    -0.032    28.779     8.800
    95   6 C        2.869     0.238    23.036     7.868
    96   8 O        0.917    -0.375    21.166     6.170
    97   6 C        3.044    -0.014    28.328     8.729
    98   6 C        2.947    -0.024    28.605     8.772
    99   6 C        2.885     0.092    25.952     8.352
   100  17 Cl       0.961    -0.127   103.123    15.536
   101   6 C        2.818     0.177    24.190     8.059
   102   9 F        0.788    -0.204    11.276     3.967
   103   6 C        2.913    -0.043    29.075     8.842
   104   6 C        3.036     0.012    27.705     8.633
   105   6 C        3.017     0.039    27.099     8.539
   106   6 C        2.947     0.014    27.693     8.631
   107   6 C        1.947     0.133    27.824     8.518
   108   7 N        0.911    -0.254    26.605     7.460
   109   6 C        1.945     0.133    27.822     8.518
   110   7 N        0.911    -0.261    26.769     7.483
   111   1 H        0.925     0.085     1.925     2.170
   112   1 H        0.926     0.107     1.718     2.050
   113   1 H        0.926     0.099     1.792     2.093
   114   1 H        0.926     0.056     2.248     2.345
   115   1 H        0.926     0.058     2.220     2.330
   116   1 H        0.926     0.057     2.229     2.335
   117   1 H        0.926     0.057     2.240     2.341
   118   1 H        0.926     0.053     2.284     2.363
   119   1 H        0.926     0.059     2.211     2.325
   120   1 H        0.926     0.038     2.473     2.459
   121   1 H        0.926     0.048     2.348     2.396
   122   1 H        0.925     0.069     2.094     2.263
   123   1 H        0.925     0.061     2.187     2.313
   124   1 H        0.925     0.062     2.174     2.306
   125   1 H        0.926     0.045     2.380     2.412
   126   1 H        0.926     0.039     2.465     2.455
   127   1 H        0.926     0.038     2.479     2.462
   128   1 H        0.926     0.050     2.320     2.382
   129   1 H        0.925     0.081     1.969     2.195
   130   1 H        0.925     0.061     2.186     2.312
   131   1 H        0.925     0.064     2.155     2.296
   132   1 H        0.926     0.054     2.267     2.355
   133   1 H        0.926     0.043     2.404     2.425
   134   1 H        0.926     0.043     2.414     2.429
   135   1 H        0.926     0.052     2.297     2.370
   136   1 H        0.925     0.063     2.160     2.298
   137   1 H        0.925     0.064     2.158     2.297
   138   1 H        0.925     0.071     2.080     2.255
   139   1 H        0.926     0.050     2.326     2.385
   140   1 H        0.926     0.046     2.376     2.410
   141   1 H        0.926     0.048     2.340     2.392
   142   1 H        0.926     0.058     2.218     2.329
   143   1 H        0.925     0.063     2.164     2.301
   144   1 H        0.925     0.062     2.179     2.308
   145   1 H        0.925     0.049     2.335     2.390
   146   1 H        0.926     0.049     2.333     2.388
   147   1 H        0.926     0.038     2.469     2.457
   148   1 H        0.926     0.058     2.219     2.329
   149   1 H        0.924     0.036     2.503     2.474
   150   1 H        0.924     0.059     2.212     2.326
   151   1 H        0.925     0.054     2.268     2.355
   152   1 H        0.925     0.040     2.447     2.446
   153   1 H        0.925     0.060     2.203     2.321
   154   1 H        0.924     0.037     2.490     2.468
   155   1 H        0.924     0.062     2.170     2.304
   156   1 H        0.925     0.053     2.277     2.360
   157   1 H        0.925     0.043     2.415     2.430
   158   1 H        0.925     0.057     2.234     2.337
   159   1 H        0.926     0.066     2.132     2.283
   160   1 H        0.925     0.081     1.972     2.196
   161   1 H        0.926     0.100     1.782     2.088
   162   1 H        0.926     0.098     1.804     2.100

 Mol. C6AA /au·bohr⁶  :     497304.188800
 Mol. C8AA /au·bohr⁸  :   14252469.296710
 Mol. α(0) /au        :       1130.791468


Wiberg/Mayer (AO) data.
largest (>0.10) Wiberg bond orders for each atom

 ---------------------------------------------------------------------------
     #   Z sym  total        # sym  WBO       # sym  WBO       # sym  WBO
 ---------------------------------------------------------------------------
     1   6 C    3.939 --     2 C    1.692    19 C    1.067   111 H    0.941
     2   6 C    3.979 --     1 C    1.692    13 C    1.097     3 C    1.004
     3   6 C    3.922 --     4 O    1.778     5 C    1.026     2 C    1.004
     4   8 O    2.066 --     3 C    1.778
     5   6 C    3.976 --     6 C    1.414    12 C    1.287     3 C    1.026
     6   6 C    3.976 --     5 C    1.414     7 C    1.392   112 H    0.956
     7   6 C    3.909 --     6 C    1.392     9 C    1.328     8 Cl   1.013
     8  17 Cl   1.160 --     7 C    1.013
     9   6 C    3.882 --    11 C    1.405     7 C    1.328    10 F    0.980
    10   9 F    1.116 --     9 C    0.980
    11   6 C    3.971 --     9 C    1.405    12 C    1.383   113 H    0.953
    12   6 C    3.985 --    11 C    1.383     5 C    1.287    13 C    1.099
    13   6 C    3.969 --    14 C    1.512    12 C    1.099     2 C    1.097
    14   6 C    3.961 --    13 C    1.512    15 C    1.093    17 C    1.092
    15   6 C    3.945 --    16 N    2.767    14 C    1.093
    16   7 N    2.972 --    15 C    2.767
    17   6 C    3.945 --    18 N    2.771    14 C    1.092
    18   7 N    2.974 --    17 C    2.771
    19   6 C    3.965 --    28 C    1.403    20 C    1.334     1 C    1.067
    20   6 C    3.978 --    21 C    1.457    19 C    1.334   114 H    0.966
    21   6 C    3.984 --    20 C    1.457    26 C    1.285    22 C    1.009
    22   6 C    3.917 --    23 O    1.773    24 C    1.014    21 C    1.009
    23   8 O    2.052 --    22 C    1.773
    24   6 C    3.982 --    32 C    1.441    25 C    1.292    22 C    1.014
    25   6 C    3.978 --    29 C    1.426    24 C    1.292    26 C    1.061
    26   6 C    3.982 --    27 C    1.431    21 C    1.285    25 C    1.061
    27   6 C    3.974 --    26 C    1.431    28 C    1.410   115 H    0.965
    28   6 C    3.976 --    27 C    1.410    19 C    1.403   116 H    0.968
    29   6 C    3.974 --    25 C    1.426    30 C    1.413   117 H    0.966
    30   6 C    3.980 --    29 C    1.413    31 C    1.406   118 H    0.968
    31   6 C    3.961 --    30 C    1.406    32 C    1.357    33 C    1.036
    32   6 C    3.980 --    24 C    1.441    31 C    1.357   119 H    0.965
    33   6 C    3.903 --    34 C    1.478    74 S    1.120    31 C    1.036
    34   6 C    3.960 --    33 C    1.478    52 C    1.204    35 N    1.070
    35   7 N    3.462 --    34 C    1.070    36 C    1.064    44 C    1.034
    36   6 C    3.963 --    43 C    1.365    37 C    1.342    35 N    1.064
    37   6 C    3.985 --    38 C    1.474    36 C    1.342   120 H    0.966
    38   6 C    3.989 --    37 C    1.474    39 C    1.369   121 H    0.967
                            43 C    0.101
    39   6 C    3.949 --    42 C    1.386    38 C    1.369    40 S    1.043
    40  16 S    2.238 --    39 C    1.043    41 C    1.009
    41   6 C    3.973 --    40 S    1.009   124 H    0.981   123 H    0.981
                           122 H    0.977
    42   6 C    3.988 --    43 C    1.454    39 C    1.386   125 H    0.964
    43   6 C    3.983 --    42 C    1.454    36 C    1.365   126 H    0.966
                            38 C    0.101
    44   6 C    3.962 --    45 C    1.374    51 C    1.361    35 N    1.034
    45   6 C    3.986 --    46 C    1.450    44 C    1.374   127 H    0.967
                            50 C    0.101
    46   6 C    3.987 --    45 C    1.450    47 C    1.387   128 H    0.964
    47   6 C    3.958 --    46 C    1.387    50 C    1.366    48 S    1.052
    48  16 S    2.291 --    47 C    1.052    49 C    1.008
    49   6 C    3.969 --    48 S    1.008   130 H    0.980   131 H    0.977
                           129 H    0.968
    50   6 C    3.988 --    51 C    1.474    47 C    1.366   132 H    0.967
                            45 C    0.101
    51   6 C    3.984 --    50 C    1.474    44 C    1.361   133 H    0.967
    52   6 C    3.931 --    73 C    1.389    34 C    1.204    53 S    1.114
    53  16 S    2.538 --    52 C    1.114    54 C    1.071
    54   6 C    3.912 --    55 C    1.394    75 C    1.191    53 S    1.071
    55   6 C    3.938 --    54 C    1.394    73 C    1.210    56 N    1.110
    56   7 N    3.504 --    55 C    1.110    65 C    1.064    57 C    1.034
    57   6 C    3.960 --    64 C    1.374    58 C    1.354    56 N    1.034
    58   6 C    3.983 --    59 C    1.475    57 C    1.354   134 H    0.966
    59   6 C    3.989 --    58 C    1.475    60 C    1.366   135 H    0.967
                            64 C    0.102
    60   6 C    3.952 --    63 C    1.384    59 C    1.366    61 S    1.055
    61  16 S    2.261 --    60 C    1.055    62 C    1.009
    62   6 C    3.973 --    61 S    1.009   136 H    0.981   137 H    0.981
                           138 H    0.977
    63   6 C    3.988 --    64 C    1.453    60 C    1.384   139 H    0.964
    64   6 C    3.980 --    63 C    1.453    57 C    1.374   140 H    0.966
                            59 C    0.102
    65   6 C    3.964 --    72 C    1.356    66 C    1.355    56 N    1.064
    66   6 C    3.977 --    67 C    1.461    65 C    1.355   141 H    0.965
                            71 C    0.100
    67   6 C    3.988 --    66 C    1.461    68 C    1.400   142 H    0.967
    68   6 C    3.955 --    67 C    1.400    71 C    1.399    69 S    1.000
    69  16 S    2.111 --    68 C    1.000    70 C    0.992
    70   6 C    3.972 --    69 S    0.992   145 H    0.984   144 H    0.982
                           143 H    0.980
    71   6 C    3.990 --    72 C    1.462    68 C    1.399   146 H    0.967
                            66 C    0.100
    72   6 C    3.983 --    71 C    1.462    65 C    1.356   147 H    0.966
    73   6 C    3.937 --    52 C    1.389    55 C    1.210    74 S    1.108
    74  16 S    2.556 --    33 C    1.120    73 C    1.108
    75   6 C    3.924 --    76 C    1.496    54 C    1.191    89 S    1.091
    76   6 C    3.936 --    75 C    1.496    77 C    1.259   148 H    0.950
    77   6 C    3.960 --    78 C    1.277    76 C    1.259    88 C    1.211
    78   6 C    3.919 --    82 C    1.383    77 C    1.277    79 O    1.028
    79   8 O    2.129 --    78 C    1.028    80 C    0.937
    80   6 C    3.930 --    81 C    1.013   150 H    0.971   149 H    0.968
                            79 O    0.937
    81   6 C    3.992 --    80 C    1.013   152 H    0.986   153 H    0.985
                           151 H    0.983
    82   6 C    3.956 --    78 C    1.383    83 C    1.210    92 S    1.130
    83   6 C    3.965 --    90 C    1.315    84 C    1.235    82 C    1.210
    84   6 C    3.915 --    88 C    1.421    83 C    1.235    85 O    1.027
    85   8 O    2.125 --    84 C    1.027    86 C    0.934
    86   6 C    3.928 --    87 C    1.013   155 H    0.970   154 H    0.969
                            85 O    0.934
    87   6 C    3.992 --    86 C    1.013   157 H    0.986   158 H    0.985
                           156 H    0.983
    88   6 C    3.944 --    84 C    1.421    77 C    1.211    89 S    1.090
    89  16 S    2.512 --    75 C    1.091    88 C    1.090
    90   6 C    3.955 --    91 C    1.410    83 C    1.315   159 H    0.959
                            92 S    0.105
    91   6 C    3.943 --    90 C    1.410    93 C    1.280    92 S    1.102
    92  16 S    2.651 --    82 C    1.130    91 C    1.102    90 C    0.105
    93   6 C    3.933 --    94 C    1.507    91 C    1.280   160 H    0.937
    94   6 C    3.947 --    93 C    1.507   105 C    1.141    95 C    1.057
    95   6 C    3.915 --    96 O    1.723    94 C    1.057    97 C    1.017
    96   8 O    2.093 --    95 C    1.723
    97   6 C    3.974 --    98 C    1.422   104 C    1.294    95 C    1.017
    98   6 C    3.974 --    97 C    1.422    99 C    1.385   161 H    0.958
    99   6 C    3.908 --    98 C    1.385   101 C    1.340   100 Cl   1.007
   100  17 Cl   1.152 --    99 C    1.007
   101   6 C    3.881 --   103 C    1.394    99 C    1.340   102 F    0.977
   102   9 F    1.113 --   101 C    0.977
   103   6 C    3.968 --   104 C    1.396   101 C    1.394   162 H    0.952
   104   6 C    3.981 --   103 C    1.396    97 C    1.294   105 C    1.086
   105   6 C    3.965 --   106 C    1.480    94 C    1.141   104 C    1.086
   106   6 C    3.951 --   105 C    1.480   109 C    1.100   107 C    1.096
   107   6 C    3.943 --   108 N    2.760   106 C    1.096
   108   7 N    2.962 --   107 C    2.760
   109   6 C    3.943 --   110 N    2.746   106 C    1.100
   110   7 N    2.959 --   109 C    2.746
   111   1 H    0.991 --     1 C    0.941
   112   1 H    0.988 --     6 C    0.956
   113   1 H    0.990 --    11 C    0.953
   114   1 H    0.996 --    20 C    0.966
   115   1 H    0.995 --    27 C    0.965
   116   1 H    0.996 --    28 C    0.968
   117   1 H    0.996 --    29 C    0.966
   118   1 H    0.997 --    30 C    0.968
   119   1 H    0.996 --    32 C    0.965
   120   1 H    0.998 --    37 C    0.966
   121   1 H    0.997 --    38 C    0.967
   122   1 H    0.995 --    41 C    0.977
   123   1 H    0.996 --    41 C    0.981
   124   1 H    0.996 --    41 C    0.981
   125   1 H    0.997 --    42 C    0.964
   126   1 H    0.998 --    43 C    0.966
   127   1 H    0.998 --    45 C    0.967
   128   1 H    0.997 --    46 C    0.964
   129   1 H    0.993 --    49 C    0.968
   130   1 H    0.995 --    49 C    0.980
   131   1 H    0.996 --    49 C    0.977
   132   1 H    0.997 --    50 C    0.967
   133   1 H    0.998 --    51 C    0.967
   134   1 H    0.998 --    58 C    0.966
   135   1 H    0.997 --    59 C    0.967
   136   1 H    0.996 --    62 C    0.981
   137   1 H    0.995 --    62 C    0.981
   138   1 H    0.995 --    62 C    0.977
   139   1 H    0.997 --    63 C    0.964
   140   1 H    0.998 --    64 C    0.966
   141   1 H    0.997 --    66 C    0.965
   142   1 H    0.996 --    67 C    0.967
   143   1 H    0.995 --    70 C    0.980
   144   1 H    0.996 --    70 C    0.982
   145   1 H    0.998 --    70 C    0.984
   146   1 H    0.997 --    71 C    0.967
   147   1 H    0.998 --    72 C    0.966
   148   1 H    0.996 --    76 C    0.950
   149   1 H    0.999 --    80 C    0.968
   150   1 H    0.996 --    80 C    0.971
   151   1 H    0.997 --    81 C    0.983
   152   1 H    0.998 --    81 C    0.986
   153   1 H    0.996 --    81 C    0.985
   154   1 H    0.999 --    86 C    0.969
   155   1 H    0.995 --    86 C    0.970
   156   1 H    0.996 --    87 C    0.983
   157   1 H    0.998 --    87 C    0.986
   158   1 H    0.997 --    87 C    0.985
   159   1 H    0.995 --    90 C    0.959
   160   1 H    0.993 --    93 C    0.937
   161   1 H    0.989 --    98 C    0.958
   162   1 H    0.990 --   103 C    0.952
 ---------------------------------------------------------------------------

Topologies differ in bond orders
Writing corrected topology to xtbtopo.mol

molecular dipole:
                 x           y           z       tot (Debye)
 q only:       -2.285      -3.308       2.206
   full:       -1.237      -2.115       2.294       8.532
molecular quadrupole (traceless):
                xx          xy          yy          xz          yz          zz
 q only:       90.221      43.380     -14.330     -51.721     146.631     -75.891
  q+dip:      108.119      50.282       6.345     -53.183     169.324    -114.463
   full:      110.120      48.676       8.317     -59.687     175.543    -118.437


           -------------------------------------------------
          | TOTAL ENERGY             -295.218232104126 Eh   |
          | GRADIENT NORM               0.022673734545 Eh/α |
          | HOMO-LUMO GAP               0.239387386192 eV   |
           -------------------------------------------------

------------------------------------------------------------------------
 * finished run on 2022/02/11 at 04:08:43.246     
------------------------------------------------------------------------
 total:
 * wall-time:     0 d,  0 h,  0 min,  0.918 sec
 *  cpu-time:     0 d,  0 h,  0 min,  7.215 sec
 * ratio c/w:     7.862 speedup
 SCF:
 * wall-time:     0 d,  0 h,  0 min,  0.836 sec
 *  cpu-time:     0 d,  0 h,  0 min,  6.650 sec
 * ratio c/w:     7.955 speedup

