      -----------------------------------------------------------      
     |                   =====================                   |     
     |                           x T B                           |     
     |                   =====================                   |     
     |                         S. Grimme                         |     
     |          Mulliken Center for Theoretical Chemistry        |     
     |                    University of Bonn                     |     
      -----------------------------------------------------------      

   * xtb version 6.4.1 (unknown) compiled by 'oda6@login1.crc.pitt.edu' on 2021-06-25

   xtb is free software: you can redistribute it and/or modify it under
   the terms of the GNU Lesser General Public License as published by
   the Free Software Foundation, either version 3 of the License, or
   (at your option) any later version.
   
   xtb is distributed in the hope that it will be useful,
   but WITHOUT ANY WARRANTY; without even the implied warranty of
   MERCHANTABILITY or FITNESS FOR A PARTICULAR PURPOSE.  See the
   GNU Lesser General Public License for more details.
   
   Cite this work as:
   * C. Bannwarth, E. Caldeweyher, S. Ehlert, A. Hansen, P. Pracht,
     J. Seibert, S. Spicher, S. Grimme, WIREs Comput. Mol. Sci., 2020, 11,
     e01493. DOI: 10.1002/wcms.1493
   
   for GFN2-xTB:
   * C. Bannwarth, S. Ehlert and S. Grimme., J. Chem. Theory Comput., 2019,
     15, 1652-1671. DOI: 10.1021/acs.jctc.8b01176
   for GFN1-xTB:
   * S. Grimme, C. Bannwarth, P. Shushkov, J. Chem. Theory Comput., 2017,
     13, 1989-2009. DOI: 10.1021/acs.jctc.7b00118
   for GFN0-xTB:
   * P. Pracht, E. Caldeweyher, S. Ehlert, S. Grimme, ChemRxiv, 2019, preprint.
     DOI: 10.26434/chemrxiv.8326202.v1
   for GFN-FF:
   * S. Spicher and S. Grimme, Angew. Chem. Int. Ed., 2020, 59, 15665-15673.
     DOI: 10.1002/anie.202004239
   
   for DFT-D4:
   * E. Caldeweyher, C. Bannwarth and S. Grimme, J. Chem. Phys., 2017,
     147, 034112. DOI: 10.1063/1.4993215
   * E. Caldeweyher, S. Ehlert, A. Hansen, H. Neugebauer, S. Spicher,
     C. Bannwarth and S. Grimme, J. Chem. Phys., 2019, 150, 154122.
     DOI: 10.1063/1.5090222
   * E. Caldeweyher, J.-M. Mewes, S. Ehlert and S. Grimme, Phys. Chem. Chem. Phys.
     2020, 22, 8499-8512. DOI: 10.1039/D0CP00502A
   
   for sTDA-xTB:
   * S. Grimme and C. Bannwarth, J. Chem. Phys., 2016, 145, 054103.
     DOI: 10.1063/1.4959605
   
   in the mass-spec context:
   * V. Asgeirsson, C. Bauer and S. Grimme, Chem. Sci., 2017, 8, 4879.
     DOI: 10.1039/c7sc00601b
   * J. Koopman and S. Grimme, ACS Omega 2019, 4, 12, 15120-15133.
     DOI: 10.1021/acsomega.9b02011
   
   for metadynamics refer to:
   * S. Grimme, J. Chem. Theory Comput., 2019, 155, 2847-2862
     DOI: 10.1021/acs.jctc.9b00143
   
   for SPH calculations refer to:
   * S. Spicher and S. Grimme, J. Chem. Theory Comput., 2021, 17, 1701-1714
     DOI: 10.1021/acs.jctc.0c01306
   
   with help from (in alphabetical order)
   P. Atkinson, C. Bannwarth, F. Bohle, G. Brandenburg, E. Caldeweyher
   M. Checinski, S. Dohm, S. Ehlert, S. Ehrlich, I. Gerasimov, J. Koopman
   C. Lavigne, S. Lehtola, F. März, M. Müller, F. Musil, H. Neugebauer
   J. Pisarek, C. Plett, P. Pracht, J. Seibert, P. Shushkov, S. Spicher
   M. Stahn, M. Steiner, T. Strunk, J. Stückrath, T. Rose, and J. Unsleber
   
 * started run on 2022/02/04 at 05:00:06.626     

           -------------------------------------------------
          |                Calculation Setup                |
           -------------------------------------------------

          program call               : /ihome/ghutchison/oda6/xtb/xtb-641/bin/xtb ../../GFN2_output/65_133_130_63_65.mol --sp --alpb hexane
          hostname                   : smp-n57
          coordinate file            : ../../GFN2_output/65_133_130_63_65.mol
          omp threads                :                     8
          number of atoms            :                   139
          number of electrons        :                   506
          charge                     :                     0
          spin                       :                   0.0
          first test random number   :      0.36984393672865

   ID    Z sym.   atoms
    1    6 C      1-3, 5, 6, 8, 10, 12, 14-17, 19, 21-23, 27, 28, 32-34,
                  36-39, 41-47, 49-52, 54, 55, 57-60, 62-68, 70-73, 75-78,
                  80-82, 84-86, 88, 89, 91, 93, 95, 97-100, 102
    2    8 O      4, 79, 87
    3   17 Cl     7, 9, 11, 13, 90, 92, 94, 96
    4    7 N      18, 20, 24, 26, 29, 31, 35, 56, 101, 103
    5   16 S      25, 30, 40, 48, 53, 61, 69, 74, 83
    6    1 H      104-139

           -------------------------------------------------
          |                 G F N 2 - x T B                 |
           -------------------------------------------------

        Reference                      10.1021/acs.jctc.8b01176
      * Hamiltonian:
        H0-scaling (s, p, d)           1.850000    2.230000    2.230000
        zeta-weighting                 0.500000
      * Dispersion:
        s8                             2.700000
        a1                             0.520000
        a2                             5.000000
        s9                             5.000000
      * Repulsion:
        kExp                           1.500000    1.000000
        rExp                           1.000000
      * Coulomb:
        alpha                          2.000000
        third order                    shell-resolved
        anisotropic                    true
        a3                             3.000000
        a5                             4.000000
        cn-shift                       1.200000
        cn-exp                         4.000000
        max-rad                        5.000000

      * Solvation model:               ALPB
        Solvent                        hexane
        Parameter file                 internal GFN2-xTB/ALPB
        Dielectric constant                1.8800E+00
        Reference state                gsolv [1 M gas/solution]
        Free energy shift                  4.8134E-03 Eh       3.0204E+00 kcal/mol
        Temperature                        2.9815E+02 K
        Density                            6.6000E-01 kg/L
        Solvent mass                       8.6180E+01 g/mol
        Interaction kernel             P16
        Born radius scaling (c1)           1.1040E+00
        Born radii integrator          GBOBC
        Born offset                        0.0000E+00 a0       0.0000E+00 AA
        H-bond correction              false
        Ion screening                  false
        Surface tension                    1.0000E-05 Eh       1.5569E+01 dyn/cm
        Grid points                               230 per atom

          ...................................................
          :                      SETUP                      :
          :.................................................:
          :  # basis functions                 550          :
          :  # atomic orbitals                 533          :
          :  # shells                          259          :
          :  # electrons                       506          :
          :  max. iterations                   250          :
          :  Hamiltonian                  GFN2-xTB          :
          :  restarted?                      false          :
          :  GBSA solvation                   true          :
          :  PC potential                    false          :
          :  electronic temp.          300.0000000     K    :
          :  accuracy                    1.0000000          :
          :  -> integral cutoff          0.2500000E+02      :
          :  -> integral neglect         0.1000000E-07      :
          :  -> SCF convergence          0.1000000E-05 Eh   :
          :  -> wf. convergence          0.1000000E-03 e    :
          :  Broyden damping             0.4000000          :
          ...................................................

 iter      E             dE          RMSdq      gap      omega  full diag
   1   -285.2064763 -0.285206E+03  0.512E+00    0.57       0.0  T
   2   -285.4040967 -0.197620E+00  0.303E+00    0.61       1.0  T
   3   -285.1049424  0.299154E+00  0.181E+00    0.26       1.0  T
   4   -285.4983401 -0.393398E+00  0.747E-01    0.39       1.0  T
   5   -285.5673360 -0.689959E-01  0.282E-01    0.39       1.0  T
   6   -285.5683885 -0.105248E-02  0.170E-01    0.38       1.0  T
   7   -285.5715386 -0.315009E-02  0.885E-02    0.40       1.0  T
   8   -285.5720869 -0.548304E-03  0.453E-02    0.40       1.0  T
   9   -285.5721969 -0.110031E-03  0.284E-02    0.40       1.0  T
  10   -285.5722258 -0.289146E-04  0.191E-02    0.40       1.0  T
  11   -285.5722383 -0.125144E-04  0.130E-02    0.40       1.0  T
  12   -285.5722483 -0.100024E-04  0.753E-03    0.40       1.1  T
  13   -285.5722509 -0.256397E-05  0.446E-03    0.40       1.9  T
  14   -285.5722520 -0.108275E-05  0.285E-03    0.40       3.0  T
  15   -285.5722524 -0.400257E-06  0.208E-03    0.40       4.1  T
  16   -285.5722526 -0.207798E-06  0.130E-03    0.40       6.5  T
  17   -285.5722527 -0.113161E-06  0.801E-04    0.40      10.6  T
  18   -285.5722527 -0.246587E-07  0.518E-04    0.40      16.4  T

   *** convergence criteria satisfied after 18 iterations ***

         #    Occupation            Energy/Eh            Energy/eV
      -------------------------------------------------------------
         1        2.0000           -1.0869315             -29.5769
       ...           ...                  ...                  ...
       247        2.0000           -0.3968036             -10.7976
       248        2.0000           -0.3919656             -10.6659
       249        2.0000           -0.3819598             -10.3937
       250        2.0000           -0.3809056             -10.3650
       251        2.0000           -0.3778625             -10.2822
       252        2.0000           -0.3676061             -10.0031
       253        1.9992           -0.3641791              -9.9098 (HOMO)
       254        0.0009           -0.3494085              -9.5079 (LUMO)
       255        0.0000           -0.3416945              -9.2980
       256                         -0.3289591              -8.9514
       257                         -0.3268372              -8.8937
       258                         -0.3110159              -8.4632
       ...                                ...                  ...
       533                          1.1577879              31.5050
      -------------------------------------------------------------
                  HL-Gap            0.0147705 Eh            0.4019 eV
             Fermi-level           -0.3567812 Eh           -9.7085 eV

 SCC (total)                   0 d,  0 h,  0 min,  0.708 sec
 SCC setup                      ...        0 min,  0.004 sec (  0.607%)
 Dispersion                     ...        0 min,  0.009 sec (  1.301%)
 classical contributions        ...        0 min,  0.000 sec (  0.027%)
 integral evaluation            ...        0 min,  0.045 sec (  6.361%)
 iterations                     ...        0 min,  0.574 sec ( 81.112%)
 molecular gradient             ...        0 min,  0.072 sec ( 10.181%)
 printout                       ...        0 min,  0.003 sec (  0.398%)

         :::::::::::::::::::::::::::::::::::::::::::::::::::::
         ::                     SUMMARY                     ::
         :::::::::::::::::::::::::::::::::::::::::::::::::::::
         :: total energy            -281.737265555394 Eh    ::
         :: total w/o Gsasa/hb      -281.646363987013 Eh    ::
         :: gradient norm              0.024080166055 Eh/a0 ::
         :: HOMO-LUMO gap              0.401927001105 eV    ::
         ::.................................................::
         :: SCC energy              -285.572252731927 Eh    ::
         :: -> isotropic ES            0.218673205844 Eh    ::
         :: -> anisotropic ES          0.002348238579 Eh    ::
         :: -> anisotropic XC          0.160992287266 Eh    ::
         :: -> dispersion             -0.286506852790 Eh    ::
         :: -> Gsolv                  -0.122347934758 Eh    ::
         ::    -> Gelec               -0.031446366377 Eh    ::
         ::    -> Gsasa               -0.095714924201 Eh    ::
         ::    -> Ghb                  0.000000000000 Eh    ::
         ::    -> Gshift               0.004813355820 Eh    ::
         :: repulsion energy           3.828155015986 Eh    ::
         :: add. restraining           0.000000000000 Eh    ::
         :: total charge               0.000000001329 e     ::
         :::::::::::::::::::::::::::::::::::::::::::::::::::::

           -------------------------------------------------
          |                Property Printout                |
           -------------------------------------------------

    * Orbital Energies and Occupations

         #    Occupation            Energy/Eh            Energy/eV
      -------------------------------------------------------------
         1        2.0000           -1.0869315             -29.5769
       ...           ...                  ...                  ...
       241        2.0000           -0.4189247             -11.3995
       242        2.0000           -0.4186989             -11.3934
       243        2.0000           -0.4158469             -11.3158
       244        2.0000           -0.4120467             -11.2124
       245        2.0000           -0.4077366             -11.0951
       246        2.0000           -0.4052272             -11.0268
       247        2.0000           -0.3968036             -10.7976
       248        2.0000           -0.3919656             -10.6659
       249        2.0000           -0.3819598             -10.3937
       250        2.0000           -0.3809056             -10.3650
       251        2.0000           -0.3778625             -10.2822
       252        2.0000           -0.3676061             -10.0031
       253        1.9992           -0.3641791              -9.9098 (HOMO)
       254        0.0009           -0.3494085              -9.5079 (LUMO)
       255        0.0000           -0.3416945              -9.2980
       256                         -0.3289591              -8.9514
       257                         -0.3268372              -8.8937
       258                         -0.3110159              -8.4632
       259                         -0.3003781              -8.1737
       260                         -0.2991725              -8.1409
       261                         -0.2941387              -8.0039
       262                         -0.2781718              -7.5694
       263                         -0.2736103              -7.4453
       264                         -0.2643984              -7.1946
       ...                                ...                  ...
       533                          1.1577879              31.5050
      -------------------------------------------------------------
                  HL-Gap            0.0147705 Eh            0.4019 eV
             Fermi-level           -0.3567812 Eh           -9.7085 eV

     #   Z          covCN         q      C6AA      α(0)
     1   6 C        2.905    -0.003    28.095     8.691
     2   6 C        3.015    -0.031    28.761     8.797
     3   6 C        2.875     0.242    22.954     7.854
     4   8 O        0.856    -0.386    21.397     6.202
     5   6 C        3.078    -0.027    28.584     8.765
     6   6 C        2.912     0.098    25.817     8.332
     7  17 Cl       0.992    -0.083   101.763    15.433
     8   6 C        2.959     0.080    26.207     8.397
     9  17 Cl       1.032    -0.086   101.844    15.439
    10   6 C        2.961     0.084    26.136     8.385
    11  17 Cl       1.048    -0.084   101.787    15.435
    12   6 C        2.914     0.090    26.007     8.363
    13  17 Cl       1.004    -0.099   102.237    15.469
    14   6 C        3.064     0.008    27.783     8.643
    15   6 C        3.025     0.057    26.706     8.477
    16   6 C        2.948     0.016    27.645     8.624
    17   6 C        1.948     0.132    27.847     8.522
    18   7 N        0.911    -0.259    26.722     7.476
    19   6 C        1.948     0.140    27.680     8.496
    20   7 N        0.911    -0.286    27.366     7.566
    21   6 C        2.956    -0.023    28.586     8.770
    22   6 C        3.320     0.076    24.268     7.841
    23   6 C        3.345     0.073    23.866     7.713
    24   7 N        2.052    -0.286    28.138     7.869
    25  16 S        2.629     0.413   125.360    18.844
    26   7 N        1.856    -0.313    28.967     7.977
    27   6 C        3.018    -0.011    28.262     8.720
    28   6 C        3.338     0.070    24.064     7.764
    29   7 N        1.852    -0.308    28.835     7.959
    30  16 S        2.658     0.377   126.622    18.939
    31   7 N        1.854    -0.298    28.577     7.923
    32   6 C        3.345     0.076    23.800     7.701
    33   6 C        2.993     0.016    27.641     8.624
    34   6 C        3.045     0.058    26.651     8.467
    35   7 N        2.749    -0.009    21.435     6.876
    36   6 C        2.923     0.065    26.551     8.450
    37   6 C        2.923    -0.043    29.074     8.842
    38   6 C        2.942    -0.048    29.190     8.861
    39   6 C        2.966     0.049    26.907     8.508
    40  16 S        2.041    -0.115   145.879    20.328
    41   6 C        3.744    -0.063    21.779     6.657
    42   6 C        2.988    -0.036    28.885     8.816
    43   6 C        2.921    -0.039    28.980     8.828
    44   6 C        2.940     0.057    26.719     8.478
    45   6 C        2.920    -0.036    28.905     8.817
    46   6 C        2.986    -0.037    28.908     8.820
    47   6 C        2.966     0.053    26.803     8.492
    48  16 S        2.038    -0.149   147.337    20.430
    49   6 C        3.744    -0.056    21.658     6.639
    50   6 C        2.944    -0.041    29.021     8.836
    51   6 C        2.924    -0.037    28.919     8.819
    52   6 C        3.163     0.004    27.584     8.584
    53  16 S        2.337    -0.051   143.163    20.138
    54   6 C        3.035    -0.001    28.020     8.682
    55   6 C        3.053     0.053    26.752     8.483
    56   7 N        2.748    -0.059    22.385     7.027
    57   6 C        2.945     0.059    26.682     8.472
    58   6 C        2.926    -0.042    29.032     8.836
    59   6 C        2.946    -0.040    28.993     8.831
    60   6 C        2.967     0.052    26.827     8.496
    61  16 S        2.035    -0.167   148.113    20.483
    62   6 C        3.744    -0.055    21.636     6.635
    63   6 C        2.982    -0.035    28.871     8.814
    64   6 C        2.921    -0.037    28.932     8.821
    65   6 C        2.921     0.057    26.719     8.477
    66   6 C        2.922    -0.050    29.252     8.869
    67   6 C        2.942    -0.044    29.093     8.846
    68   6 C        2.965     0.047    26.933     8.512
    69  16 S        2.035    -0.173   148.363    20.501
    70   6 C        3.745    -0.054    21.620     6.633
    71   6 C        2.985    -0.040    28.987     8.832
    72   6 C        2.923    -0.047    29.172     8.857
    73   6 C        3.177     0.002    27.575     8.574
    74  16 S        2.486    -0.050   143.122    20.135
    75   6 C        3.029     0.032    27.268     8.565
    76   6 C        3.091    -0.049    29.113     8.844
    77   6 C        3.134    -0.011    28.067     8.672
    78   6 C        2.823     0.252    22.765     7.818
    79   8 O        0.860    -0.391    21.495     6.216
    80   6 C        3.804    -0.078    21.984     6.675
    81   6 C        3.757    -0.098    22.427     6.752
    82   6 C        2.996     0.045    26.978     8.520
    83  16 S        2.393     0.027   139.961    19.912
    84   6 C        2.929    -0.013    28.337     8.730
    85   6 C        3.020    -0.011    28.277     8.723
    86   6 C        2.864     0.269    22.473     7.770
    87   8 O        0.856    -0.393    21.547     6.224
    88   6 C        3.076    -0.019    28.398     8.737
    89   6 C        2.912     0.101    25.757     8.322
    90  17 Cl       0.995    -0.079   101.621    15.422
    91   6 C        2.960     0.082    26.164     8.390
    92  17 Cl       1.032    -0.079   101.633    15.423
    93   6 C        2.962     0.085    26.110     8.381
    94  17 Cl       1.051    -0.080   101.676    15.427
    95   6 C        2.915     0.090    25.991     8.360
    96  17 Cl       1.008    -0.093   102.062    15.456
    97   6 C        3.055     0.010    27.746     8.639
    98   6 C        3.016     0.050    26.862     8.502
    99   6 C        2.949     0.020    27.555     8.610
   100   6 C        1.948     0.134    27.811     8.516
   101   7 N        0.911    -0.257    26.664     7.468
   102   6 C        1.947     0.135    27.784     8.512
   103   7 N        0.911    -0.248    26.455     7.439
   104   1 H        0.925     0.092     1.863     2.134
   105   1 H        0.926     0.055     2.253     2.347
   106   1 H        0.926     0.056     2.247     2.344
   107   1 H        0.925     0.071     2.076     2.253
   108   1 H        0.925     0.071     2.075     2.253
   109   1 H        0.925     0.078     1.997     2.210
   110   1 H        0.926     0.078     1.997     2.210
   111   1 H        0.926     0.047     2.352     2.398
   112   1 H        0.926     0.055     2.262     2.352
   113   1 H        0.926     0.060     2.198     2.318
   114   1 H        0.925     0.073     2.055     2.242
   115   1 H        0.925     0.065     2.138     2.287
   116   1 H        0.925     0.068     2.107     2.270
   117   1 H        0.926     0.056     2.244     2.343
   118   1 H        0.926     0.050     2.322     2.383
   119   1 H        0.926     0.046     2.364     2.405
   120   1 H        0.926     0.052     2.298     2.371
   121   1 H        0.925     0.059     2.216     2.328
   122   1 H        0.925     0.070     2.083     2.257
   123   1 H        0.925     0.066     2.133     2.284
   124   1 H        0.926     0.058     2.223     2.332
   125   1 H        0.926     0.051     2.309     2.376
   126   1 H        0.926     0.038     2.476     2.461
   127   1 H        0.926     0.049     2.329     2.386
   128   1 H        0.925     0.066     2.128     2.281
   129   1 H        0.925     0.071     2.072     2.251
   130   1 H        0.925     0.064     2.156     2.296
   131   1 H        0.926     0.053     2.286     2.364
   132   1 H        0.926     0.045     2.379     2.412
   133   1 H        0.926     0.062     2.175     2.306
   134   1 H        0.924     0.071     2.073     2.251
   135   1 H        0.925     0.069     2.093     2.262
   136   1 H        0.925     0.040     2.449     2.447
   137   1 H        0.925     0.070     2.086     2.259
   138   1 H        0.925     0.044     2.394     2.420
   139   1 H        0.925     0.081     1.964     2.192

 Mol. C6AA /au·bohr⁶  :     466738.046339
 Mol. C8AA /au·bohr⁸  :   14332760.609524
 Mol. α(0) /au        :       1092.823434


Wiberg/Mayer (AO) data.
largest (>0.10) Wiberg bond orders for each atom

 ---------------------------------------------------------------------------
     #   Z sym  total        # sym  WBO       # sym  WBO       # sym  WBO
 ---------------------------------------------------------------------------
     1   6 C    3.941 --     2 C    1.488    21 C    1.284   104 H    0.948
     2   6 C    3.913 --     1 C    1.488    15 C    1.151     3 C    1.036
     3   6 C    3.921 --     4 O    1.751     2 C    1.036     5 C    1.005
     4   8 O    2.032 --     3 C    1.751
     5   6 C    3.970 --     6 C    1.386    14 C    1.276     3 C    1.005
     6   6 C    3.929 --     5 C    1.386     8 C    1.310     7 Cl   1.033
     7  17 Cl   1.199 --     6 C    1.033
     8   6 C    3.923 --    10 C    1.372     6 C    1.310     9 Cl   1.026
     9  17 Cl   1.184 --     8 C    1.026
    10   6 C    3.929 --     8 C    1.372    12 C    1.316    11 Cl   1.028
    11  17 Cl   1.186 --    10 C    1.028
    12   6 C    3.919 --    14 C    1.376    10 C    1.316    13 Cl   1.018
    13  17 Cl   1.186 --    12 C    1.018
    14   6 C    3.980 --    12 C    1.376     5 C    1.276    15 C    1.072
    15   6 C    3.963 --    16 C    1.463     2 C    1.151    14 C    1.072
    16   6 C    3.952 --    15 C    1.463    19 C    1.103    17 C    1.100
    17   6 C    3.945 --    18 N    2.758    16 C    1.100
    18   7 N    2.962 --    17 C    2.758
    19   6 C    3.942 --    20 N    2.746    16 C    1.103
    20   7 N    2.966 --    19 C    2.746
    21   6 C    3.915 --     1 C    1.284    22 C    1.204    32 C    1.195
    22   6 C    3.966 --    26 N    1.382    21 C    1.204    23 C    1.156
    23   6 C    3.966 --    24 N    1.388    27 C    1.196    22 C    1.156
    24   7 N    3.127 --    23 C    1.388    25 S    1.387    26 N    0.135
                            74 S    0.116
    25  16 S    3.101 --    26 N    1.400    24 N    1.387
    26   7 N    3.048 --    25 S    1.400    22 C    1.382    24 N    0.135
    27   6 C    3.924 --    33 C    1.278    28 C    1.206    23 C    1.196
    28   6 C    3.966 --    29 N    1.384    27 C    1.206    32 C    1.148
    29   7 N    3.059 --    30 S    1.406    28 C    1.384    31 N    0.143
    30  16 S    3.147 --    29 N    1.406    31 N    1.392
    31   7 N    3.059 --    32 C    1.403    30 S    1.392    29 N    0.143
    32   6 C    3.968 --    31 N    1.403    21 C    1.195    28 C    1.148
    33   6 C    3.923 --    34 C    1.286    27 C    1.278    74 S    1.093
    34   6 C    3.906 --    33 C    1.286    52 C    1.229    35 N    1.166
    35   7 N    3.534 --    34 C    1.166    36 C    1.079    44 C    1.025
    36   6 C    3.954 --    37 C    1.338    43 C    1.325    35 N    1.079
    37   6 C    3.967 --    38 C    1.473    36 C    1.338   105 H    0.963
    38   6 C    3.983 --    37 C    1.473    39 C    1.364   106 H    0.963
    39   6 C    3.946 --    38 C    1.364    42 C    1.343    40 S    1.086
    40  16 S    2.306 --    39 C    1.086    41 C    1.008
    41   6 C    3.968 --    40 S    1.008   107 H    0.979   108 H    0.979
                           109 H    0.976
    42   6 C    3.981 --    43 C    1.501    39 C    1.343   110 H    0.960
    43   6 C    3.977 --    42 C    1.501    36 C    1.325   111 H    0.964
    44   6 C    3.954 --    51 C    1.366    45 C    1.352    35 N    1.025
    45   6 C    3.974 --    46 C    1.483    44 C    1.352   112 H    0.965
    46   6 C    3.986 --    45 C    1.483    47 C    1.358   113 H    0.966
    47   6 C    3.949 --    50 C    1.380    46 C    1.358    48 S    1.071
    48  16 S    2.276 --    47 C    1.071    49 C    1.008
    49   6 C    3.970 --    48 S    1.008   115 H    0.980   116 H    0.980
                           114 H    0.977
    50   6 C    3.984 --    51 C    1.455    47 C    1.380   117 H    0.963
    51   6 C    3.978 --    50 C    1.455    44 C    1.366   118 H    0.966
    52   6 C    3.928 --    73 C    1.371    34 C    1.229    53 S    1.103
    53  16 S    2.540 --    52 C    1.103    54 C    1.088
    54   6 C    3.892 --    55 C    1.363    75 C    1.201    53 S    1.088
    55   6 C    3.945 --    54 C    1.363    73 C    1.227    56 N    1.117
    56   7 N    3.485 --    55 C    1.117    65 C    1.056    57 C    1.019
    57   6 C    3.959 --    58 C    1.374    64 C    1.360    56 N    1.019
    58   6 C    3.983 --    59 C    1.447    57 C    1.374   119 H    0.967
                            63 C    0.101
    59   6 C    3.987 --    58 C    1.447    60 C    1.389   120 H    0.964
    60   6 C    3.954 --    59 C    1.389    63 C    1.368    61 S    1.050
    61  16 S    2.253 --    60 C    1.050    62 C    1.007
    62   6 C    3.973 --    61 S    1.007   121 H    0.982   123 H    0.981
                           122 H    0.978
    63   6 C    3.987 --    64 C    1.475    60 C    1.368   124 H    0.966
                            58 C    0.101
    64   6 C    3.981 --    63 C    1.475    57 C    1.360   125 H    0.965
    65   6 C    3.960 --    66 C    1.367    72 C    1.343    56 N    1.056
    66   6 C    3.984 --    67 C    1.451    65 C    1.367   126 H    0.966
    67   6 C    3.988 --    66 C    1.451    68 C    1.385   127 H    0.964
    68   6 C    3.951 --    67 C    1.385    71 C    1.360    69 S    1.055
    69  16 S    2.264 --    68 C    1.055    70 C    1.009
    70   6 C    3.972 --    69 S    1.009   130 H    0.981   128 H    0.980
                           129 H    0.977
    71   6 C    3.989 --    72 C    1.482    68 C    1.360   131 H    0.967
    72   6 C    3.980 --    71 C    1.482    65 C    1.343   132 H    0.966
    73   6 C    3.916 --    52 C    1.371    55 C    1.227    74 S    1.098
    74  16 S    2.658 --    73 C    1.098    33 C    1.093    24 N    0.116
    75   6 C    3.937 --    76 C    1.440    54 C    1.201    83 S    1.132
    76   6 C    3.952 --    75 C    1.440    77 C    1.320   133 H    0.955
    77   6 C    3.975 --    82 C    1.358    76 C    1.320    78 C    1.037
    78   6 C    3.901 --    79 O    1.759    77 C    1.037    80 C    0.983
    79   8 O    2.111 --    78 C    1.759
    80   6 C    3.988 --    78 C    0.983    81 C    0.982   134 H    0.971
                           135 H    0.957
    81   6 C    3.990 --   138 H    0.987   136 H    0.986    80 C    0.982
                           137 H    0.976
    82   6 C    3.928 --    77 C    1.358    84 C    1.217    83 S    1.141
    83  16 S    2.602 --    82 C    1.141    75 C    1.132
    84   6 C    3.949 --    85 C    1.571    82 C    1.217   139 H    0.944
    85   6 C    3.961 --    84 C    1.571    98 C    1.143    86 C    0.982
    86   6 C    3.924 --    87 O    1.753    88 C    1.007    85 C    0.982
    87   8 O    2.052 --    86 C    1.753
    88   6 C    3.972 --    89 C    1.384    97 C    1.276    86 C    1.007
    89   6 C    3.935 --    88 C    1.384    91 C    1.315    90 Cl   1.037
    90  17 Cl   1.205 --    89 C    1.037
    91   6 C    3.924 --    93 C    1.364    89 C    1.315    92 Cl   1.031
    92  17 Cl   1.190 --    91 C    1.031
    93   6 C    3.931 --    91 C    1.364    95 C    1.324    94 Cl   1.031
    94  17 Cl   1.190 --    93 C    1.031
    95   6 C    3.921 --    97 C    1.362    93 C    1.324    96 Cl   1.022
    96  17 Cl   1.195 --    95 C    1.022
    97   6 C    3.982 --    95 C    1.362    88 C    1.276    98 C    1.087
    98   6 C    3.964 --    99 C    1.472    85 C    1.143    97 C    1.087
    99   6 C    3.948 --    98 C    1.472   102 C    1.100   100 C    1.095
   100   6 C    3.944 --   101 N    2.759    99 C    1.095
   101   7 N    2.967 --   100 C    2.759
   102   6 C    3.945 --   103 N    2.761    99 C    1.100
   103   7 N    2.961 --   102 C    2.761
   104   1 H    0.988 --     1 C    0.948
   105   1 H    0.997 --    37 C    0.963
   106   1 H    0.996 --    38 C    0.963
   107   1 H    0.994 --    41 C    0.979
   108   1 H    0.993 --    41 C    0.979
   109   1 H    0.993 --    41 C    0.976
   110   1 H    0.993 --    42 C    0.960
   111   1 H    0.997 --    43 C    0.964
   112   1 H    0.996 --    45 C    0.965
   113   1 H    0.996 --    46 C    0.966
   114   1 H    0.994 --    49 C    0.977
   115   1 H    0.994 --    49 C    0.980
   116   1 H    0.995 --    49 C    0.980
   117   1 H    0.996 --    50 C    0.963
   118   1 H    0.997 --    51 C    0.966
   119   1 H    0.998 --    58 C    0.967
   120   1 H    0.997 --    59 C    0.964
   121   1 H    0.996 --    62 C    0.982
   122   1 H    0.995 --    62 C    0.978
   123   1 H    0.995 --    62 C    0.981
   124   1 H    0.996 --    63 C    0.966
   125   1 H    0.997 --    64 C    0.965
   126   1 H    0.999 --    66 C    0.966
   127   1 H    0.997 --    67 C    0.964
   128   1 H    0.995 --    70 C    0.980
   129   1 H    0.995 --    70 C    0.977
   130   1 H    0.996 --    70 C    0.981
   131   1 H    0.997 --    71 C    0.967
   132   1 H    0.997 --    72 C    0.966
   133   1 H    0.996 --    76 C    0.955
   134   1 H    0.994 --    80 C    0.971
   135   1 H    0.995 --    80 C    0.957
   136   1 H    0.998 --    81 C    0.986
   137   1 H    0.994 --    81 C    0.976
   138   1 H    0.998 --    81 C    0.987
   139   1 H    0.990 --    84 C    0.944
 ---------------------------------------------------------------------------

Topologies differ in bond orders
Writing corrected topology to xtbtopo.mol

molecular dipole:
                 x           y           z       tot (Debye)
 q only:       -0.504      -1.950      -2.212
   full:       -1.229      -2.493      -1.442       7.958
molecular quadrupole (traceless):
                xx          xy          yy          xz          yz          zz
 q only:      -41.025     149.532     -62.834      82.568     -35.989     103.859
  q+dip:      -45.655     132.588     -42.089      67.074     -36.350      87.744
   full:      -44.912     134.640     -45.492      69.303     -40.514      90.403


           -------------------------------------------------
          | TOTAL ENERGY             -281.737265555394 Eh   |
          | GRADIENT NORM               0.024080166055 Eh/α |
          | HOMO-LUMO GAP               0.401927001105 eV   |
           -------------------------------------------------

------------------------------------------------------------------------
 * finished run on 2022/02/04 at 05:00:07.427     
------------------------------------------------------------------------
 total:
 * wall-time:     0 d,  0 h,  0 min,  0.801 sec
 *  cpu-time:     0 d,  0 h,  0 min,  6.327 sec
 * ratio c/w:     7.897 speedup
 SCF:
 * wall-time:     0 d,  0 h,  0 min,  0.712 sec
 *  cpu-time:     0 d,  0 h,  0 min,  5.692 sec
 * ratio c/w:     7.995 speedup

