      -----------------------------------------------------------      
     |                   =====================                   |     
     |                           x T B                           |     
     |                   =====================                   |     
     |                         S. Grimme                         |     
     |          Mulliken Center for Theoretical Chemistry        |     
     |                    University of Bonn                     |     
      -----------------------------------------------------------      

   * xtb version 6.4.1 (unknown) compiled by 'oda6@login1.crc.pitt.edu' on 2021-06-25

   xtb is free software: you can redistribute it and/or modify it under
   the terms of the GNU Lesser General Public License as published by
   the Free Software Foundation, either version 3 of the License, or
   (at your option) any later version.
   
   xtb is distributed in the hope that it will be useful,
   but WITHOUT ANY WARRANTY; without even the implied warranty of
   MERCHANTABILITY or FITNESS FOR A PARTICULAR PURPOSE.  See the
   GNU Lesser General Public License for more details.
   
   Cite this work as:
   * C. Bannwarth, E. Caldeweyher, S. Ehlert, A. Hansen, P. Pracht,
     J. Seibert, S. Spicher, S. Grimme, WIREs Comput. Mol. Sci., 2020, 11,
     e01493. DOI: 10.1002/wcms.1493
   
   for GFN2-xTB:
   * C. Bannwarth, S. Ehlert and S. Grimme., J. Chem. Theory Comput., 2019,
     15, 1652-1671. DOI: 10.1021/acs.jctc.8b01176
   for GFN1-xTB:
   * S. Grimme, C. Bannwarth, P. Shushkov, J. Chem. Theory Comput., 2017,
     13, 1989-2009. DOI: 10.1021/acs.jctc.7b00118
   for GFN0-xTB:
   * P. Pracht, E. Caldeweyher, S. Ehlert, S. Grimme, ChemRxiv, 2019, preprint.
     DOI: 10.26434/chemrxiv.8326202.v1
   for GFN-FF:
   * S. Spicher and S. Grimme, Angew. Chem. Int. Ed., 2020, 59, 15665-15673.
     DOI: 10.1002/anie.202004239
   
   for DFT-D4:
   * E. Caldeweyher, C. Bannwarth and S. Grimme, J. Chem. Phys., 2017,
     147, 034112. DOI: 10.1063/1.4993215
   * E. Caldeweyher, S. Ehlert, A. Hansen, H. Neugebauer, S. Spicher,
     C. Bannwarth and S. Grimme, J. Chem. Phys., 2019, 150, 154122.
     DOI: 10.1063/1.5090222
   * E. Caldeweyher, J.-M. Mewes, S. Ehlert and S. Grimme, Phys. Chem. Chem. Phys.
     2020, 22, 8499-8512. DOI: 10.1039/D0CP00502A
   
   for sTDA-xTB:
   * S. Grimme and C. Bannwarth, J. Chem. Phys., 2016, 145, 054103.
     DOI: 10.1063/1.4959605
   
   in the mass-spec context:
   * V. Asgeirsson, C. Bauer and S. Grimme, Chem. Sci., 2017, 8, 4879.
     DOI: 10.1039/c7sc00601b
   * J. Koopman and S. Grimme, ACS Omega 2019, 4, 12, 15120-15133.
     DOI: 10.1021/acsomega.9b02011
   
   for metadynamics refer to:
   * S. Grimme, J. Chem. Theory Comput., 2019, 155, 2847-2862
     DOI: 10.1021/acs.jctc.9b00143
   
   for SPH calculations refer to:
   * S. Spicher and S. Grimme, J. Chem. Theory Comput., 2021, 17, 1701-1714
     DOI: 10.1021/acs.jctc.0c01306
   
   with help from (in alphabetical order)
   P. Atkinson, C. Bannwarth, F. Bohle, G. Brandenburg, E. Caldeweyher
   M. Checinski, S. Dohm, S. Ehlert, S. Ehrlich, I. Gerasimov, J. Koopman
   C. Lavigne, S. Lehtola, F. März, M. Müller, F. Musil, H. Neugebauer
   J. Pisarek, C. Plett, P. Pracht, J. Seibert, P. Shushkov, S. Spicher
   M. Stahn, M. Steiner, T. Strunk, J. Stückrath, T. Rose, and J. Unsleber
   
 * started run on 2022/02/11 at 17:45:43.658     

           -------------------------------------------------
          |                Calculation Setup                |
           -------------------------------------------------

          program call               : /ihome/ghutchison/oda6/xtb/xtb-641/bin/xtb ../../GFN2_output/66_28_130_28_60.mol --sp --alpb hexane
          hostname                   : smp-n25
          coordinate file            : ../../GFN2_output/66_28_130_28_60.mol
          omp threads                :                     8
          number of atoms            :                   250
          number of electrons        :                   760
          charge                     :                     0
          spin                       :                   0.0
          first test random number   :      0.77876672809719

   ID    Z sym.   atoms
    1    6 C      1-3, 5-9, 11, 13-19, 21, 23, 24, 26-40, 42, 43, 45-59, 61,
                  62, 64-67, 69-75, 77-80, 82, 83, 85-88, 90-96, 98-101, 103,
                  104, 106-120, 122, 123, 125-139, 141-143, 145-147, 149-153,
                  155
    2    8 O      4, 144
    3    9 F      10, 12
    4    7 N      20, 22, 25, 44, 63, 84, 105, 124, 154, 156
    5   16 S      41, 60, 68, 76, 81, 89, 97, 102, 121, 140, 148
    6    1 H      157-250

           -------------------------------------------------
          |                 G F N 2 - x T B                 |
           -------------------------------------------------

        Reference                      10.1021/acs.jctc.8b01176
      * Hamiltonian:
        H0-scaling (s, p, d)           1.850000    2.230000    2.230000
        zeta-weighting                 0.500000
      * Dispersion:
        s8                             2.700000
        a1                             0.520000
        a2                             5.000000
        s9                             5.000000
      * Repulsion:
        kExp                           1.500000    1.000000
        rExp                           1.000000
      * Coulomb:
        alpha                          2.000000
        third order                    shell-resolved
        anisotropic                    true
        a3                             3.000000
        a5                             4.000000
        cn-shift                       1.200000
        cn-exp                         4.000000
        max-rad                        5.000000

      * Solvation model:               ALPB
        Solvent                        hexane
        Parameter file                 internal GFN2-xTB/ALPB
        Dielectric constant                1.8800E+00
        Reference state                gsolv [1 M gas/solution]
        Free energy shift                  4.8134E-03 Eh       3.0204E+00 kcal/mol
        Temperature                        2.9815E+02 K
        Density                            6.6000E-01 kg/L
        Solvent mass                       8.6180E+01 g/mol
        Interaction kernel             P16
        Born radius scaling (c1)           1.1040E+00
        Born radii integrator          GBOBC
        Born offset                        0.0000E+00 a0       0.0000E+00 AA
        H-bond correction              false
        Ion screening                  false
        Surface tension                    1.0000E-05 Eh       1.5569E+01 dyn/cm
        Grid points                               230 per atom

          ...................................................
          :                      SETUP                      :
          :.................................................:
          :  # basis functions                 784          :
          :  # atomic orbitals                 773          :
          :  # shells                          417          :
          :  # electrons                       760          :
          :  max. iterations                   250          :
          :  Hamiltonian                  GFN2-xTB          :
          :  restarted?                      false          :
          :  GBSA solvation                   true          :
          :  PC potential                    false          :
          :  electronic temp.          300.0000000     K    :
          :  accuracy                    1.0000000          :
          :  -> integral cutoff          0.2500000E+02      :
          :  -> integral neglect         0.1000000E-07      :
          :  -> SCF convergence          0.1000000E-05 Eh   :
          :  -> wf. convergence          0.1000000E-03 e    :
          :  Broyden damping             0.4000000          :
          ...................................................

 iter      E             dE          RMSdq      gap      omega  full diag
   1   -417.6585935 -0.417659E+03  0.439E+00    0.82       0.0  T
   2   -417.8854752 -0.226882E+00  0.253E+00    0.77       1.0  T
   3   -417.6679023  0.217573E+00  0.126E+00    0.40       1.0  T
   4   -417.9394073 -0.271505E+00  0.466E-01    0.52       1.0  T
   5   -417.9700688 -0.306615E-01  0.158E-01    0.47       1.0  T
   6   -417.9716195 -0.155071E-02  0.663E-02    0.50       1.0  T
   7   -417.9720270 -0.407546E-03  0.244E-02    0.50       1.0  T
   8   -417.9720596 -0.325748E-04  0.140E-02    0.51       1.0  T
   9   -417.9720751 -0.155352E-04  0.722E-03    0.51       1.0  T
  10   -417.9720798 -0.471049E-05  0.336E-03    0.51       1.9  T
  11   -417.9720813 -0.143599E-05  0.155E-03    0.51       4.1  T
  12   -417.9720814 -0.119188E-06  0.842E-04    0.51       7.5  T
  13   -417.9720814 -0.469155E-07  0.399E-04    0.51      15.9  T

   *** convergence criteria satisfied after 13 iterations ***

         #    Occupation            Energy/Eh            Energy/eV
      -------------------------------------------------------------
         1        2.0000           -0.8422948             -22.9200
       ...           ...                  ...                  ...
       374        2.0000           -0.3704400             -10.0802
       375        2.0000           -0.3665073              -9.9732
       376        2.0000           -0.3619603              -9.8494
       377        2.0000           -0.3599519              -9.7948
       378        2.0000           -0.3565477              -9.7022
       379        2.0000           -0.3508503              -9.5471
       380        1.9999           -0.3475398              -9.4570 (HOMO)
       381        0.0001           -0.3287766              -8.9465 (LUMO)
       382                         -0.3180362              -8.6542
       383                         -0.3122235              -8.4960
       384                         -0.3005578              -8.1786
       385                         -0.2961080              -8.0575
       ...                                ...                  ...
       773                          1.1671071              31.7586
      -------------------------------------------------------------
                  HL-Gap            0.0187632 Eh            0.5106 eV
             Fermi-level           -0.3381438 Eh           -9.2014 eV

 SCC (total)                   0 d,  0 h,  0 min,  3.273 sec
 SCC setup                      ...        0 min,  0.014 sec (  0.413%)
 Dispersion                     ...        0 min,  0.025 sec (  0.772%)
 classical contributions        ...        0 min,  0.001 sec (  0.042%)
 integral evaluation            ...        0 min,  0.083 sec (  2.532%)
 iterations                     ...        0 min,  2.897 sec ( 88.514%)
 molecular gradient             ...        0 min,  0.244 sec (  7.459%)
 printout                       ...        0 min,  0.009 sec (  0.266%)

         :::::::::::::::::::::::::::::::::::::::::::::::::::::
         ::                     SUMMARY                     ::
         :::::::::::::::::::::::::::::::::::::::::::::::::::::
         :: total energy            -411.146890550214 Eh    ::
         :: total w/o Gsasa/hb      -411.020787155737 Eh    ::
         :: gradient norm              0.024698783298 Eh/a0 ::
         :: HOMO-LUMO gap              0.510573871227 eV    ::
         ::.................................................::
         :: SCC energy              -417.972081445369 Eh    ::
         :: -> isotropic ES            0.179740833486 Eh    ::
         :: -> anisotropic ES          0.026566249060 Eh    ::
         :: -> anisotropic XC          0.240129609066 Eh    ::
         :: -> dispersion             -0.483555177635 Eh    ::
         :: -> Gsolv                  -0.154659007935 Eh    ::
         ::    -> Gelec               -0.028555613458 Eh    ::
         ::    -> Gsasa               -0.130916750297 Eh    ::
         ::    -> Ghb                  0.000000000000 Eh    ::
         ::    -> Gshift               0.004813355820 Eh    ::
         :: repulsion energy           6.798776356889 Eh    ::
         :: add. restraining           0.000000000000 Eh    ::
         :: total charge               0.000000000242 e     ::
         :::::::::::::::::::::::::::::::::::::::::::::::::::::

           -------------------------------------------------
          |                Property Printout                |
           -------------------------------------------------

    * Orbital Energies and Occupations

         #    Occupation            Energy/Eh            Energy/eV
      -------------------------------------------------------------
         1        2.0000           -0.8422948             -22.9200
       ...           ...                  ...                  ...
       368        2.0000           -0.3905562             -10.6276
       369        2.0000           -0.3872415             -10.5374
       370        2.0000           -0.3846320             -10.4664
       371        2.0000           -0.3819323             -10.3929
       372        2.0000           -0.3758518             -10.2274
       373        2.0000           -0.3719850             -10.1222
       374        2.0000           -0.3704400             -10.0802
       375        2.0000           -0.3665073              -9.9732
       376        2.0000           -0.3619603              -9.8494
       377        2.0000           -0.3599519              -9.7948
       378        2.0000           -0.3565477              -9.7022
       379        2.0000           -0.3508503              -9.5471
       380        1.9999           -0.3475398              -9.4570 (HOMO)
       381        0.0001           -0.3287766              -8.9465 (LUMO)
       382                         -0.3180362              -8.6542
       383                         -0.3122235              -8.4960
       384                         -0.3005578              -8.1786
       385                         -0.2961080              -8.0575
       386                         -0.2846774              -7.7465
       387                         -0.2707700              -7.3680
       388                         -0.2579461              -7.0191
       389                         -0.2528491              -6.8804
       390                         -0.2499414              -6.8013
       391                         -0.2476171              -6.7380
       ...                                ...                  ...
       773                          1.1671071              31.7586
      -------------------------------------------------------------
                  HL-Gap            0.0187632 Eh            0.5106 eV
             Fermi-level           -0.3381438 Eh           -9.2014 eV

     #   Z          covCN         q      C6AA      α(0)
     1   6 C        2.954    -0.012    28.316     8.728
     2   6 C        3.016    -0.045    29.104     8.849
     3   6 C        2.869     0.228    23.218     7.899
     4   8 O        0.856    -0.446    22.613     6.376
     5   6 C        3.039    -0.018    28.410     8.742
     6   6 C        2.913    -0.019    28.491     8.753
     7   6 C        2.990     0.017    27.626     8.622
     8   6 C        2.919    -0.053    29.313     8.878
     9   6 C        2.775     0.163    24.465     8.101
    10   9 F        0.787    -0.218    11.421     3.992
    11   6 C        2.775     0.164    24.456     8.100
    12   9 F        0.787    -0.217    11.413     3.991
    13   6 C        2.920    -0.052    29.299     8.876
    14   6 C        2.989     0.018    27.597     8.617
    15   6 C        2.915    -0.030    28.737     8.791
    16   6 C        3.029     0.008    27.815     8.651
    17   6 C        3.021     0.032    27.251     8.563
    18   6 C        2.948    -0.002    28.087     8.692
    19   6 C        1.936     0.129    27.930     8.535
    20   7 N        0.911    -0.281    27.260     7.551
    21   6 C        1.936     0.131    27.890     8.529
    22   7 N        0.911    -0.283    27.299     7.557
    23   6 C        2.989     0.014    27.686     8.631
    24   6 C        3.037     0.074    26.316     8.414
    25   7 N        2.749    -0.025    21.721     6.922
    26   6 C        2.923     0.062    26.610     8.459
    27   6 C        2.921    -0.042    29.037     8.837
    28   6 C        2.924    -0.041    29.015     8.833
    29   6 C        2.965     0.016    27.640     8.624
    30   6 C        3.758    -0.113    22.721     6.796
    31   6 C        2.925    -0.039    28.961     8.825
    32   6 C        2.920    -0.045    29.120     8.849
    33   6 C        2.940     0.060    26.660     8.468
    34   6 C        2.922    -0.037    28.911     8.817
    35   6 C        2.926    -0.038    28.940     8.822
    36   6 C        2.966     0.020    27.551     8.610
    37   6 C        3.758    -0.111    22.682     6.790
    38   6 C        2.925    -0.039    28.976     8.828
    39   6 C        2.919    -0.042    29.034     8.836
    40   6 C        3.173     0.004    27.549     8.573
    41  16 S        2.453    -0.054   143.279    20.146
    42   6 C        3.042     0.008    27.809     8.649
    43   6 C        3.052     0.053    26.759     8.484
    44   7 N        2.746    -0.077    22.732     7.081
    45   6 C        2.942     0.061    26.643     8.466
    46   6 C        2.920    -0.042    29.032     8.836
    47   6 C        2.925    -0.040    28.990     8.830
    48   6 C        2.966     0.018    27.602     8.618
    49   6 C        3.758    -0.114    22.734     6.798
    50   6 C        2.926    -0.039    28.976     8.828
    51   6 C        2.922    -0.047    29.168     8.857
    52   6 C        2.919     0.060    26.648     8.465
    53   6 C        2.921    -0.058    29.451     8.899
    54   6 C        2.926    -0.043    29.073     8.842
    55   6 C        2.965     0.008    27.836     8.654
    56   6 C        3.757    -0.110    22.659     6.787
    57   6 C        2.927    -0.039    28.978     8.828
    58   6 C        2.924    -0.052    29.302     8.877
    59   6 C        3.178     0.014    27.286     8.529
    60  16 S        2.276    -0.056   143.358    20.152
    61   6 C        3.057     0.010    27.727     8.635
    62   6 C        3.075     0.050    26.795     8.487
    63   7 N        2.745    -0.104    23.275     7.165
    64   6 C        2.939     0.064    26.571     8.454
    65   6 C        2.922    -0.045    29.108     8.847
    66   6 C        2.983    -0.040    28.982     8.831
    67   6 C        2.965     0.046    26.976     8.519
    68  16 S        2.032    -0.191   149.169    20.556
    69   6 C        3.744    -0.049    21.533     6.620
    70   6 C        2.942    -0.046    29.137     8.853
    71   6 C        2.925    -0.051    29.258     8.870
    72   6 C        2.920     0.065    26.554     8.450
    73   6 C        2.926    -0.051    29.267     8.872
    74   6 C        2.942    -0.046    29.134     8.853
    75   6 C        2.966     0.043    27.038     8.529
    76  16 S        2.032    -0.202   149.652    20.589
    77   6 C        3.744    -0.048    21.505     6.615
    78   6 C        2.985    -0.038    28.939     8.824
    79   6 C        2.924    -0.052    29.291     8.875
    80   6 C        3.197     0.006    27.353     8.525
    81  16 S        2.269    -0.065   143.733    20.178
    82   6 C        3.043    -0.009    28.207     8.711
    83   6 C        3.049     0.054    26.741     8.481
    84   7 N        2.744    -0.112    23.436     7.190
    85   6 C        2.936     0.064    26.570     8.454
    86   6 C        2.924    -0.042    29.054     8.839
    87   6 C        2.945    -0.045    29.123     8.851
    88   6 C        2.966     0.049    26.890     8.506
    89  16 S        2.034    -0.175   148.453    20.507
    90   6 C        3.744    -0.054    21.621     6.633
    91   6 C        2.983    -0.038    28.941     8.825
    92   6 C        2.924    -0.037    28.927     8.820
    93   6 C        2.944     0.060    26.649     8.467
    94   6 C        2.926    -0.041    29.030     8.836
    95   6 C        2.945    -0.044    29.082     8.845
    96   6 C        2.966     0.048    26.931     8.512
    97  16 S        2.033    -0.181   148.706    20.524
    98   6 C        3.744    -0.048    21.508     6.616
    99   6 C        2.982    -0.040    28.984     8.831
   100   6 C        2.922    -0.041    29.029     8.835
   101   6 C        3.169    -0.003    27.731     8.604
   102  16 S        2.459    -0.054   143.287    20.147
   103   6 C        3.032    -0.005    28.120     8.698
   104   6 C        3.034     0.050    26.852     8.500
   105   7 N        2.748    -0.073    22.661     7.070
   106   6 C        2.930     0.059    26.678     8.471
   107   6 C        2.919    -0.047    29.179     8.858
   108   6 C        2.925    -0.041    29.014     8.833
   109   6 C        2.966     0.012    27.746     8.640
   110   6 C        3.758    -0.109    22.627     6.782
   111   6 C        2.925    -0.041    29.017     8.834
   112   6 C        2.924    -0.044    29.081     8.844
   113   6 C        2.933     0.059    26.675     8.470
   114   6 C        2.922    -0.045    29.123     8.850
   115   6 C        2.926    -0.040    28.994     8.830
   116   6 C        2.966     0.017    27.617     8.620
   117   6 C        3.758    -0.112    22.684     6.790
   118   6 C        2.925    -0.033    28.823     8.804
   119   6 C        2.938    -0.045    29.121     8.850
   120   6 C        3.169    -0.004    27.758     8.608
   121  16 S        2.340    -0.017   141.737    20.038
   122   6 C        2.985     0.008    27.832     8.654
   123   6 C        3.047     0.060    26.612     8.461
   124   7 N        2.748    -0.046    22.134     6.987
   125   6 C        2.924     0.056    26.738     8.480
   126   6 C        2.920    -0.039    28.971     8.827
   127   6 C        2.926    -0.036    28.900     8.816
   128   6 C        2.965     0.013    27.728     8.637
   129   6 C        3.758    -0.112    22.697     6.792
   130   6 C        2.925    -0.042    29.045     8.838
   131   6 C        2.919    -0.051    29.266     8.871
   132   6 C        2.934     0.060    26.658     8.468
   133   6 C        2.920    -0.044    29.093     8.845
   134   6 C        2.925    -0.039    28.974     8.827
   135   6 C        2.966     0.019    27.581     8.614
   136   6 C        3.758    -0.114    22.728     6.797
   137   6 C        2.925    -0.036    28.902     8.816
   138   6 C        2.922    -0.040    28.986     8.829
   139   6 C        3.155     0.003    27.655     8.600
   140  16 S        2.266    -0.090   144.807    20.253
   141   6 C        2.921    -0.015    28.390     8.738
   142   6 C        3.020    -0.042    29.008     8.835
   143   6 C        2.863     0.235    23.097     7.878
   144   8 O        0.957    -0.416    21.961     6.285
   145   6 C        3.254    -0.049    28.071     8.571
   146   6 C        3.231    -0.012    27.480     8.511
   147   6 C        2.927    -0.022    28.548     8.762
   148  16 S        2.352     0.011   140.618    19.958
   149   6 C        2.968     0.044    27.002     8.523
   150   6 C        3.770    -0.115    22.734     6.795
   151   6 C        3.016     0.034    27.220     8.558
   152   6 C        2.947    -0.008    28.213     8.712
   153   6 C        1.938     0.128    27.952     8.538
   154   7 N        0.911    -0.284    27.334     7.562
   155   6 C        1.931     0.127    27.983     8.543
   156   7 N        0.911    -0.291    27.493     7.583
   157   1 H        0.925     0.065     2.137     2.286
   158   1 H        0.926     0.067     2.116     2.275
   159   1 H        0.926     0.084     1.936     2.176
   160   1 H        0.926     0.087     1.906     2.159
   161   1 H        0.926     0.067     2.122     2.278
   162   1 H        0.926     0.045     2.378     2.411
   163   1 H        0.926     0.041     2.439     2.442
   164   1 H        0.925     0.048     2.347     2.396
   165   1 H        0.925     0.055     2.261     2.352
   166   1 H        0.925     0.059     2.209     2.324
   167   1 H        0.926     0.045     2.383     2.414
   168   1 H        0.926     0.039     2.464     2.454
   169   1 H        0.926     0.057     2.233     2.337
   170   1 H        0.926     0.044     2.400     2.423
   171   1 H        0.925     0.053     2.287     2.365
   172   1 H        0.924     0.053     2.280     2.362
   173   1 H        0.925     0.046     2.366     2.405
   174   1 H        0.926     0.053     2.282     2.362
   175   1 H        0.926     0.040     2.451     2.448
   176   1 H        0.926     0.041     2.435     2.440
   177   1 H        0.926     0.042     2.429     2.437
   178   1 H        0.924     0.058     2.223     2.331
   179   1 H        0.925     0.048     2.351     2.398
   180   1 H        0.925     0.049     2.327     2.386
   181   1 H        0.926     0.040     2.449     2.447
   182   1 H        0.926     0.039     2.465     2.455
   183   1 H        0.926     0.021     2.716     2.577
   184   1 H        0.926     0.035     2.523     2.484
   185   1 H        0.925     0.043     2.413     2.429
   186   1 H        0.925     0.051     2.305     2.374
   187   1 H        0.924     0.049     2.335     2.390
   188   1 H        0.926     0.035     2.510     2.478
   189   1 H        0.926     0.034     2.533     2.489
   190   1 H        0.926     0.046     2.374     2.409
   191   1 H        0.926     0.048     2.351     2.398
   192   1 H        0.925     0.063     2.169     2.303
   193   1 H        0.925     0.060     2.204     2.321
   194   1 H        0.925     0.069     2.098     2.265
   195   1 H        0.926     0.043     2.412     2.429
   196   1 H        0.926     0.034     2.526     2.485
   197   1 H        0.926     0.038     2.473     2.459
   198   1 H        0.926     0.041     2.442     2.444
   199   1 H        0.925     0.060     2.204     2.322
   200   1 H        0.925     0.067     2.121     2.277
   201   1 H        0.925     0.059     2.214     2.327
   202   1 H        0.926     0.044     2.395     2.420
   203   1 H        0.926     0.034     2.527     2.486
   204   1 H        0.926     0.055     2.263     2.353
   205   1 H        0.926     0.050     2.321     2.382
   206   1 H        0.925     0.062     2.170     2.304
   207   1 H        0.925     0.069     2.092     2.262
   208   1 H        0.925     0.063     2.165     2.301
   209   1 H        0.926     0.051     2.303     2.373
   210   1 H        0.926     0.041     2.430     2.438
   211   1 H        0.926     0.038     2.478     2.461
   212   1 H        0.926     0.049     2.330     2.387
   213   1 H        0.925     0.070     2.089     2.260
   214   1 H        0.925     0.061     2.189     2.314
   215   1 H        0.925     0.062     2.179     2.308
   216   1 H        0.926     0.052     2.293     2.368
   217   1 H        0.926     0.052     2.291     2.367
   218   1 H        0.926     0.035     2.521     2.483
   219   1 H        0.926     0.035     2.518     2.481
   220   1 H        0.925     0.046     2.365     2.405
   221   1 H        0.924     0.050     2.318     2.381
   222   1 H        0.925     0.047     2.361     2.403
   223   1 H        0.926     0.037     2.482     2.464
   224   1 H        0.926     0.034     2.535     2.490
   225   1 H        0.926     0.034     2.533     2.489
   226   1 H        0.926     0.038     2.469     2.457
   227   1 H        0.924     0.050     2.326     2.385
   228   1 H        0.925     0.050     2.325     2.384
   229   1 H        0.925     0.046     2.373     2.409
   230   1 H        0.926     0.040     2.448     2.447
   231   1 H        0.926     0.041     2.431     2.438
   232   1 H        0.926     0.053     2.286     2.364
   233   1 H        0.926     0.047     2.360     2.402
   234   1 H        0.924     0.052     2.297     2.370
   235   1 H        0.925     0.045     2.379     2.412
   236   1 H        0.925     0.051     2.308     2.376
   237   1 H        0.926     0.037     2.484     2.465
   238   1 H        0.926     0.038     2.469     2.457
   239   1 H        0.926     0.037     2.493     2.469
   240   1 H        0.926     0.042     2.419     2.432
   241   1 H        0.925     0.048     2.339     2.392
   242   1 H        0.925     0.051     2.303     2.373
   243   1 H        0.924     0.055     2.253     2.347
   244   1 H        0.926     0.045     2.386     2.416
   245   1 H        0.926     0.039     2.466     2.456
   246   1 H        0.925     0.066     2.134     2.284
   247   1 H        0.926     0.068     2.111     2.272
   248   1 H        0.925     0.071     2.072     2.251
   249   1 H        0.925     0.083     1.951     2.184
   250   1 H        0.925     0.070     2.084     2.258

 Mol. C6AA /au·bohr⁶  :    1052967.058340
 Mol. C8AA /au·bohr⁸  :   29277217.755560
 Mol. α(0) /au        :       1651.391119


Wiberg/Mayer (AO) data.
largest (>0.10) Wiberg bond orders for each atom

 ---------------------------------------------------------------------------
     #   Z sym  total        # sym  WBO       # sym  WBO       # sym  WBO
 ---------------------------------------------------------------------------
     1   6 C    3.948 --     2 C    1.401    23 C    1.369   157 H    0.947
     2   6 C    3.951 --     1 C    1.401    17 C    1.192     3 C    1.065
     3   6 C    3.927 --     4 O    1.688     2 C    1.065     5 C    1.009
     4   8 O    1.989 --     3 C    1.688
     5   6 C    3.978 --     6 C    1.536    16 C    1.203     3 C    1.009
     6   6 C    3.975 --     5 C    1.536     7 C    1.261   158 H    0.963
     7   6 C    3.981 --     8 C    1.292     6 C    1.261    14 C    1.245
     8   6 C    3.974 --     9 C    1.491     7 C    1.292   159 H    0.961
                            13 C    0.107
     9   6 C    3.874 --     8 C    1.491    11 C    1.254    10 F    0.965
    10   9 F    1.094 --     9 C    0.965
    11   6 C    3.877 --    13 C    1.493     9 C    1.254    12 F    0.965
    12   9 F    1.095 --    11 C    0.965
    13   6 C    3.972 --    11 C    1.493    14 C    1.289   160 H    0.960
                             8 C    0.107
    14   6 C    3.984 --    13 C    1.289    15 C    1.266     7 C    1.245
    15   6 C    3.968 --    16 C    1.514    14 C    1.266   161 H    0.958
    16   6 C    3.983 --    15 C    1.514     5 C    1.203    17 C    1.077
    17   6 C    3.970 --    18 C    1.432     2 C    1.192    16 C    1.077
    18   6 C    3.946 --    17 C    1.432    21 C    1.114    19 C    1.109
    19   6 C    3.943 --    20 N    2.743    18 C    1.109
    20   7 N    2.954 --    19 C    2.743
    21   6 C    3.941 --    22 N    2.739    18 C    1.114
    22   7 N    2.947 --    21 C    2.739
    23   6 C    3.921 --     1 C    1.369    24 C    1.273    60 S    1.054
    24   6 C    3.954 --    23 C    1.273    40 C    1.240    25 N    1.180
    25   7 N    3.565 --    24 C    1.180    26 C    1.060    33 C    1.010
    26   6 C    3.962 --    27 C    1.359    32 C    1.350    25 N    1.060
    27   6 C    3.980 --    28 C    1.446    26 C    1.359   162 H    0.966
    28   6 C    3.990 --    27 C    1.446    29 C    1.411   163 H    0.968
                            32 C    0.101
    29   6 C    3.979 --    28 C    1.411    31 C    1.383    30 C    1.030
    30   6 C    3.994 --    29 C    1.030   164 H    0.985   166 H    0.969
                           165 H    0.968
    31   6 C    3.988 --    32 C    1.475    29 C    1.383   167 H    0.968
    32   6 C    3.986 --    31 C    1.475    26 C    1.350   168 H    0.968
                            28 C    0.101
    33   6 C    3.955 --    39 C    1.380    34 C    1.370    25 N    1.010
    34   6 C    3.984 --    35 C    1.458    33 C    1.370   169 H    0.964
                            38 C    0.105
    35   6 C    3.989 --    34 C    1.458    36 C    1.401   170 H    0.968
                            39 C    0.103
    36   6 C    3.974 --    38 C    1.403    35 C    1.401    37 C    1.028
    37   6 C    3.995 --    36 C    1.028   173 H    0.982   171 H    0.979
                           172 H    0.963
    38   6 C    3.988 --    39 C    1.454    36 C    1.403   174 H    0.965
                            34 C    0.105
    39   6 C    3.977 --    38 C    1.454    33 C    1.380   175 H    0.968
                            35 C    0.103
    40   6 C    3.929 --    59 C    1.359    24 C    1.240    41 S    1.100
    41  16 S    2.557 --    40 C    1.100    42 C    1.092
    42   6 C    3.899 --    43 C    1.390    61 C    1.178    41 S    1.092
    43   6 C    3.950 --    42 C    1.390    59 C    1.229    44 N    1.085
    44   7 N    3.466 --    43 C    1.085    52 C    1.069    45 C    1.011
    45   6 C    3.963 --    51 C    1.384    46 C    1.374    44 N    1.011
    46   6 C    3.985 --    47 C    1.454    45 C    1.374   176 H    0.967
                            50 C    0.105
    47   6 C    3.989 --    46 C    1.454    48 C    1.402   177 H    0.968
                            51 C    0.104
    48   6 C    3.979 --    50 C    1.404    47 C    1.402    49 C    1.028
    49   6 C    3.995 --    48 C    1.028   179 H    0.983   180 H    0.979
                           178 H    0.964
    50   6 C    3.990 --    51 C    1.454    48 C    1.404   181 H    0.969
                            46 C    0.105
    51   6 C    3.986 --    50 C    1.454    45 C    1.384   182 H    0.960
                            47 C    0.104
    52   6 C    3.962 --    53 C    1.369    58 C    1.345    44 N    1.069
    53   6 C    3.984 --    54 C    1.446    52 C    1.369   183 H    0.963
                            57 C    0.101
    54   6 C    3.990 --    53 C    1.446    55 C    1.412   184 H    0.966
                            58 C    0.102
    55   6 C    3.976 --    54 C    1.412    57 C    1.388    56 C    1.026
    56   6 C    3.995 --    55 C    1.026   185 H    0.984   186 H    0.977
                           187 H    0.968
    57   6 C    3.990 --    58 C    1.472    55 C    1.388   188 H    0.969
                            53 C    0.101
    58   6 C    3.983 --    57 C    1.472    52 C    1.345   189 H    0.964
                            54 C    0.102
    59   6 C    3.932 --    40 C    1.359    43 C    1.229    60 S    1.121
    60  16 S    2.515 --    59 C    1.121    23 C    1.054
    61   6 C    3.926 --    62 C    1.443    42 C    1.178   102 S    1.089
    62   6 C    3.942 --    61 C    1.443    80 C    1.239    63 N    1.002
    63   7 N    3.396 --    72 C    1.081    64 C    1.026    62 C    1.002
    64   6 C    3.962 --    71 C    1.377    65 C    1.355    63 N    1.026
    65   6 C    3.987 --    66 C    1.477    64 C    1.355   190 H    0.964
    66   6 C    3.988 --    65 C    1.477    67 C    1.365   191 H    0.967
                            71 C    0.101
    67   6 C    3.956 --    70 C    1.393    66 C    1.365    68 S    1.044
    68  16 S    2.245 --    67 C    1.044    69 C    1.009
    69   6 C    3.974 --    68 S    1.009   193 H    0.981   192 H    0.981
                           194 H    0.977
    70   6 C    3.989 --    71 C    1.442    67 C    1.393   195 H    0.965
    71   6 C    3.985 --    70 C    1.442    64 C    1.377   196 H    0.961
                            66 C    0.101
    72   6 C    3.965 --    73 C    1.352    79 C    1.349    63 N    1.081
    73   6 C    3.985 --    74 C    1.455    72 C    1.352   197 H    0.965
                            78 C    0.102
    74   6 C    3.988 --    73 C    1.455    75 C    1.386   198 H    0.965
    75   6 C    3.952 --    74 C    1.386    78 C    1.371    76 S    1.035
    76  16 S    2.230 --    75 C    1.035    77 C    1.010
    77   6 C    3.975 --    76 S    1.010   199 H    0.982   201 H    0.982
                           200 H    0.978
    78   6 C    3.990 --    79 C    1.470    75 C    1.371   202 H    0.967
                            73 C    0.102
    79   6 C    3.984 --    78 C    1.470    72 C    1.349   203 H    0.958
    80   6 C    3.935 --   101 C    1.365    62 C    1.239    81 S    1.115
    81  16 S    2.524 --    80 C    1.115    82 C    1.070
    82   6 C    3.888 --    83 C    1.410   103 C    1.132    81 S    1.070
    83   6 C    3.953 --    82 C    1.410   101 C    1.215    84 N    1.121
    84   7 N    3.380 --    83 C    1.121    93 C    0.988    85 C    0.984
    85   6 C    3.963 --    86 C    1.401    92 C    1.373    84 N    0.984
    86   6 C    3.986 --    87 C    1.441    85 C    1.401   204 H    0.962
                            91 C    0.105
    87   6 C    3.988 --    86 C    1.441    88 C    1.392   205 H    0.964
                            92 C    0.101
    88   6 C    3.963 --    87 C    1.392    91 C    1.375    89 S    1.048
    89  16 S    2.254 --    88 C    1.048    90 C    1.008
    90   6 C    3.973 --    89 S    1.008   206 H    0.981   208 H    0.980
                           207 H    0.978
    91   6 C    3.989 --    92 C    1.465    88 C    1.375   209 H    0.967
                            86 C    0.105
    92   6 C    3.988 --    91 C    1.465    85 C    1.373   210 H    0.967
                            87 C    0.101
    93   6 C    3.962 --   100 C    1.385    94 C    1.383    84 N    0.988
    94   6 C    3.988 --    95 C    1.450    93 C    1.383   211 H    0.966
                            99 C    0.105
    95   6 C    3.988 --    94 C    1.450    96 C    1.384   212 H    0.963
    96   6 C    3.962 --    95 C    1.384    99 C    1.374    97 S    1.052
    97  16 S    2.263 --    96 C    1.052    98 C    1.009
    98   6 C    3.973 --    97 S    1.009   214 H    0.981   215 H    0.978
                           213 H    0.976
    99   6 C    3.989 --   100 C    1.457    96 C    1.374   216 H    0.965
                            94 C    0.105
   100   6 C    3.987 --    99 C    1.457    93 C    1.385   217 H    0.963
   101   6 C    3.919 --    80 C    1.365    83 C    1.215   102 S    1.100
   102  16 S    2.547 --   101 C    1.100    61 C    1.089
   103   6 C    3.883 --   104 C    1.402    82 C    1.132   140 S    1.075
   104   6 C    3.955 --   103 C    1.402   120 C    1.206   105 N    1.130
   105   7 N    3.490 --   104 C    1.130   106 C    1.031   113 C    1.023
   106   6 C    3.964 --   107 C    1.381   112 C    1.371   105 N    1.031
   107   6 C    3.987 --   108 C    1.445   106 C    1.381   218 H    0.968
                           111 C    0.103
   108   6 C    3.990 --   107 C    1.445   109 C    1.411   219 H    0.963
                           112 C    0.104
   109   6 C    3.983 --   108 C    1.411   111 C    1.395   110 C    1.027
   110   6 C    3.995 --   109 C    1.027   220 H    0.978   222 H    0.978
                           221 H    0.967
   111   6 C    3.989 --   112 C    1.464   109 C    1.395   223 H    0.969
                           107 C    0.103
   112   6 C    3.987 --   111 C    1.464   106 C    1.371   224 H    0.965
                           108 C    0.104
   113   6 C    3.961 --   119 C    1.375   114 C    1.370   105 N    1.023
   114   6 C    3.984 --   115 C    1.466   113 C    1.370   225 H    0.968
                           118 C    0.104
   115   6 C    3.989 --   114 C    1.466   116 C    1.393   226 H    0.969
                           119 C    0.103
   116   6 C    3.978 --   118 C    1.416   115 C    1.393   117 C    1.026
   117   6 C    3.996 --   116 C    1.026   229 H    0.985   228 H    0.975
                           227 H    0.970
   118   6 C    3.989 --   119 C    1.438   116 C    1.416   230 H    0.968
                           114 C    0.104
   119   6 C    3.983 --   118 C    1.438   113 C    1.375   231 H    0.960
                           115 C    0.103
   120   6 C    3.940 --   139 C    1.345   104 C    1.206   121 S    1.136
   121  16 S    2.710 --   120 C    1.136   122 C    1.075   144 O    0.125
   122   6 C    3.925 --   141 C    1.364   123 C    1.254   121 S    1.075
   123   6 C    3.945 --   139 C    1.270   122 C    1.254   124 N    1.163
   124   7 N    3.532 --   123 C    1.163   125 C    1.032   132 C    1.030
   125   6 C    3.958 --   126 C    1.369   131 C    1.367   124 N    1.032
   126   6 C    3.980 --   127 C    1.453   125 C    1.369   232 H    0.966
   127   6 C    3.990 --   126 C    1.453   128 C    1.405   233 H    0.968
                           131 C    0.106
   128   6 C    3.979 --   127 C    1.405   130 C    1.398   129 C    1.028
   129   6 C    3.995 --   128 C    1.028   235 H    0.985   236 H    0.976
                           234 H    0.967
   130   6 C    3.989 --   131 C    1.460   128 C    1.398   237 H    0.968
   131   6 C    3.985 --   130 C    1.460   125 C    1.367   238 H    0.966
                           127 C    0.106
   132   6 C    3.960 --   133 C    1.375   138 C    1.364   124 N    1.030
   133   6 C    3.974 --   134 C    1.456   132 C    1.375   239 H    0.966
                           137 C    0.104
   134   6 C    3.989 --   133 C    1.456   135 C    1.403   240 H    0.968
                           138 C    0.102
   135   6 C    3.972 --   134 C    1.403   137 C    1.399   136 C    1.029
   136   6 C    3.995 --   135 C    1.029   241 H    0.984   242 H    0.977
                           243 H    0.965
   137   6 C    3.989 --   138 C    1.459   135 C    1.399   244 H    0.968
                           133 C    0.104
   138   6 C    3.982 --   137 C    1.459   132 C    1.364   245 H    0.968
                           134 C    0.102
   139   6 C    3.934 --   120 C    1.345   123 C    1.270   140 S    1.095
   140  16 S    2.521 --   139 C    1.095   103 C    1.075
   141   6 C    3.946 --   142 C    1.435   122 C    1.364   246 H    0.933
   142   6 C    3.953 --   141 C    1.435   151 C    1.166   143 C    1.073
   143   6 C    3.915 --   144 O    1.662   142 C    1.073   145 C    1.043
   144   8 O    2.075 --   143 C    1.662   121 S    0.125
   145   6 C    3.973 --   149 C    1.551   146 C    1.149   143 C    1.043
   146   6 C    3.980 --   147 C    1.577   145 C    1.149   151 C    1.093
   147   6 C    3.931 --   146 C    1.577   148 S    1.183   247 H    0.964
   148  16 S    2.600 --   147 C    1.183   149 C    1.151
   149   6 C    3.945 --   145 C    1.551   148 S    1.151   150 C    1.050
   150   6 C    3.989 --   149 C    1.050   249 H    0.971   250 H    0.962
                           248 H    0.960
   151   6 C    3.972 --   152 C    1.433   142 C    1.166   146 C    1.093
   152   6 C    3.945 --   151 C    1.433   155 C    1.118   153 C    1.108
   153   6 C    3.941 --   154 N    2.748   152 C    1.108
   154   7 N    2.956 --   153 C    2.748
   155   6 C    3.942 --   156 N    2.723   152 C    1.118
   156   7 N    2.952 --   155 C    2.723
   157   1 H    0.992 --     1 C    0.947
   158   1 H    0.994 --     6 C    0.963
   159   1 H    0.992 --     8 C    0.961
   160   1 H    0.992 --    13 C    0.960
   161   1 H    0.995 --    15 C    0.958
   162   1 H    0.998 --    27 C    0.966
   163   1 H    0.998 --    28 C    0.968
   164   1 H    0.997 --    30 C    0.985
   165   1 H    0.995 --    30 C    0.968
   166   1 H    0.994 --    30 C    0.969
   167   1 H    0.997 --    31 C    0.968
   168   1 H    0.998 --    32 C    0.968
   169   1 H    0.996 --    34 C    0.964
   170   1 H    0.997 --    35 C    0.968
   171   1 H    0.997 --    37 C    0.979
   172   1 H    0.996 --    37 C    0.963
   173   1 H    0.997 --    37 C    0.982
   174   1 H    0.996 --    38 C    0.965
   175   1 H    0.998 --    39 C    0.968
   176   1 H    0.998 --    46 C    0.967
   177   1 H    0.998 --    47 C    0.968
   178   1 H    0.995 --    49 C    0.964
   179   1 H    0.997 --    49 C    0.983
   180   1 H    0.997 --    49 C    0.979
   181   1 H    0.998 --    50 C    0.969
   182   1 H    0.998 --    51 C    0.960
   183   1 H    0.999 --    53 C    0.963
   184   1 H    0.998 --    54 C    0.966
   185   1 H    0.998 --    56 C    0.984
   186   1 H    0.996 --    56 C    0.977
   187   1 H    0.996 --    56 C    0.968
   188   1 H    0.998 --    57 C    0.969
   189   1 H    0.999 --    58 C    0.964
   190   1 H    0.998 --    65 C    0.964
   191   1 H    0.997 --    66 C    0.967
   192   1 H    0.996 --    69 C    0.981
   193   1 H    0.996 --    69 C    0.981
   194   1 H    0.995 --    69 C    0.977
   195   1 H    0.998 --    70 C    0.965
   196   1 H    0.999 --    71 C    0.961
   197   1 H    0.998 --    73 C    0.965
   198   1 H    0.998 --    74 C    0.965
   199   1 H    0.996 --    77 C    0.982
   200   1 H    0.995 --    77 C    0.978
   201   1 H    0.996 --    77 C    0.982
   202   1 H    0.998 --    78 C    0.967
   203   1 H    0.998 --    79 C    0.958
   204   1 H    0.997 --    86 C    0.962
   205   1 H    0.997 --    87 C    0.964
   206   1 H    0.996 --    90 C    0.981
   207   1 H    0.995 --    90 C    0.978
   208   1 H    0.996 --    90 C    0.980
   209   1 H    0.997 --    91 C    0.967
   210   1 H    0.998 --    92 C    0.967
   211   1 H    0.998 --    94 C    0.966
   212   1 H    0.997 --    95 C    0.963
   213   1 H    0.995 --    98 C    0.976
   214   1 H    0.996 --    98 C    0.981
   215   1 H    0.996 --    98 C    0.978
   216   1 H    0.997 --    99 C    0.965
   217   1 H    0.997 --   100 C    0.963
   218   1 H    0.999 --   107 C    0.968
   219   1 H    0.998 --   108 C    0.963
   220   1 H    0.997 --   110 C    0.978
   221   1 H    0.996 --   110 C    0.967
   222   1 H    0.997 --   110 C    0.978
   223   1 H    0.998 --   111 C    0.969
   224   1 H    0.999 --   112 C    0.965
   225   1 H    0.998 --   114 C    0.968
   226   1 H    0.998 --   115 C    0.969
   227   1 H    0.996 --   117 C    0.970
   228   1 H    0.997 --   117 C    0.975
   229   1 H    0.998 --   117 C    0.985
   230   1 H    0.998 --   118 C    0.968
   231   1 H    0.998 --   119 C    0.960
   232   1 H    0.997 --   126 C    0.966
   233   1 H    0.997 --   127 C    0.968
   234   1 H    0.996 --   129 C    0.967
   235   1 H    0.998 --   129 C    0.985
   236   1 H    0.996 --   129 C    0.976
   237   1 H    0.998 --   130 C    0.968
   238   1 H    0.998 --   131 C    0.966
   239   1 H    0.998 --   133 C    0.966
   240   1 H    0.998 --   134 C    0.968
   241   1 H    0.997 --   136 C    0.984
   242   1 H    0.996 --   136 C    0.977
   243   1 H    0.995 --   136 C    0.965
   244   1 H    0.997 --   137 C    0.968
   245   1 H    0.998 --   138 C    0.968
   246   1 H    0.994 --   141 C    0.933
   247   1 H    0.995 --   147 C    0.964
   248   1 H    0.993 --   150 C    0.960
   249   1 H    0.993 --   150 C    0.971
   250   1 H    0.993 --   150 C    0.962
 ---------------------------------------------------------------------------

Topologies differ in bond orders
Writing corrected topology to xtbtopo.mol

molecular dipole:
                 x           y           z       tot (Debye)
 q only:        0.607       1.755      -1.680
   full:        0.156       1.587      -1.913       6.330
molecular quadrupole (traceless):
                xx          xy          yy          xz          yz          zz
 q only:       88.028     -83.335     -76.871     -61.036    -195.974     -11.156
  q+dip:       98.890     -80.969     -86.309     -58.050    -208.812     -12.581
   full:      102.547     -71.534     -93.306     -64.280    -207.471      -9.242


           -------------------------------------------------
          | TOTAL ENERGY             -411.146890550214 Eh   |
          | GRADIENT NORM               0.024698783298 Eh/α |
          | HOMO-LUMO GAP               0.510573871227 eV   |
           -------------------------------------------------

------------------------------------------------------------------------
 * finished run on 2022/02/11 at 17:45:47.112     
------------------------------------------------------------------------
 total:
 * wall-time:     0 d,  0 h,  0 min,  3.453 sec
 *  cpu-time:     0 d,  0 h,  0 min, 23.144 sec
 * ratio c/w:     6.702 speedup
 SCF:
 * wall-time:     0 d,  0 h,  0 min,  3.277 sec
 *  cpu-time:     0 d,  0 h,  0 min, 22.099 sec
 * ratio c/w:     6.744 speedup

