      -----------------------------------------------------------      
     |                   =====================                   |     
     |                           x T B                           |     
     |                   =====================                   |     
     |                         S. Grimme                         |     
     |          Mulliken Center for Theoretical Chemistry        |     
     |                    University of Bonn                     |     
      -----------------------------------------------------------      

   * xtb version 6.4.1 (unknown) compiled by 'oda6@login1.crc.pitt.edu' on 2021-06-25

   xtb is free software: you can redistribute it and/or modify it under
   the terms of the GNU Lesser General Public License as published by
   the Free Software Foundation, either version 3 of the License, or
   (at your option) any later version.
   
   xtb is distributed in the hope that it will be useful,
   but WITHOUT ANY WARRANTY; without even the implied warranty of
   MERCHANTABILITY or FITNESS FOR A PARTICULAR PURPOSE.  See the
   GNU Lesser General Public License for more details.
   
   Cite this work as:
   * C. Bannwarth, E. Caldeweyher, S. Ehlert, A. Hansen, P. Pracht,
     J. Seibert, S. Spicher, S. Grimme, WIREs Comput. Mol. Sci., 2020, 11,
     e01493. DOI: 10.1002/wcms.1493
   
   for GFN2-xTB:
   * C. Bannwarth, S. Ehlert and S. Grimme., J. Chem. Theory Comput., 2019,
     15, 1652-1671. DOI: 10.1021/acs.jctc.8b01176
   for GFN1-xTB:
   * S. Grimme, C. Bannwarth, P. Shushkov, J. Chem. Theory Comput., 2017,
     13, 1989-2009. DOI: 10.1021/acs.jctc.7b00118
   for GFN0-xTB:
   * P. Pracht, E. Caldeweyher, S. Ehlert, S. Grimme, ChemRxiv, 2019, preprint.
     DOI: 10.26434/chemrxiv.8326202.v1
   for GFN-FF:
   * S. Spicher and S. Grimme, Angew. Chem. Int. Ed., 2020, 59, 15665-15673.
     DOI: 10.1002/anie.202004239
   
   for DFT-D4:
   * E. Caldeweyher, C. Bannwarth and S. Grimme, J. Chem. Phys., 2017,
     147, 034112. DOI: 10.1063/1.4993215
   * E. Caldeweyher, S. Ehlert, A. Hansen, H. Neugebauer, S. Spicher,
     C. Bannwarth and S. Grimme, J. Chem. Phys., 2019, 150, 154122.
     DOI: 10.1063/1.5090222
   * E. Caldeweyher, J.-M. Mewes, S. Ehlert and S. Grimme, Phys. Chem. Chem. Phys.
     2020, 22, 8499-8512. DOI: 10.1039/D0CP00502A
   
   for sTDA-xTB:
   * S. Grimme and C. Bannwarth, J. Chem. Phys., 2016, 145, 054103.
     DOI: 10.1063/1.4959605
   
   in the mass-spec context:
   * V. Asgeirsson, C. Bauer and S. Grimme, Chem. Sci., 2017, 8, 4879.
     DOI: 10.1039/c7sc00601b
   * J. Koopman and S. Grimme, ACS Omega 2019, 4, 12, 15120-15133.
     DOI: 10.1021/acsomega.9b02011
   
   for metadynamics refer to:
   * S. Grimme, J. Chem. Theory Comput., 2019, 155, 2847-2862
     DOI: 10.1021/acs.jctc.9b00143
   
   for SPH calculations refer to:
   * S. Spicher and S. Grimme, J. Chem. Theory Comput., 2021, 17, 1701-1714
     DOI: 10.1021/acs.jctc.0c01306
   
   with help from (in alphabetical order)
   P. Atkinson, C. Bannwarth, F. Bohle, G. Brandenburg, E. Caldeweyher
   M. Checinski, S. Dohm, S. Ehlert, S. Ehrlich, I. Gerasimov, J. Koopman
   C. Lavigne, S. Lehtola, F. März, M. Müller, F. Musil, H. Neugebauer
   J. Pisarek, C. Plett, P. Pracht, J. Seibert, P. Shushkov, S. Spicher
   M. Stahn, M. Steiner, T. Strunk, J. Stückrath, T. Rose, and J. Unsleber
   
 * started run on 2022/03/07 at 22:42:12.336     

           -------------------------------------------------
          |                Calculation Setup                |
           -------------------------------------------------

          program call               : /ihome/ghutchison/oda6/xtb/xtb-641/bin/xtb ../../GFN2_output/100_215_010001.mol --sp --alpb water
          hostname                   : smp-n44
          coordinate file            : ../../GFN2_output/100_215_010001.mol
          omp threads                :                     8
          number of atoms            :                   216
          number of electrons        :                   678
          charge                     :                     0
          spin                       :                   0.0
          first test random number   :      0.48128514267003

   ID    Z sym.   atoms
    1    6 C      1-8, 10, 11, 13-19, 21, 22, 24, 26, 27, 29, 30, 32, 34,
                  36-47, 49, 50, 52-58, 60, 61, 63, 65, 66, 68-75, 77, 78,
                  80-86, 88, 89, 91, 93, 94, 96-103, 105, 106, 108-114, 116,
                  117, 119, 121, 122, 124, 125, 127, 129, 131-134
    2   16 S      9, 20, 25, 28, 33, 48, 59, 64, 67, 76, 87, 92, 95, 104,
                  115, 120, 123, 128
    3   34 Se     12, 23, 51, 62, 79, 90, 107, 118
    4    8 O      31, 35, 126, 130
    5    1 H      135-216

           -------------------------------------------------
          |                 G F N 2 - x T B                 |
           -------------------------------------------------

        Reference                      10.1021/acs.jctc.8b01176
      * Hamiltonian:
        H0-scaling (s, p, d)           1.850000    2.230000    2.230000
        zeta-weighting                 0.500000
      * Dispersion:
        s8                             2.700000
        a1                             0.520000
        a2                             5.000000
        s9                             5.000000
      * Repulsion:
        kExp                           1.500000    1.000000
        rExp                           1.000000
      * Coulomb:
        alpha                          2.000000
        third order                    shell-resolved
        anisotropic                    true
        a3                             3.000000
        a5                             4.000000
        cn-shift                       1.200000
        cn-exp                         4.000000
        max-rad                        5.000000

      * Solvation model:               ALPB
        Solvent                        water
        Parameter file                 internal GFN2-xTB/ALPB
        Dielectric constant                8.0200E+01
        Reference state                gsolv [1 M gas/solution]
        Free energy shift                  1.0808E-03 Eh       6.7819E-01 kcal/mol
        Temperature                        2.9815E+02 K
        Density                            1.0000E+00 kg/L
        Solvent mass                       1.8000E+01 g/mol
        Interaction kernel             P16
        Born radius scaling (c1)           1.4744E+00
        Born radii integrator          GBOBC
        Born offset                        0.0000E+00 a0       0.0000E+00 AA
        H-bond correction              true
        Ion screening                  false
        Surface tension                    1.0000E-05 Eh       1.5569E+01 dyn/cm
        Grid points                               230 per atom

          ...................................................
          :                      SETUP                      :
          :.................................................:
          :  # basis functions                 774          :
          :  # atomic orbitals                 748          :
          :  # shells                          376          :
          :  # electrons                       678          :
          :  max. iterations                   250          :
          :  Hamiltonian                  GFN2-xTB          :
          :  restarted?                      false          :
          :  GBSA solvation                   true          :
          :  PC potential                    false          :
          :  electronic temp.          300.0000000     K    :
          :  accuracy                    1.0000000          :
          :  -> integral cutoff          0.2500000E+02      :
          :  -> integral neglect         0.1000000E-07      :
          :  -> SCF convergence          0.1000000E-05 Eh   :
          :  -> wf. convergence          0.1000000E-03 e    :
          :  Broyden damping             0.4000000          :
          ...................................................

 iter      E             dE          RMSdq      gap      omega  full diag
   1   -369.2578194 -0.369258E+03  0.449E+00    1.31       0.0  T
   2   -369.5180055 -0.260186E+00  0.251E+00    1.28       1.0  T
   3   -369.3830288  0.134977E+00  0.120E+00    1.21       1.0  T
   4   -369.5713285 -0.188300E+00  0.546E-01    1.21       1.0  T
   5   -369.5884868 -0.171583E-01  0.270E-01    1.20       1.0  T
   6   -369.5906764 -0.218956E-02  0.132E-01    1.20       1.0  T
   7   -369.5921091 -0.143276E-02  0.715E-02    1.20       1.0  T
   8   -369.5922379 -0.128744E-03  0.502E-02    1.19       1.0  T
   9   -369.5922775 -0.396458E-04  0.328E-02    1.19       1.0  T
  10   -369.5923561 -0.786100E-04  0.157E-02    1.19       1.0  T
  11   -369.5923630 -0.689116E-05  0.925E-03    1.18       1.0  T
  12   -369.5923677 -0.470080E-05  0.475E-03    1.18       1.4  T
  13   -369.5923686 -0.932544E-06  0.276E-03    1.18       2.5  T
  14   -369.5923689 -0.220219E-06  0.168E-03    1.18       4.1  T
  15   -369.5923690 -0.142542E-06  0.989E-04    1.18       6.9  T
  16   -369.5923690 -0.314561E-07  0.661E-04    1.18      10.3  T

   *** convergence criteria satisfied after 16 iterations ***

         #    Occupation            Energy/Eh            Energy/eV
      -------------------------------------------------------------
         1        2.0000           -0.7729600             -21.0333
       ...           ...                  ...                  ...
       333        2.0000           -0.3668168              -9.9816
       334        2.0000           -0.3655532              -9.9472
       335        2.0000           -0.3612952              -9.8313
       336        2.0000           -0.3584257              -9.7533
       337        2.0000           -0.3571836              -9.7195
       338        2.0000           -0.3557424              -9.6802
       339        2.0000           -0.3533376              -9.6148 (HOMO)
       340                         -0.3099163              -8.4333 (LUMO)
       341                         -0.2991842              -8.1412
       342                         -0.2939695              -7.9993
       343                         -0.2885307              -7.8513
       344                         -0.2766757              -7.5287
       ...                                ...                  ...
       748                          1.0477488              28.5107
      -------------------------------------------------------------
                  HL-Gap            0.0434213 Eh            1.1816 eV
             Fermi-level           -0.3315808 Eh           -9.0228 eV

 SCC (total)                   0 d,  0 h,  0 min,  1.043 sec
 SCC setup                      ...        0 min,  0.009 sec (  0.827%)
 Dispersion                     ...        0 min,  0.010 sec (  0.953%)
 classical contributions        ...        0 min,  0.000 sec (  0.035%)
 integral evaluation            ...        0 min,  0.051 sec (  4.936%)
 iterations                     ...        0 min,  0.818 sec ( 78.485%)
 molecular gradient             ...        0 min,  0.148 sec ( 14.183%)
 printout                       ...        0 min,  0.006 sec (  0.572%)

         :::::::::::::::::::::::::::::::::::::::::::::::::::::
         ::                     SUMMARY                     ::
         :::::::::::::::::::::::::::::::::::::::::::::::::::::
         :: total energy            -364.634836383619 Eh    ::
         :: total w/o Gsasa/hb      -364.636545250529 Eh    ::
         :: gradient norm              0.023914778434 Eh/a0 ::
         :: HOMO-LUMO gap              1.181553644308 eV    ::
         ::.................................................::
         :: SCC energy              -369.592369042659 Eh    ::
         :: -> isotropic ES            0.096897660683 Eh    ::
         :: -> anisotropic ES         -0.003294698332 Eh    ::
         :: -> anisotropic XC          0.143609284499 Eh    ::
         :: -> dispersion             -0.416521724949 Eh    ::
         :: -> Gsolv                  -0.026923645664 Eh    ::
         ::    -> Gelec               -0.028632512574 Eh    ::
         ::    -> Gsasa                0.009762520749 Eh    ::
         ::    -> Ghb                 -0.009134413537 Eh    ::
         ::    -> Gshift               0.001080759698 Eh    ::
         :: repulsion energy           4.948640257720 Eh    ::
         :: add. restraining           0.000000000000 Eh    ::
         :: total charge               0.000000000024 e     ::
         :::::::::::::::::::::::::::::::::::::::::::::::::::::

           -------------------------------------------------
          |                Property Printout                |
           -------------------------------------------------

    * Orbital Energies and Occupations

         #    Occupation            Energy/Eh            Energy/eV
      -------------------------------------------------------------
         1        2.0000           -0.7729600             -21.0333
       ...           ...                  ...                  ...
       327        2.0000           -0.3796037             -10.3295
       328        2.0000           -0.3774878             -10.2720
       329        2.0000           -0.3748515             -10.2002
       330        2.0000           -0.3712041             -10.1010
       331        2.0000           -0.3687377             -10.0339
       332        2.0000           -0.3675109             -10.0005
       333        2.0000           -0.3668168              -9.9816
       334        2.0000           -0.3655532              -9.9472
       335        2.0000           -0.3612952              -9.8313
       336        2.0000           -0.3584257              -9.7533
       337        2.0000           -0.3571836              -9.7195
       338        2.0000           -0.3557424              -9.6802
       339        2.0000           -0.3533376              -9.6148 (HOMO)
       340                         -0.3099163              -8.4333 (LUMO)
       341                         -0.2991842              -8.1412
       342                         -0.2939695              -7.9993
       343                         -0.2885307              -7.8513
       344                         -0.2766757              -7.5287
       345                         -0.2753402              -7.4924
       346                         -0.2734513              -7.4410
       347                         -0.2684330              -7.3044
       348                         -0.2642862              -7.1916
       349                         -0.2630252              -7.1573
       350                         -0.2597680              -7.0686
       ...                                ...                  ...
       748                          1.0477488              28.5107
      -------------------------------------------------------------
                  HL-Gap            0.0434213 Eh            1.1816 eV
             Fermi-level           -0.3315808 Eh           -9.0228 eV

     #   Z          covCN         q      C6AA      α(0)
     1   6 C        2.934    -0.009    28.238     8.715
     2   6 C        3.076    -0.046    29.055     8.838
     3   6 C        3.152    -0.006    27.894     8.638
     4   6 C        3.015    -0.004    28.095     8.695
     5   6 C        2.974     0.007    27.857     8.658
     6   6 C        3.088    -0.042    28.933     8.817
     7   6 C        3.104    -0.060    29.349     8.877
     8   6 C        2.966     0.046    26.968     8.518
     9  16 S        2.088    -0.136   146.791    20.392
    10   6 C        3.794     0.001    20.566     6.458
    11   6 C        3.789    -0.123    22.864     6.810
    12  34 Se       2.491    -0.113   239.545    26.969
    13   6 C        3.011     0.020    27.553     8.610
    14   6 C        3.127    -0.009    28.034     8.670
    15   6 C        3.008    -0.006    28.143     8.702
    16   6 C        2.971     0.022    27.500     8.602
    17   6 C        3.092    -0.043    28.955     8.820
    18   6 C        3.108    -0.051    29.122     8.842
    19   6 C        2.965     0.054    26.792     8.490
    20  16 S        2.080    -0.173   148.391    20.502
    21   6 C        3.793     0.016    20.307     6.417
    22   6 C        3.779    -0.106    22.543     6.764
    23  34 Se       2.639    -0.176   241.699    27.090
    24   6 C        3.005     0.029    27.339     8.577
    25  16 S        2.519    -0.067   143.849    20.186
    26   6 C        3.080    -0.060    29.389     8.888
    27   6 C        2.982     0.036    27.187     8.553
    28  16 S        2.406    -0.067   143.849    20.186
    29   6 C        3.157    -0.048    28.874     8.786
    30   6 C        2.888     0.146    24.821     8.168
    31   8 O        1.710    -0.264    18.377     5.788
    32   6 C        3.659     0.018    20.556     6.506
    33  16 S        2.254    -0.077   144.272    20.216
    34   6 C        2.887     0.145    24.845     8.172
    35   8 O        1.710    -0.267    18.417     5.794
    36   6 C        3.659     0.017    20.575     6.509
    37   6 C        3.131    -0.040    28.788     8.784
    38   6 C        2.899    -0.026    28.646     8.776
    39   6 C        2.929    -0.040    29.004     8.832
    40   6 C        2.982     0.037    27.160     8.549
    41   6 C        3.083    -0.053    29.226     8.862
    42   6 C        3.131     0.000    27.814     8.634
    43   6 C        3.004    -0.001    28.050     8.688
    44   6 C        2.971     0.021    27.541     8.608
    45   6 C        3.093    -0.041    28.905     8.812
    46   6 C        3.110    -0.051    29.120     8.841
    47   6 C        2.965     0.055    26.763     8.486
    48  16 S        2.081    -0.163   147.934    20.471
    49   6 C        3.793     0.012    20.381     6.429
    50   6 C        3.779    -0.105    22.537     6.763
    51  34 Se       2.380    -0.166   241.383    27.072
    52   6 C        3.008     0.024    27.449     8.594
    53   6 C        3.136     0.000    27.794     8.629
    54   6 C        3.006    -0.001    28.033     8.685
    55   6 C        2.972     0.010    27.798     8.648
    56   6 C        3.098    -0.037    28.785     8.793
    57   6 C        3.120    -0.056    29.199     8.850
    58   6 C        2.964     0.048    26.919     8.510
    59  16 S        2.073    -0.152   147.462    20.438
    60   6 C        3.793    -0.001    20.602     6.464
    61   6 C        3.776    -0.112    22.664     6.783
    62  34 Se       2.379    -0.092   238.819    26.928
    63   6 C        3.010     0.021    27.523     8.606
    64  16 S        2.276    -0.093   144.920    20.261
    65   6 C        3.081    -0.050    29.148     8.851
    66   6 C        3.008     0.029    27.341     8.577
    67  16 S        2.274    -0.087   144.674    20.244
    68   6 C        3.008     0.028    27.363     8.581
    69   6 C        3.074    -0.055    29.288     8.873
    70   6 C        3.145    -0.006    27.918     8.645
    71   6 C        3.015    -0.005    28.137     8.701
    72   6 C        2.974     0.008    27.842     8.655
    73   6 C        3.087    -0.042    28.930     8.817
    74   6 C        3.106    -0.057    29.257     8.863
    75   6 C        2.965     0.050    26.876     8.503
    76  16 S        2.074    -0.137   146.816    20.393
    77   6 C        3.793    -0.005    20.670     6.474
    78   6 C        3.777    -0.110    22.627     6.777
    79  34 Se       2.503    -0.105   239.282    26.954
    80   6 C        3.011     0.023    27.478     8.599
    81   6 C        3.133    -0.007    27.986     8.660
    82   6 C        3.008    -0.006    28.155     8.704
    83   6 C        2.973     0.010    27.784     8.646
    84   6 C        3.087    -0.042    28.939     8.818
    85   6 C        3.107    -0.057    29.278     8.865
    86   6 C        2.965     0.050    26.883     8.505
    87  16 S        2.077    -0.150   147.361    20.431
    88   6 C        3.793    -0.003    20.633     6.469
    89   6 C        3.778    -0.113    22.685     6.786
    90  34 Se       2.555    -0.114   239.575    26.970
    91   6 C        3.006     0.022    27.504     8.603
    92  16 S        2.475    -0.068   143.897    20.190
    93   6 C        3.067    -0.054    29.272     8.872
    94   6 C        3.013     0.027    27.391     8.585
    95  16 S        2.438    -0.073   144.085    20.203
    96   6 C        3.025     0.025    27.409     8.588
    97   6 C        3.078    -0.050    29.154     8.852
    98   6 C        3.133    -0.006    27.944     8.653
    99   6 C        3.004    -0.006    28.154     8.704
   100   6 C        2.972     0.007    27.848     8.656
   101   6 C        3.089    -0.043    28.955     8.820
   102   6 C        3.108    -0.056    29.229     8.858
   103   6 C        2.965     0.046    26.973     8.519
   104  16 S        2.080    -0.155   147.613    20.449
   105   6 C        3.793    -0.004    20.651     6.471
   106   6 C        3.780    -0.114    22.703     6.788
   107  34 Se       2.366    -0.092   238.820    26.928
   108   6 C        3.008     0.017    27.623     8.621
   109   6 C        3.143    -0.004    27.862     8.637
   110   6 C        3.004    -0.008    28.207     8.712
   111   6 C        2.970     0.008    27.835     8.654
   112   6 C        3.088    -0.046    29.033     8.832
   113   6 C        3.088    -0.056    29.296     8.872
   114   6 C        2.968     0.047    26.942     8.514
   115  16 S        2.125    -0.179   148.637    20.519
   116   6 C        3.793    -0.005    20.680     6.476
   117   6 C        3.779    -0.113    22.689     6.786
   118  34 Se       2.428    -0.091   238.788    26.926
   119   6 C        3.007     0.021    27.530     8.607
   120  16 S        2.274    -0.095   145.023    20.268
   121   6 C        3.091    -0.063    29.455     8.896
   122   6 C        2.986     0.037    27.165     8.550
   123  16 S        2.277    -0.078   144.315    20.219
   124   6 C        3.155    -0.046    28.832     8.781
   125   6 C        2.886     0.141    24.934     8.186
   126   8 O        1.711    -0.256    18.247     5.767
   127   6 C        3.658     0.022    20.493     6.497
   128  16 S        2.258    -0.083   144.517    20.233
   129   6 C        2.889     0.143    24.883     8.178
   130   8 O        1.711    -0.263    18.356     5.785
   131   6 C        3.661     0.017    20.570     6.507
   132   6 C        3.115    -0.040    28.825     8.795
   133   6 C        2.891    -0.030    28.746     8.790
   134   6 C        2.838    -0.102    30.561     9.060
   135   1 H        0.926     0.071     2.077     2.254
   136   1 H        0.926     0.058     2.219     2.330
   137   1 H        0.926     0.046     2.365     2.405
   138   1 H        0.926     0.054     2.275     2.359
   139   1 H        0.924     0.071     2.073     2.252
   140   1 H        0.924     0.071     2.078     2.254
   141   1 H        0.925     0.064     2.153     2.294
   142   1 H        0.925     0.065     2.138     2.287
   143   1 H        0.925     0.070     2.090     2.261
   144   1 H        0.926     0.044     2.398     2.422
   145   1 H        0.926     0.046     2.369     2.407
   146   1 H        0.924     0.050     2.316     2.380
   147   1 H        0.925     0.059     2.214     2.327
   148   1 H        0.925     0.064     2.147     2.291
   149   1 H        0.925     0.063     2.169     2.303
   150   1 H        0.924     0.052     2.290     2.367
   151   1 H        0.926     0.033     2.541     2.493
   152   1 H        0.925     0.097     1.810     2.104
   153   1 H        0.924     0.071     2.071     2.250
   154   1 H        0.924     0.068     2.105     2.269
   155   1 H        0.924     0.069     2.099     2.266
   156   1 H        0.924     0.070     2.086     2.258
   157   1 H        0.925     0.097     1.808     2.103
   158   1 H        0.925     0.053     2.282     2.362
   159   1 H        0.925     0.046     2.368     2.406
   160   1 H        0.926     0.053     2.282     2.362
   161   1 H        0.926     0.049     2.338     2.391
   162   1 H        0.926     0.056     2.249     2.345
   163   1 H        0.925     0.071     2.072     2.251
   164   1 H        0.924     0.053     2.280     2.361
   165   1 H        0.924     0.049     2.336     2.390
   166   1 H        0.924     0.064     2.150     2.293
   167   1 H        0.925     0.071     2.077     2.254
   168   1 H        0.926     0.036     2.499     2.472
   169   1 H        0.926     0.049     2.329     2.387
   170   1 H        0.925     0.081     1.965     2.192
   171   1 H        0.924     0.062     2.170     2.304
   172   1 H        0.925     0.069     2.093     2.262
   173   1 H        0.924     0.060     2.199     2.319
   174   1 H        0.925     0.063     2.159     2.298
   175   1 H        0.926     0.061     2.185     2.312
   176   1 H        0.926     0.053     2.281     2.362
   177   1 H        0.926     0.046     2.367     2.406
   178   1 H        0.926     0.055     2.257     2.349
   179   1 H        0.924     0.070     2.091     2.261
   180   1 H        0.925     0.084     1.938     2.177
   181   1 H        0.924     0.053     2.279     2.361
   182   1 H        0.925     0.066     2.132     2.284
   183   1 H        0.925     0.065     2.142     2.289
   184   1 H        0.926     0.046     2.366     2.406
   185   1 H        0.926     0.054     2.276     2.359
   186   1 H        0.924     0.069     2.099     2.266
   187   1 H        0.925     0.082     1.962     2.191
   188   1 H        0.925     0.065     2.137     2.286
   189   1 H        0.925     0.066     2.134     2.284
   190   1 H        0.924     0.054     2.270     2.356
   191   1 H        0.926     0.049     2.334     2.389
   192   1 H        0.926     0.061     2.191     2.315
   193   1 H        0.926     0.047     2.354     2.399
   194   1 H        0.926     0.054     2.276     2.359
   195   1 H        0.924     0.070     2.089     2.260
   196   1 H        0.925     0.081     1.965     2.192
   197   1 H        0.925     0.050     2.315     2.379
   198   1 H        0.925     0.065     2.143     2.289
   199   1 H        0.925     0.063     2.166     2.302
   200   1 H        0.926     0.050     2.322     2.383
   201   1 H        0.926     0.047     2.363     2.404
   202   1 H        0.925     0.058     2.228     2.334
   203   1 H        0.925     0.074     2.039     2.233
   204   1 H        0.925     0.062     2.176     2.307
   205   1 H        0.925     0.046     2.368     2.406
   206   1 H        0.925     0.058     2.217     2.328
   207   1 H        0.926     0.072     2.067     2.248
   208   1 H        0.924     0.069     2.097     2.264
   209   1 H        0.925     0.089     1.884     2.147
   210   1 H        0.924     0.075     2.028     2.227
   211   1 H        0.924     0.068     2.105     2.269
   212   1 H        0.924     0.066     2.129     2.282
   213   1 H        0.925     0.096     1.824     2.112
   214   1 H        0.926     0.047     2.362     2.403
   215   1 H        0.926     0.049     2.338     2.391
   216   1 H        0.926     0.055     2.264     2.353

 Mol. C6AA /au·bohr⁶  :    1030404.472523
 Mol. C8AA /au·bohr⁸  :   35327245.250586
 Mol. α(0) /au        :       1655.290536


Wiberg/Mayer (AO) data.
largest (>0.10) Wiberg bond orders for each atom

 ---------------------------------------------------------------------------
     #   Z sym  total        # sym  WBO       # sym  WBO       # sym  WBO
 ---------------------------------------------------------------------------
     1   6 C    3.920 --     2 C    1.686    25 S    1.118   135 H    0.965
     2   6 C    3.980 --     1 C    1.686     3 C    1.190   136 H    0.956
     3   6 C    3.972 --    24 C    1.273     4 C    1.265     2 C    1.190
     4   6 C    3.950 --    13 C    1.352     3 C    1.265     5 C    1.102
     5   6 C    3.953 --     6 C    1.537    12 Se   1.104     4 C    1.102
     6   6 C    3.968 --     5 C    1.537     7 C    1.283   137 H    0.958
     7   6 C    3.975 --     8 C    1.526     6 C    1.283   138 H    0.961
     8   6 C    3.922 --     7 C    1.526    12 Se   1.159     9 S    1.084
     9  16 S    2.299 --     8 C    1.084    10 C    0.968
    10   6 C    3.965 --    11 C    1.025     9 S    0.968   140 H    0.954
                           139 H    0.952
    11   6 C    3.985 --    10 C    1.025   141 H    0.983   142 H    0.983
                           143 H    0.976
    12  34 Se   2.800 --     8 C    1.159     5 C    1.104
    13   6 C    3.945 --     4 C    1.352    14 C    1.264    28 S    1.100
    14   6 C    3.979 --    13 C    1.264    15 C    1.260    26 C    1.217
    15   6 C    3.943 --    24 C    1.336    14 C    1.260    16 C    1.106
    16   6 C    3.954 --    17 C    1.520    23 Se   1.128    15 C    1.106
    17   6 C    3.962 --    16 C    1.520    18 C    1.280   144 H    0.957
                            23 Se   0.104
    18   6 C    3.979 --    19 C    1.533    17 C    1.280   145 H    0.962
    19   6 C    3.914 --    18 C    1.533    23 Se   1.158    20 S    1.062
    20  16 S    2.263 --    19 C    1.062    21 C    0.968
    21   6 C    3.969 --    22 C    1.027   147 H    0.969    20 S    0.968
                           146 H    0.947
    22   6 C    3.991 --    21 C    1.027   148 H    0.983   149 H    0.975
                           150 H    0.972
    23  34 Se   2.925 --    19 C    1.158    16 C    1.128    17 C    0.104
    24   6 C    3.948 --    15 C    1.336     3 C    1.273    25 S    1.096
    25  16 S    2.585 --     1 C    1.118    24 C    1.096
    26   6 C    3.975 --    27 C    1.581    14 C    1.217   151 H    0.955
    27   6 C    3.933 --    26 C    1.581    29 C    1.090    28 S    1.082
    28  16 S    2.544 --    13 C    1.100    27 C    1.082
    29   6 C    3.964 --    30 C    1.490    37 C    1.141    27 C    1.090
    30   6 C    3.891 --    29 C    1.490    31 O    1.101    33 S    1.089
    31   8 O    2.268 --    30 C    1.101    32 C    0.955
    32   6 C    3.908 --   152 H    0.973   154 H    0.972   153 H    0.970
                            31 O    0.955
    33  16 S    2.526 --    30 C    1.089    34 C    1.085
    34   6 C    3.882 --    37 C    1.492    35 O    1.100    33 S    1.085
    35   8 O    2.258 --    34 C    1.100    36 C    0.957
    36   6 C    3.909 --   157 H    0.973   155 H    0.971   156 H    0.971
                            35 O    0.957
    37   6 C    3.967 --    34 C    1.492    29 C    1.141    38 C    1.098
    38   6 C    3.950 --    39 C    1.718    37 C    1.098   158 H    0.954
    39   6 C    3.984 --    38 C    1.718    40 C    1.166   159 H    0.955
    40   6 C    3.927 --    41 C    1.527    39 C    1.166    64 S    1.089
    41   6 C    3.956 --    40 C    1.527    42 C    1.236   160 H    0.929
    42   6 C    3.967 --    63 C    1.255    43 C    1.253    41 C    1.236
    43   6 C    3.947 --    52 C    1.340    42 C    1.253    44 C    1.109
    44   6 C    3.954 --    45 C    1.529    51 Se   1.113    43 C    1.109
    45   6 C    3.958 --    44 C    1.529    46 C    1.277   161 H    0.952
    46   6 C    3.979 --    47 C    1.541    45 C    1.277   162 H    0.961
    47   6 C    3.917 --    46 C    1.541    51 Se   1.155    48 S    1.065
    48  16 S    2.259 --    47 C    1.065    49 C    0.968
    49   6 C    3.967 --    50 C    1.028    48 S    0.968   163 H    0.964
                           164 H    0.941
    50   6 C    3.990 --    49 C    1.028   167 H    0.982   165 H    0.973
                           166 H    0.965
    51  34 Se   2.858 --    47 C    1.155    44 C    1.113
    52   6 C    3.939 --    43 C    1.340    53 C    1.258    67 S    1.094
    53   6 C    3.966 --    52 C    1.258    54 C    1.252    65 C    1.235
    54   6 C    3.936 --    63 C    1.354    53 C    1.252    55 C    1.111
    55   6 C    3.952 --    56 C    1.537    54 C    1.111    62 Se   1.099
    56   6 C    3.972 --    55 C    1.537    57 C    1.284   168 H    0.953
    57   6 C    3.979 --    58 C    1.536    56 C    1.284   169 H    0.961
    58   6 C    3.920 --    57 C    1.536    62 Se   1.152    59 S    1.079
    59  16 S    2.285 --    58 C    1.079    60 C    0.968
    60   6 C    3.963 --    61 C    1.027    59 S    0.968   170 H    0.966
                           171 H    0.956
    61   6 C    3.987 --    60 C    1.027   172 H    0.983   174 H    0.973
                           173 H    0.960
    62  34 Se   2.736 --    58 C    1.152    55 C    1.099
    63   6 C    3.942 --    54 C    1.354    42 C    1.255    64 S    1.096
    64  16 S    2.497 --    63 C    1.096    40 C    1.089
    65   6 C    3.956 --    66 C    1.533    53 C    1.235   175 H    0.933
    66   6 C    3.926 --    65 C    1.533    68 C    1.148    67 S    1.089
    67  16 S    2.506 --    52 C    1.094    66 C    1.089
    68   6 C    3.925 --    69 C    1.540    66 C    1.148    92 S    1.071
    69   6 C    3.956 --    68 C    1.540    70 C    1.236   176 H    0.954
    70   6 C    3.969 --    91 C    1.261    71 C    1.249    69 C    1.236
    71   6 C    3.947 --    80 C    1.357    70 C    1.249    72 C    1.111
    72   6 C    3.953 --    73 C    1.529    71 C    1.111    79 Se   1.108
    73   6 C    3.976 --    72 C    1.529    74 C    1.285   177 H    0.958
    74   6 C    3.977 --    75 C    1.527    73 C    1.285   178 H    0.959
    75   6 C    3.920 --    74 C    1.527    79 Se   1.158    76 S    1.080
    76  16 S    2.298 --    75 C    1.080    77 C    0.970
    77   6 C    3.964 --    78 C    1.027    76 S    0.970   180 H    0.965
                           179 H    0.945
    78   6 C    3.989 --    77 C    1.027   182 H    0.983   183 H    0.971
                           181 H    0.967
    79  34 Se   2.781 --    75 C    1.158    72 C    1.108
    80   6 C    3.938 --    71 C    1.357    81 C    1.259    95 S    1.099
    81   6 C    3.968 --    80 C    1.259    82 C    1.250    93 C    1.232
    82   6 C    3.947 --    91 C    1.350    81 C    1.250    83 C    1.116
    83   6 C    3.954 --    84 C    1.523    82 C    1.116    90 Se   1.111
    84   6 C    3.973 --    83 C    1.523    85 C    1.286   184 H    0.958
    85   6 C    3.978 --    86 C    1.529    84 C    1.286   185 H    0.961
    86   6 C    3.917 --    85 C    1.529    90 Se   1.154    87 S    1.078
    87  16 S    2.291 --    86 C    1.078    88 C    0.971
    88   6 C    3.965 --    89 C    1.027    87 S    0.971   187 H    0.966
                           186 H    0.946
    89   6 C    3.989 --    88 C    1.027   189 H    0.983   188 H    0.975
                           190 H    0.969
    90  34 Se   2.789 --    86 C    1.154    83 C    1.111
    91   6 C    3.936 --    82 C    1.350    70 C    1.261    92 S    1.097
    92  16 S    2.536 --    91 C    1.097    68 C    1.071
    93   6 C    3.950 --    94 C    1.545    81 C    1.232   191 H    0.955
    94   6 C    3.927 --    93 C    1.545    96 C    1.160    95 S    1.062
    95  16 S    2.527 --    80 C    1.099    94 C    1.062
    96   6 C    3.928 --    97 C    1.538    94 C    1.160   120 S    1.077
    97   6 C    3.953 --    96 C    1.538    98 C    1.234   192 H    0.934
    98   6 C    3.968 --    99 C    1.259   119 C    1.257    97 C    1.234
    99   6 C    3.933 --   108 C    1.350    98 C    1.259   100 C    1.108
   100   6 C    3.955 --   101 C    1.541    99 C    1.108   107 Se   1.106
   101   6 C    3.972 --   100 C    1.541   102 C    1.276   193 H    0.954
   102   6 C    3.980 --   103 C    1.546   101 C    1.276   194 H    0.961
   103   6 C    3.919 --   102 C    1.546   107 Se   1.148   104 S    1.073
   104  16 S    2.281 --   103 C    1.073   105 C    0.969
   105   6 C    3.965 --   106 C    1.028   104 S    0.969   196 H    0.966
                           195 H    0.947
   106   6 C    3.991 --   105 C    1.028   199 H    0.983   198 H    0.975
                           197 H    0.975
   107  34 Se   2.731 --   103 C    1.148   100 C    1.106
   108   6 C    3.944 --    99 C    1.350   109 C    1.263   123 S    1.098
   109   6 C    3.970 --   108 C    1.263   110 C    1.254   121 C    1.228
   110   6 C    3.956 --   119 C    1.350   109 C    1.254   111 C    1.113
   111   6 C    3.953 --   112 C    1.533   110 C    1.113   118 Se   1.111
   112   6 C    3.958 --   111 C    1.533   113 C    1.274   200 H    0.950
   113   6 C    3.977 --   114 C    1.543   112 C    1.274   201 H    0.958
   114   6 C    3.925 --   113 C    1.543   118 Se   1.153   115 S    1.076
   115  16 S    2.279 --   114 C    1.076   116 C    0.966
   116   6 C    3.965 --   117 C    1.027   202 H    0.970   203 H    0.966
                           115 S    0.966
   117   6 C    3.990 --   116 C    1.027   206 H    0.985   205 H    0.984
                           204 H    0.976
   118  34 Se   2.751 --   114 C    1.153   111 C    1.111
   119   6 C    3.938 --   110 C    1.350    98 C    1.257   120 S    1.094
   120  16 S    2.492 --   119 C    1.094    96 C    1.077
   121   6 C    3.974 --   122 C    1.555   109 C    1.228   207 H    0.926
   122   6 C    3.926 --   121 C    1.555   124 C    1.114   123 S    1.088
   123  16 S    2.513 --   108 C    1.098   122 C    1.088
   124   6 C    3.966 --   125 C    1.462   132 C    1.154   122 C    1.114
   125   6 C    3.884 --   124 C    1.462   128 S    1.102   126 O    1.092
   126   8 O    2.286 --   125 C    1.092   127 C    0.956
   127   6 C    3.912 --   208 H    0.973   210 H    0.969   209 H    0.967
                           126 O    0.956
   128  16 S    2.539 --   125 C    1.102   129 C    1.084
   129   6 C    3.901 --   132 C    1.490   130 O    1.096   128 S    1.084
   130   8 O    2.266 --   129 C    1.096   131 C    0.959
   131   6 C    3.914 --   213 H    0.973   212 H    0.972   211 H    0.970
                           130 O    0.959
   132   6 C    3.969 --   129 C    1.490   124 C    1.154   133 C    1.098
   133   6 C    3.989 --   134 C    1.886   132 C    1.098   214 H    0.953
   134   6 C    3.986 --   133 C    1.886   215 H    0.977   216 H    0.972
   135   1 H    0.994 --     1 C    0.965
   136   1 H    0.995 --     2 C    0.956
   137   1 H    0.997 --     6 C    0.958
   138   1 H    0.996 --     7 C    0.961
   139   1 H    0.995 --    10 C    0.952
   140   1 H    0.995 --    10 C    0.954
   141   1 H    0.996 --    11 C    0.983
   142   1 H    0.996 --    11 C    0.983
   143   1 H    0.995 --    11 C    0.976
   144   1 H    0.997 --    17 C    0.957
   145   1 H    0.997 --    18 C    0.962
   146   1 H    0.997 --    21 C    0.947
   147   1 H    0.996 --    21 C    0.969
   148   1 H    0.996 --    22 C    0.983
   149   1 H    0.995 --    22 C    0.975
   150   1 H    0.997 --    22 C    0.972
   151   1 H    0.998 --    26 C    0.955
   152   1 H    0.990 --    32 C    0.973
   153   1 H    0.994 --    32 C    0.970
   154   1 H    0.994 --    32 C    0.972
   155   1 H    0.994 --    36 C    0.971
   156   1 H    0.993 --    36 C    0.971
   157   1 H    0.990 --    36 C    0.973
   158   1 H    0.996 --    38 C    0.954
   159   1 H    0.997 --    39 C    0.955
   160   1 H    0.996 --    41 C    0.929
   161   1 H    0.997 --    45 C    0.952
   162   1 H    0.996 --    46 C    0.961
   163   1 H    0.994 --    49 C    0.964
   164   1 H    0.997 --    49 C    0.941
   165   1 H    0.998 --    50 C    0.973
   166   1 H    0.995 --    50 C    0.965
   167   1 H    0.995 --    50 C    0.982
   168   1 H    0.998 --    56 C    0.953
   169   1 H    0.997 --    57 C    0.961
   170   1 H    0.993 --    60 C    0.966
   171   1 H    0.996 --    60 C    0.956
   172   1 H    0.995 --    61 C    0.983
   173   1 H    0.996 --    61 C    0.960
   174   1 H    0.996 --    61 C    0.973
   175   1 H    0.996 --    65 C    0.933
   176   1 H    0.996 --    69 C    0.954
   177   1 H    0.997 --    73 C    0.958
   178   1 H    0.996 --    74 C    0.959
   179   1 H    0.995 --    77 C    0.945
   180   1 H    0.992 --    77 C    0.965
   181   1 H    0.997 --    78 C    0.967
   182   1 H    0.996 --    78 C    0.983
   183   1 H    0.995 --    78 C    0.971
   184   1 H    0.997 --    84 C    0.958
   185   1 H    0.996 --    85 C    0.961
   186   1 H    0.995 --    88 C    0.946
   187   1 H    0.993 --    88 C    0.966
   188   1 H    0.995 --    89 C    0.975
   189   1 H    0.996 --    89 C    0.983
   190   1 H    0.997 --    89 C    0.969
   191   1 H    0.996 --    93 C    0.955
   192   1 H    0.996 --    97 C    0.934
   193   1 H    0.997 --   101 C    0.954
   194   1 H    0.997 --   102 C    0.961
   195   1 H    0.995 --   105 C    0.947
   196   1 H    0.993 --   105 C    0.966
   197   1 H    0.997 --   106 C    0.975
   198   1 H    0.995 --   106 C    0.975
   199   1 H    0.996 --   106 C    0.983
   200   1 H    0.997 --   112 C    0.950
   201   1 H    0.997 --   113 C    0.958
   202   1 H    0.997 --   116 C    0.970
   203   1 H    0.993 --   116 C    0.966
   204   1 H    0.996 --   117 C    0.976
   205   1 H    0.998 --   117 C    0.984
   206   1 H    0.997 --   117 C    0.985
   207   1 H    0.994 --   121 C    0.926
   208   1 H    0.994 --   127 C    0.973
   209   1 H    0.991 --   127 C    0.967
   210   1 H    0.993 --   127 C    0.969
   211   1 H    0.995 --   131 C    0.970
   212   1 H    0.995 --   131 C    0.972
   213   1 H    0.990 --   131 C    0.973
   214   1 H    0.997 --   133 C    0.953
   215   1 H    0.997 --   134 C    0.977
   216   1 H    0.997 --   134 C    0.972
 ---------------------------------------------------------------------------

Topologies differ in bond orders
Writing corrected topology to xtbtopo.mol

molecular dipole:
                 x           y           z       tot (Debye)
 q only:        0.401      -0.477      -0.190
   full:        0.004      -0.439       0.350       1.427
molecular quadrupole (traceless):
                xx          xy          yy          xz          yz          zz
 q only:     -109.731     -67.436     241.835     -32.989     -57.977    -132.104
  q+dip:      -91.296     -97.725     207.584       8.946     -40.537    -116.288
   full:      -94.690    -100.088     205.097      13.278     -38.130    -110.407


           -------------------------------------------------
          | TOTAL ENERGY             -364.634836383619 Eh   |
          | GRADIENT NORM               0.023914778434 Eh/α |
          | HOMO-LUMO GAP               1.181553644308 eV   |
           -------------------------------------------------

------------------------------------------------------------------------
 * finished run on 2022/03/07 at 22:42:13.506     
------------------------------------------------------------------------
 total:
 * wall-time:     0 d,  0 h,  0 min,  1.170 sec
 *  cpu-time:     0 d,  0 h,  0 min,  9.258 sec
 * ratio c/w:     7.910 speedup
 SCF:
 * wall-time:     0 d,  0 h,  0 min,  1.047 sec
 *  cpu-time:     0 d,  0 h,  0 min,  8.359 sec
 * ratio c/w:     7.986 speedup

