      -----------------------------------------------------------      
     |                   =====================                   |     
     |                           x T B                           |     
     |                   =====================                   |     
     |                         S. Grimme                         |     
     |          Mulliken Center for Theoretical Chemistry        |     
     |                    University of Bonn                     |     
      -----------------------------------------------------------      

   * xtb version 6.4.1 (unknown) compiled by 'oda6@login1.crc.pitt.edu' on 2021-06-25

   xtb is free software: you can redistribute it and/or modify it under
   the terms of the GNU Lesser General Public License as published by
   the Free Software Foundation, either version 3 of the License, or
   (at your option) any later version.
   
   xtb is distributed in the hope that it will be useful,
   but WITHOUT ANY WARRANTY; without even the implied warranty of
   MERCHANTABILITY or FITNESS FOR A PARTICULAR PURPOSE.  See the
   GNU Lesser General Public License for more details.
   
   Cite this work as:
   * C. Bannwarth, E. Caldeweyher, S. Ehlert, A. Hansen, P. Pracht,
     J. Seibert, S. Spicher, S. Grimme, WIREs Comput. Mol. Sci., 2020, 11,
     e01493. DOI: 10.1002/wcms.1493
   
   for GFN2-xTB:
   * C. Bannwarth, S. Ehlert and S. Grimme., J. Chem. Theory Comput., 2019,
     15, 1652-1671. DOI: 10.1021/acs.jctc.8b01176
   for GFN1-xTB:
   * S. Grimme, C. Bannwarth, P. Shushkov, J. Chem. Theory Comput., 2017,
     13, 1989-2009. DOI: 10.1021/acs.jctc.7b00118
   for GFN0-xTB:
   * P. Pracht, E. Caldeweyher, S. Ehlert, S. Grimme, ChemRxiv, 2019, preprint.
     DOI: 10.26434/chemrxiv.8326202.v1
   for GFN-FF:
   * S. Spicher and S. Grimme, Angew. Chem. Int. Ed., 2020, 59, 15665-15673.
     DOI: 10.1002/anie.202004239
   
   for DFT-D4:
   * E. Caldeweyher, C. Bannwarth and S. Grimme, J. Chem. Phys., 2017,
     147, 034112. DOI: 10.1063/1.4993215
   * E. Caldeweyher, S. Ehlert, A. Hansen, H. Neugebauer, S. Spicher,
     C. Bannwarth and S. Grimme, J. Chem. Phys., 2019, 150, 154122.
     DOI: 10.1063/1.5090222
   * E. Caldeweyher, J.-M. Mewes, S. Ehlert and S. Grimme, Phys. Chem. Chem. Phys.
     2020, 22, 8499-8512. DOI: 10.1039/D0CP00502A
   
   for sTDA-xTB:
   * S. Grimme and C. Bannwarth, J. Chem. Phys., 2016, 145, 054103.
     DOI: 10.1063/1.4959605
   
   in the mass-spec context:
   * V. Asgeirsson, C. Bauer and S. Grimme, Chem. Sci., 2017, 8, 4879.
     DOI: 10.1039/c7sc00601b
   * J. Koopman and S. Grimme, ACS Omega 2019, 4, 12, 15120-15133.
     DOI: 10.1021/acsomega.9b02011
   
   for metadynamics refer to:
   * S. Grimme, J. Chem. Theory Comput., 2019, 155, 2847-2862
     DOI: 10.1021/acs.jctc.9b00143
   
   for SPH calculations refer to:
   * S. Spicher and S. Grimme, J. Chem. Theory Comput., 2021, 17, 1701-1714
     DOI: 10.1021/acs.jctc.0c01306
   
   with help from (in alphabetical order)
   P. Atkinson, C. Bannwarth, F. Bohle, G. Brandenburg, E. Caldeweyher
   M. Checinski, S. Dohm, S. Ehlert, S. Ehrlich, I. Gerasimov, J. Koopman
   C. Lavigne, S. Lehtola, F. März, M. Müller, F. Musil, H. Neugebauer
   J. Pisarek, C. Plett, P. Pracht, J. Seibert, P. Shushkov, S. Spicher
   M. Stahn, M. Steiner, T. Strunk, J. Stückrath, T. Rose, and J. Unsleber
   
 * started run on 2022/03/04 at 08:59:23.269     

           -------------------------------------------------
          |                Calculation Setup                |
           -------------------------------------------------

          program call               : /ihome/ghutchison/oda6/xtb/xtb-641/bin/xtb ../../GFN2_output/1050_874_100111.mol --sp --alpb water
          hostname                   : smp-n90
          coordinate file            : ../../GFN2_output/1050_874_100111.mol
          omp threads                :                     8
          number of atoms            :                   152
          number of electrons        :                   470
          charge                     :                     0
          spin                       :                   0.0
          first test random number   :      0.46900629804727

   ID    Z sym.   atoms
    1    6 C      1, 2, 6-9, 11-16, 18, 20-24, 26, 27, 29-31, 33-37, 39, 40,
                  42-45, 49-52, 54-59, 61, 62, 66-69, 71-76, 78, 79, 83-86,
                  88-93
    2    7 N      3, 5, 10, 17, 46, 48, 53, 60, 63, 65, 70, 77, 80, 82, 87, 94
    3   16 S      4, 19, 32, 47, 64, 81
    4    8 O      25, 28, 38, 41
    5    1 H      95-152

           -------------------------------------------------
          |                 G F N 2 - x T B                 |
           -------------------------------------------------

        Reference                      10.1021/acs.jctc.8b01176
      * Hamiltonian:
        H0-scaling (s, p, d)           1.850000    2.230000    2.230000
        zeta-weighting                 0.500000
      * Dispersion:
        s8                             2.700000
        a1                             0.520000
        a2                             5.000000
        s9                             5.000000
      * Repulsion:
        kExp                           1.500000    1.000000
        rExp                           1.000000
      * Coulomb:
        alpha                          2.000000
        third order                    shell-resolved
        anisotropic                    true
        a3                             3.000000
        a5                             4.000000
        cn-shift                       1.200000
        cn-exp                         4.000000
        max-rad                        5.000000

      * Solvation model:               ALPB
        Solvent                        water
        Parameter file                 internal GFN2-xTB/ALPB
        Dielectric constant                8.0200E+01
        Reference state                gsolv [1 M gas/solution]
        Free energy shift                  1.0808E-03 Eh       6.7819E-01 kcal/mol
        Temperature                        2.9815E+02 K
        Density                            1.0000E+00 kg/L
        Solvent mass                       1.8000E+01 g/mol
        Interaction kernel             P16
        Born radius scaling (c1)           1.4744E+00
        Born radii integrator          GBOBC
        Born offset                        0.0000E+00 a0       0.0000E+00 AA
        H-bond correction              true
        Ion screening                  false
        Surface tension                    1.0000E-05 Eh       1.5569E+01 dyn/cm
        Grid points                               230 per atom

          ...................................................
          :                      SETUP                      :
          :.................................................:
          :  # basis functions                 470          :
          :  # atomic orbitals                 464          :
          :  # shells                          252          :
          :  # electrons                       470          :
          :  max. iterations                   250          :
          :  Hamiltonian                  GFN2-xTB          :
          :  restarted?                      false          :
          :  GBSA solvation                   true          :
          :  PC potential                    false          :
          :  electronic temp.          300.0000000     K    :
          :  accuracy                    1.0000000          :
          :  -> integral cutoff          0.2500000E+02      :
          :  -> integral neglect         0.1000000E-07      :
          :  -> SCF convergence          0.1000000E-05 Eh   :
          :  -> wf. convergence          0.1000000E-03 e    :
          :  Broyden damping             0.4000000          :
          ...................................................

 iter      E             dE          RMSdq      gap      omega  full diag
   1   -261.1233699 -0.261123E+03  0.395E+00    0.47       0.0  T
   2   -261.3812714 -0.257901E+00  0.242E+00    0.45       1.0  T
   3   -261.2898598  0.914116E-01  0.130E+00    0.42       1.0  T
   4   -261.4268287 -0.136969E+00  0.575E-01    0.45       1.0  T
   5   -261.4738691 -0.470404E-01  0.192E-01    0.40       1.0  T
   6   -261.4754164 -0.154737E-02  0.877E-02    0.40       1.0  T
   7   -261.4757066 -0.290129E-03  0.483E-02    0.40       1.0  T
   8   -261.4758578 -0.151281E-03  0.247E-02    0.40       1.0  T
   9   -261.4759032 -0.453611E-04  0.123E-02    0.40       1.0  T
  10   -261.4759144 -0.112047E-04  0.573E-03    0.40       1.4  T
  11   -261.4759166 -0.222797E-05  0.332E-03    0.40       2.4  T
  12   -261.4759171 -0.497743E-06  0.180E-03    0.40       4.5  T
  13   -261.4759173 -0.152923E-06  0.902E-04    0.40       9.0  T
  14   -261.4759173 -0.211805E-07  0.417E-04    0.40      19.5  T

   *** convergence criteria satisfied after 14 iterations ***

         #    Occupation            Energy/Eh            Energy/eV
      -------------------------------------------------------------
         1        2.0000           -0.7708116             -20.9749
       ...           ...                  ...                  ...
       229        2.0000           -0.3799798             -10.3398
       230        2.0000           -0.3714570             -10.1079
       231        2.0000           -0.3616778              -9.8418
       232        2.0000           -0.3614568              -9.8357
       233        2.0000           -0.3585242              -9.7559
       234        2.0000           -0.3558603              -9.6835
       235        1.9991           -0.3489949              -9.4966 (HOMO)
       236        0.0009           -0.3342938              -9.0966 (LUMO)
       237        0.0000           -0.3276292              -8.9152
       238                         -0.3219720              -8.7613
       239                         -0.3194382              -8.6924
       240                         -0.2920428              -7.9469
       ...                                ...                  ...
       464                          0.7422929              20.1988
      -------------------------------------------------------------
                  HL-Gap            0.0147011 Eh            0.4000 eV
             Fermi-level           -0.3416444 Eh           -9.2966 eV

 SCC (total)                   0 d,  0 h,  0 min,  0.421 sec
 SCC setup                      ...        0 min,  0.005 sec (  1.151%)
 Dispersion                     ...        0 min,  0.006 sec (  1.483%)
 classical contributions        ...        0 min,  0.000 sec (  0.097%)
 integral evaluation            ...        0 min,  0.021 sec (  5.035%)
 iterations                     ...        0 min,  0.316 sec ( 75.040%)
 molecular gradient             ...        0 min,  0.071 sec ( 16.757%)
 printout                       ...        0 min,  0.002 sec (  0.415%)

         :::::::::::::::::::::::::::::::::::::::::::::::::::::
         ::                     SUMMARY                     ::
         :::::::::::::::::::::::::::::::::::::::::::::::::::::
         :: total energy            -257.920267537659 Eh    ::
         :: total w/o Gsasa/hb      -257.905554322097 Eh    ::
         :: gradient norm              0.024702057070 Eh/a0 ::
         :: HOMO-LUMO gap              0.400038450564 eV    ::
         ::.................................................::
         :: SCC energy              -261.475917308616 Eh    ::
         :: -> isotropic ES            0.248229199206 Eh    ::
         :: -> anisotropic ES          0.019922806352 Eh    ::
         :: -> anisotropic XC          0.142685448732 Eh    ::
         :: -> dispersion             -0.243877424675 Eh    ::
         :: -> Gsolv                  -0.060022057249 Eh    ::
         ::    -> Gelec               -0.045308841686 Eh    ::
         ::    -> Gsasa               -0.009241586756 Eh    ::
         ::    -> Ghb                 -0.006552388505 Eh    ::
         ::    -> Gshift               0.001080759698 Eh    ::
         :: repulsion energy           3.553300238825 Eh    ::
         :: add. restraining           0.000000000000 Eh    ::
         :: total charge              -0.000000000000 e     ::
         :::::::::::::::::::::::::::::::::::::::::::::::::::::

           -------------------------------------------------
          |                Property Printout                |
           -------------------------------------------------

    * Orbital Energies and Occupations

         #    Occupation            Energy/Eh            Energy/eV
      -------------------------------------------------------------
         1        2.0000           -0.7708116             -20.9749
       ...           ...                  ...                  ...
       223        2.0000           -0.4099103             -11.1542
       224        2.0000           -0.4051001             -11.0233
       225        2.0000           -0.3985825             -10.8460
       226        2.0000           -0.3956940             -10.7674
       227        2.0000           -0.3825093             -10.4086
       228        2.0000           -0.3820843             -10.3970
       229        2.0000           -0.3799798             -10.3398
       230        2.0000           -0.3714570             -10.1079
       231        2.0000           -0.3616778              -9.8418
       232        2.0000           -0.3614568              -9.8357
       233        2.0000           -0.3585242              -9.7559
       234        2.0000           -0.3558603              -9.6835
       235        1.9991           -0.3489949              -9.4966 (HOMO)
       236        0.0009           -0.3342938              -9.0966 (LUMO)
       237        0.0000           -0.3276292              -8.9152
       238                         -0.3219720              -8.7613
       239                         -0.3194382              -8.6924
       240                         -0.2920428              -7.9469
       241                         -0.2815583              -7.6616
       242                         -0.2797095              -7.6113
       243                         -0.2765169              -7.5244
       244                         -0.2732282              -7.4349
       245                         -0.2655847              -7.2269
       246                         -0.2449219              -6.6647
       ...                                ...                  ...
       464                          0.7422929              20.1988
      -------------------------------------------------------------
                  HL-Gap            0.0147011 Eh            0.4000 eV
             Fermi-level           -0.3416444 Eh           -9.2966 eV

     #   Z          covCN         q      C6AA      α(0)
     1   6 C        2.912    -0.080    29.993     8.980
     2   6 C        3.342     0.069    24.007     7.743
     3   7 N        1.850    -0.315    29.018     7.984
     4  16 S        2.650     0.359   127.262    18.987
     5   7 N        1.853    -0.293    28.441     7.904
     6   6 C        3.316     0.064    24.596     7.905
     7   6 C        3.020    -0.019    28.451     8.749
     8   6 C        2.968     0.059    26.678     8.472
     9   6 C        2.957     0.072    26.385     8.425
    10   7 N        1.851    -0.257    27.532     7.777
    11   6 C        2.936     0.096    25.878     8.343
    12   6 C        3.809    -0.073    21.885     6.659
    13   6 C        3.754    -0.110    22.656     6.787
    14   6 C        2.930     0.087    26.073     8.374
    15   6 C        3.809    -0.072    21.869     6.657
    16   6 C        3.754    -0.106    22.589     6.777
    17   7 N        2.283    -0.197    25.580     7.508
    18   6 C        2.975     0.023    27.481     8.599
    19  16 S        2.847    -0.012   141.546    20.024
    20   6 C        3.031     0.012    27.717     8.636
    21   6 C        3.135    -0.005    27.925     8.650
    22   6 C        3.140    -0.001    27.820     8.632
    23   6 C        2.911    -0.082    30.050     8.989
    24   6 C        2.865     0.132    25.105     8.213
    25   8 O        1.705    -0.265    18.391     5.790
    26   6 C        3.647     0.013    20.682     6.535
    27   6 C        2.864     0.130    25.158     8.222
    28   8 O        1.705    -0.271    18.487     5.805
    29   6 C        3.646     0.020    20.577     6.519
    30   6 C        2.910    -0.080    29.999     8.981
    31   6 C        3.032     0.022    27.482     8.599
    32  16 S        2.470     0.012   140.578    19.955
    33   6 C        2.977     0.024    27.458     8.595
    34   6 C        3.143     0.001    27.751     8.620
    35   6 C        3.139    -0.005    27.911     8.646
    36   6 C        2.909    -0.079    29.978     8.978
    37   6 C        2.864     0.131    25.135     8.218
    38   8 O        1.705    -0.268    18.442     5.798
    39   6 C        3.646     0.018    20.600     6.522
    40   6 C        2.865     0.131    25.130     8.217
    41   8 O        1.705    -0.265    18.394     5.790
    42   6 C        3.647     0.020    20.570     6.517
    43   6 C        2.910    -0.069    29.724     8.940
    44   6 C        3.012    -0.022    28.532     8.762
    45   6 C        3.349     0.064    23.965     7.718
    46   7 N        1.909    -0.287    28.290     7.886
    47  16 S        2.668     0.373   126.767    18.950
    48   7 N        1.853    -0.306    28.782     7.951
    49   6 C        3.341     0.070    23.993     7.744
    50   6 C        2.970    -0.018    28.465     8.751
    51   6 C        2.960     0.068    26.470     8.439
    52   6 C        2.956     0.062    26.620     8.462
    53   7 N        1.853    -0.244    27.216     7.732
    54   6 C        2.937     0.086    26.083     8.376
    55   6 C        3.808    -0.068    21.797     6.646
    56   6 C        3.754    -0.109    22.639     6.785
    57   6 C        2.937     0.090    25.990     8.361
    58   6 C        3.809    -0.068    21.793     6.645
    59   6 C        3.754    -0.108    22.625     6.783
    60   7 N        1.855    -0.248    27.326     7.748
    61   6 C        2.970    -0.008    28.214     8.713
    62   6 C        3.351     0.070    23.794     7.683
    63   7 N        1.851    -0.300    28.635     7.931
    64  16 S        2.687     0.385   126.353    18.919
    65   7 N        1.851    -0.303    28.705     7.941
    66   6 C        3.348     0.071    23.848     7.701
    67   6 C        2.970    -0.014    28.365     8.736
    68   6 C        2.959     0.069    26.454     8.436
    69   6 C        2.960     0.067    26.492     8.442
    70   7 N        1.853    -0.248    27.307     7.745
    71   6 C        2.938     0.091    25.975     8.359
    72   6 C        3.810    -0.069    21.810     6.648
    73   6 C        3.754    -0.108    22.614     6.781
    74   6 C        2.939     0.093    25.929     8.351
    75   6 C        3.810    -0.070    21.827     6.650
    76   6 C        3.755    -0.111    22.684     6.791
    77   7 N        1.853    -0.249    27.340     7.750
    78   6 C        2.969    -0.005    28.140     8.701
    79   6 C        3.349     0.069    23.858     7.701
    80   7 N        1.851    -0.296    28.532     7.917
    81  16 S        2.689     0.409   125.488    18.854
    82   7 N        1.849    -0.306    28.769     7.949
    83   6 C        3.350     0.067    23.877     7.700
    84   6 C        2.912    -0.071    29.764     8.946
    85   6 C        2.958     0.070    26.429     8.432
    86   6 C        2.961     0.069    26.456     8.437
    87   7 N        1.853    -0.249    27.336     7.749
    88   6 C        2.937     0.091    25.982     8.360
    89   6 C        3.810    -0.068    21.791     6.645
    90   6 C        3.753    -0.110    22.653     6.787
    91   6 C        2.936     0.096    25.879     8.343
    92   6 C        3.810    -0.072    21.875     6.658
    93   6 C        3.754    -0.108    22.620     6.782
    94   7 N        1.853    -0.251    27.384     7.756
    95   1 H        0.926     0.065     2.142     2.288
    96   1 H        0.924     0.069     2.098     2.265
    97   1 H        0.925     0.060     2.204     2.321
    98   1 H        0.925     0.043     2.414     2.430
    99   1 H        0.925     0.059     2.212     2.326
   100   1 H        0.925     0.046     2.365     2.405
   101   1 H        0.925     0.065     2.143     2.289
   102   1 H        0.924     0.070     2.090     2.261
   103   1 H        0.925     0.044     2.394     2.419
   104   1 H        0.925     0.047     2.354     2.399
   105   1 H        0.925     0.050     2.326     2.385
   106   1 H        0.926     0.076     2.019     2.222
   107   1 H        0.924     0.062     2.175     2.307
   108   1 H        0.924     0.057     2.238     2.340
   109   1 H        0.925     0.091     1.869     2.138
   110   1 H        0.924     0.058     2.223     2.331
   111   1 H        0.925     0.089     1.885     2.147
   112   1 H        0.924     0.052     2.293     2.368
   113   1 H        0.926     0.067     2.117     2.276
   114   1 H        0.926     0.070     2.084     2.257
   115   1 H        0.925     0.090     1.875     2.141
   116   1 H        0.924     0.060     2.204     2.322
   117   1 H        0.924     0.052     2.289     2.366
   118   1 H        0.924     0.051     2.309     2.376
   119   1 H        0.924     0.054     2.268     2.355
   120   1 H        0.925     0.092     1.864     2.135
   121   1 H        0.926     0.059     2.211     2.325
   122   1 H        0.924     0.062     2.172     2.305
   123   1 H        0.924     0.062     2.174     2.306
   124   1 H        0.925     0.061     2.183     2.311
   125   1 H        0.925     0.041     2.430     2.438
   126   1 H        0.925     0.040     2.443     2.444
   127   1 H        0.924     0.065     2.141     2.288
   128   1 H        0.924     0.053     2.289     2.366
   129   1 H        0.925     0.039     2.466     2.456
   130   1 H        0.925     0.044     2.398     2.422
   131   1 H        0.925     0.062     2.180     2.309
   132   1 H        0.925     0.064     2.150     2.293
   133   1 H        0.924     0.058     2.225     2.333
   134   1 H        0.925     0.042     2.424     2.435
   135   1 H        0.925     0.063     2.170     2.304
   136   1 H        0.925     0.040     2.453     2.449
   137   1 H        0.924     0.063     2.161     2.299
   138   1 H        0.924     0.058     2.219     2.330
   139   1 H        0.925     0.047     2.352     2.398
   140   1 H        0.925     0.042     2.422     2.434
   141   1 H        0.925     0.064     2.147     2.292
   142   1 H        0.926     0.077     2.010     2.217
   143   1 H        0.924     0.060     2.197     2.318
   144   1 H        0.924     0.055     2.254     2.348
   145   1 H        0.925     0.062     2.181     2.309
   146   1 H        0.925     0.053     2.281     2.362
   147   1 H        0.925     0.038     2.480     2.463
   148   1 H        0.925     0.060     2.202     2.321
   149   1 H        0.924     0.072     2.068     2.249
   150   1 H        0.925     0.039     2.463     2.454
   151   1 H        0.925     0.060     2.203     2.321
   152   1 H        0.925     0.049     2.332     2.388

 Mol. C6AA /au·bohr⁶  :     356886.814177
 Mol. C8AA /au·bohr⁸  :    9531058.423371
 Mol. α(0) /au        :        937.206639


Wiberg/Mayer (AO) data.
largest (>0.10) Wiberg bond orders for each atom

 ---------------------------------------------------------------------------
     #   Z sym  total        # sym  WBO       # sym  WBO       # sym  WBO
 ---------------------------------------------------------------------------
     1   6 C    3.874 --     9 C    1.352     2 C    1.327    95 H    0.963
     2   6 C    3.972 --     3 N    1.341     1 C    1.327     6 C    1.128
     3   7 N    3.019 --     4 S    1.420     2 C    1.341     5 N    0.156
     4  16 S    3.133 --     3 N    1.420     5 N    1.409
     5   7 N    3.073 --     4 S    1.409     6 C    1.389     3 N    0.156
     6   6 C    3.963 --     5 N    1.389     7 C    1.217     2 C    1.128
     7   6 C    3.965 --    18 C    1.249     8 C    1.227     6 C    1.217
     8   6 C    3.955 --    17 N    1.304     7 C    1.227     9 C    1.177
     9   6 C    3.977 --     1 C    1.352    10 N    1.253     8 C    1.177
    10   7 N    3.037 --    11 C    1.544     9 C    1.253
    11   6 C    3.944 --    10 N    1.544    14 C    1.199    12 C    1.011
    12   6 C    3.988 --    11 C    1.011    13 C    0.992    96 H    0.969
                            97 H    0.967
    13   6 C    3.988 --    12 C    0.992   100 H    0.988    98 H    0.986
                            99 H    0.983
    14   6 C    3.921 --    17 N    1.490    11 C    1.199    15 C    1.014
    15   6 C    3.989 --    14 C    1.014    16 C    0.990   101 H    0.967
                           102 H    0.966
    16   6 C    3.986 --    15 C    0.990   103 H    0.987   104 H    0.986
                           105 H    0.984
    17   7 N    3.262 --    14 C    1.490     8 C    1.304    19 S    0.219
    18   6 C    3.912 --    22 C    1.268     7 C    1.249    19 S    1.137
    19  16 S    2.821 --    18 C    1.137    20 C    1.122    17 N    0.219
    20   6 C    3.906 --    21 C    1.277    31 C    1.266    19 S    1.122
    21   6 C    3.963 --    20 C    1.277    30 C    1.265    22 C    1.213
    22   6 C    3.959 --    23 C    1.281    18 C    1.268    21 C    1.213
    23   6 C    3.966 --    24 C    1.473    22 C    1.281   106 H    0.940
    24   6 C    3.916 --    23 C    1.473    27 C    1.170    25 O    1.086
    25   8 O    2.235 --    24 C    1.086    26 C    0.971
    26   6 C    3.924 --   109 H    0.975   108 H    0.974   107 H    0.973
                            25 O    0.971
    27   6 C    3.917 --    30 C    1.485    24 C    1.170    28 O    1.078
    28   8 O    2.229 --    27 C    1.078    29 C    0.972
    29   6 C    3.926 --   111 H    0.975   110 H    0.974    28 O    0.972
                           112 H    0.971
    30   6 C    3.961 --    27 C    1.485    21 C    1.265   113 H    0.956
    31   6 C    3.883 --    35 C    1.272    20 C    1.266    32 S    1.142
    32  16 S    2.658 --    31 C    1.142    33 C    1.137
    33   6 C    3.898 --    34 C    1.275    44 C    1.244    32 S    1.137
    34   6 C    3.959 --    33 C    1.275    43 C    1.268    35 C    1.217
    35   6 C    3.960 --    31 C    1.272    36 C    1.263    34 C    1.217
    36   6 C    3.962 --    37 C    1.489    35 C    1.263   114 H    0.955
    37   6 C    3.916 --    36 C    1.489    40 C    1.165    38 O    1.080
    38   8 O    2.232 --    37 C    1.080    39 C    0.972
    39   6 C    3.925 --   115 H    0.975   116 H    0.974    38 O    0.972
                           117 H    0.971
    40   6 C    3.920 --    43 C    1.486    37 C    1.165    41 O    1.081
    41   8 O    2.233 --    40 C    1.081    42 C    0.973
    42   6 C    3.927 --   120 H    0.975   119 H    0.975    41 O    0.973
                           118 H    0.972
    43   6 C    3.965 --    40 C    1.486    34 C    1.268   121 H    0.953
    44   6 C    3.944 --    33 C    1.244    52 C    1.227    45 C    1.211
    45   6 C    3.962 --    46 N    1.388    44 C    1.211    49 C    1.148
    46   7 N    3.092 --    47 S    1.395    45 C    1.388    48 N    0.153
    47  16 S    3.114 --    48 N    1.422    46 N    1.395
    48   7 N    3.039 --    47 S    1.422    49 C    1.363    46 N    0.153
    49   6 C    3.965 --    48 N    1.363    50 C    1.246    45 C    1.148
    50   6 C    3.894 --    51 C    1.266    49 C    1.246    61 C    1.124
    51   6 C    3.967 --    60 N    1.277    50 C    1.266    52 C    1.182
    52   6 C    3.956 --    53 N    1.296    44 C    1.227    51 C    1.182
    53   7 N    3.084 --    54 C    1.530    52 C    1.296
    54   6 C    3.929 --    53 N    1.530    57 C    1.181    55 C    1.011
    55   6 C    3.990 --    54 C    1.011    56 C    0.992   122 H    0.971
                           123 H    0.964
    56   6 C    3.987 --    55 C    0.992   126 H    0.988   125 H    0.986
                           124 H    0.983
    57   6 C    3.939 --    60 N    1.549    54 C    1.181    58 C    1.009
    58   6 C    3.991 --    57 C    1.009    59 C    0.994   128 H    0.973
                           127 H    0.963
    59   6 C    3.988 --    58 C    0.994   129 H    0.989   130 H    0.986
                           131 H    0.983
    60   7 N    3.088 --    57 C    1.549    51 C    1.277
    61   6 C    3.954 --    69 C    1.274    62 C    1.252    50 C    1.124
    62   6 C    3.964 --    63 N    1.363    61 C    1.252    66 C    1.139
    63   7 N    3.059 --    64 S    1.431    62 C    1.363    65 N    0.165
    64  16 S    3.161 --    63 N    1.431    65 N    1.429
    65   7 N    3.050 --    64 S    1.429    66 C    1.355    63 N    0.165
    66   6 C    3.969 --    65 N    1.355    67 C    1.261    62 C    1.139
    67   6 C    3.940 --    68 C    1.283    66 C    1.261    78 C    1.100
    68   6 C    3.971 --    67 C    1.283    77 N    1.267    69 C    1.181
    69   6 C    3.960 --    61 C    1.274    70 N    1.273    68 C    1.181
    70   7 N    3.063 --    71 C    1.546    69 C    1.273
    71   6 C    3.934 --    70 N    1.546    74 C    1.184    72 C    1.009
    72   6 C    3.990 --    71 C    1.009    73 C    0.993   133 H    0.971
                           132 H    0.966
    73   6 C    3.987 --    72 C    0.993   136 H    0.988   134 H    0.986
                           135 H    0.983
    74   6 C    3.936 --    77 N    1.546    71 C    1.184    75 C    1.011
    75   6 C    3.990 --    74 C    1.011    76 C    0.991   138 H    0.972
                           137 H    0.966
    76   6 C    3.985 --    75 C    0.991   140 H    0.986   139 H    0.986
                           141 H    0.982
    77   7 N    3.065 --    74 C    1.546    68 C    1.267
    78   6 C    3.978 --    86 C    1.295    79 C    1.267    67 C    1.100
                            84 C    0.114
    79   6 C    3.965 --    80 N    1.354    78 C    1.267    83 C    1.130
    80   7 N    3.071 --    81 S    1.450    79 C    1.354    82 N    0.172
    81  16 S    3.192 --    80 N    1.450    82 N    1.443
    82   7 N    3.047 --    81 S    1.443    83 C    1.334    80 N    0.172
    83   6 C    3.973 --    82 N    1.334    84 C    1.331    79 C    1.130
    84   6 C    3.950 --    85 C    1.370    83 C    1.331   142 H    0.961
                            78 C    0.114
    85   6 C    3.978 --    84 C    1.370    94 N    1.246    86 C    1.164
    86   6 C    3.968 --    78 C    1.295    87 N    1.268    85 C    1.164
    87   7 N    3.076 --    88 C    1.558    86 C    1.268
    88   6 C    3.935 --    87 N    1.558    91 C    1.169    89 C    1.011
    89   6 C    3.991 --    88 C    1.011    90 C    0.993   144 H    0.972
                           143 H    0.963
    90   6 C    3.985 --    89 C    0.993   147 H    0.986   146 H    0.984
                           145 H    0.983
    91   6 C    3.941 --    94 N    1.567    88 C    1.169    92 C    1.012
    92   6 C    3.989 --    91 C    1.012    93 C    0.993   148 H    0.970
                           149 H    0.961
    93   6 C    3.989 --    92 C    0.993   152 H    0.987   150 H    0.986
                           151 H    0.983
    94   7 N    3.056 --    91 C    1.567    85 C    1.246
    95   1 H    0.995 --     1 C    0.963
    96   1 H    0.994 --    12 C    0.969
    97   1 H    0.995 --    12 C    0.967
    98   1 H    0.998 --    13 C    0.986
    99   1 H    0.995 --    13 C    0.983
   100   1 H    0.998 --    13 C    0.988
   101   1 H    0.994 --    15 C    0.967
   102   1 H    0.994 --    15 C    0.966
   103   1 H    0.998 --    16 C    0.987
   104   1 H    0.998 --    16 C    0.986
   105   1 H    0.996 --    16 C    0.984
   106   1 H    0.993 --    23 C    0.940
   107   1 H    0.995 --    26 C    0.973
   108   1 H    0.995 --    26 C    0.974
   109   1 H    0.991 --    26 C    0.975
   110   1 H    0.996 --    29 C    0.974
   111   1 H    0.992 --    29 C    0.975
   112   1 H    0.996 --    29 C    0.971
   113   1 H    0.994 --    30 C    0.956
   114   1 H    0.994 --    36 C    0.955
   115   1 H    0.991 --    39 C    0.975
   116   1 H    0.995 --    39 C    0.974
   117   1 H    0.996 --    39 C    0.971
   118   1 H    0.996 --    42 C    0.972
   119   1 H    0.996 --    42 C    0.975
   120   1 H    0.991 --    42 C    0.975
   121   1 H    0.995 --    43 C    0.953
   122   1 H    0.995 --    55 C    0.971
   123   1 H    0.993 --    55 C    0.964
   124   1 H    0.995 --    56 C    0.983
   125   1 H    0.998 --    56 C    0.986
   126   1 H    0.998 --    56 C    0.988
   127   1 H    0.994 --    58 C    0.963
   128   1 H    0.997 --    58 C    0.973
   129   1 H    0.998 --    59 C    0.989
   130   1 H    0.998 --    59 C    0.986
   131   1 H    0.995 --    59 C    0.983
   132   1 H    0.994 --    72 C    0.966
   133   1 H    0.996 --    72 C    0.971
   134   1 H    0.998 --    73 C    0.986
   135   1 H    0.995 --    73 C    0.983
   136   1 H    0.998 --    73 C    0.988
   137   1 H    0.994 --    75 C    0.966
   138   1 H    0.996 --    75 C    0.972
   139   1 H    0.998 --    76 C    0.986
   140   1 H    0.998 --    76 C    0.986
   141   1 H    0.994 --    76 C    0.982
   142   1 H    0.993 --    84 C    0.961
   143   1 H    0.994 --    89 C    0.963
   144   1 H    0.997 --    89 C    0.972
   145   1 H    0.995 --    90 C    0.983
   146   1 H    0.997 --    90 C    0.984
   147   1 H    0.999 --    90 C    0.986
   148   1 H    0.996 --    92 C    0.970
   149   1 H    0.994 --    92 C    0.961
   150   1 H    0.998 --    93 C    0.986
   151   1 H    0.995 --    93 C    0.983
   152   1 H    0.998 --    93 C    0.987
 ---------------------------------------------------------------------------

Topologies differ in bond orders
Writing corrected topology to xtbtopo.mol

molecular dipole:
                 x           y           z       tot (Debye)
 q only:       -3.322      -2.017       1.236
   full:       -3.128      -2.078       0.683       9.702
molecular quadrupole (traceless):
                xx          xy          yy          xz          yz          zz
 q only:       34.742      13.484     -15.983      42.751     -34.364     -18.758
  q+dip:       23.056       8.307      -2.955      51.622     -25.465     -20.101
   full:       19.768       4.446       6.896      56.777     -25.022     -26.663


           -------------------------------------------------
          | TOTAL ENERGY             -257.920267537659 Eh   |
          | GRADIENT NORM               0.024702057070 Eh/α |
          | HOMO-LUMO GAP               0.400038450564 eV   |
           -------------------------------------------------

------------------------------------------------------------------------
 * finished run on 2022/03/04 at 08:59:23.762     
------------------------------------------------------------------------
 total:
 * wall-time:     0 d,  0 h,  0 min,  0.493 sec
 *  cpu-time:     0 d,  0 h,  0 min,  3.831 sec
 * ratio c/w:     7.768 speedup
 SCF:
 * wall-time:     0 d,  0 h,  0 min,  0.424 sec
 *  cpu-time:     0 d,  0 h,  0 min,  3.358 sec
 * ratio c/w:     7.929 speedup

