      -----------------------------------------------------------      
     |                   =====================                   |     
     |                           x T B                           |     
     |                   =====================                   |     
     |                         S. Grimme                         |     
     |          Mulliken Center for Theoretical Chemistry        |     
     |                    University of Bonn                     |     
      -----------------------------------------------------------      

   * xtb version 6.4.1 (unknown) compiled by 'oda6@login1.crc.pitt.edu' on 2021-06-25

   xtb is free software: you can redistribute it and/or modify it under
   the terms of the GNU Lesser General Public License as published by
   the Free Software Foundation, either version 3 of the License, or
   (at your option) any later version.
   
   xtb is distributed in the hope that it will be useful,
   but WITHOUT ANY WARRANTY; without even the implied warranty of
   MERCHANTABILITY or FITNESS FOR A PARTICULAR PURPOSE.  See the
   GNU Lesser General Public License for more details.
   
   Cite this work as:
   * C. Bannwarth, E. Caldeweyher, S. Ehlert, A. Hansen, P. Pracht,
     J. Seibert, S. Spicher, S. Grimme, WIREs Comput. Mol. Sci., 2020, 11,
     e01493. DOI: 10.1002/wcms.1493
   
   for GFN2-xTB:
   * C. Bannwarth, S. Ehlert and S. Grimme., J. Chem. Theory Comput., 2019,
     15, 1652-1671. DOI: 10.1021/acs.jctc.8b01176
   for GFN1-xTB:
   * S. Grimme, C. Bannwarth, P. Shushkov, J. Chem. Theory Comput., 2017,
     13, 1989-2009. DOI: 10.1021/acs.jctc.7b00118
   for GFN0-xTB:
   * P. Pracht, E. Caldeweyher, S. Ehlert, S. Grimme, ChemRxiv, 2019, preprint.
     DOI: 10.26434/chemrxiv.8326202.v1
   for GFN-FF:
   * S. Spicher and S. Grimme, Angew. Chem. Int. Ed., 2020, 59, 15665-15673.
     DOI: 10.1002/anie.202004239
   
   for DFT-D4:
   * E. Caldeweyher, C. Bannwarth and S. Grimme, J. Chem. Phys., 2017,
     147, 034112. DOI: 10.1063/1.4993215
   * E. Caldeweyher, S. Ehlert, A. Hansen, H. Neugebauer, S. Spicher,
     C. Bannwarth and S. Grimme, J. Chem. Phys., 2019, 150, 154122.
     DOI: 10.1063/1.5090222
   * E. Caldeweyher, J.-M. Mewes, S. Ehlert and S. Grimme, Phys. Chem. Chem. Phys.
     2020, 22, 8499-8512. DOI: 10.1039/D0CP00502A
   
   for sTDA-xTB:
   * S. Grimme and C. Bannwarth, J. Chem. Phys., 2016, 145, 054103.
     DOI: 10.1063/1.4959605
   
   in the mass-spec context:
   * V. Asgeirsson, C. Bauer and S. Grimme, Chem. Sci., 2017, 8, 4879.
     DOI: 10.1039/c7sc00601b
   * J. Koopman and S. Grimme, ACS Omega 2019, 4, 12, 15120-15133.
     DOI: 10.1021/acsomega.9b02011
   
   for metadynamics refer to:
   * S. Grimme, J. Chem. Theory Comput., 2019, 155, 2847-2862
     DOI: 10.1021/acs.jctc.9b00143
   
   for SPH calculations refer to:
   * S. Spicher and S. Grimme, J. Chem. Theory Comput., 2021, 17, 1701-1714
     DOI: 10.1021/acs.jctc.0c01306
   
   with help from (in alphabetical order)
   P. Atkinson, C. Bannwarth, F. Bohle, G. Brandenburg, E. Caldeweyher
   M. Checinski, S. Dohm, S. Ehlert, S. Ehrlich, I. Gerasimov, J. Koopman
   C. Lavigne, S. Lehtola, F. März, M. Müller, F. Musil, H. Neugebauer
   J. Pisarek, C. Plett, P. Pracht, J. Seibert, P. Shushkov, S. Spicher
   M. Stahn, M. Steiner, T. Strunk, J. Stückrath, T. Rose, and J. Unsleber
   
 * started run on 2022/03/04 at 05:02:54.174     

           -------------------------------------------------
          |                Calculation Setup                |
           -------------------------------------------------

          program call               : /ihome/ghutchison/oda6/xtb/xtb-641/bin/xtb ../../GFN2_output/1050_62_001111.mol --sp --alpb water
          hostname                   : smp-n90
          coordinate file            : ../../GFN2_output/1050_62_001111.mol
          omp threads                :                     8
          number of atoms            :                   212
          number of electrons        :                   670
          charge                     :                     0
          spin                       :                   0.0
          first test random number   :      0.98399065790661

   ID    Z sym.   atoms
    1    6 C      1, 3-7, 9, 10, 12-14, 16-20, 22, 23, 25-33, 35-37, 39-47,
                  49, 51, 52, 54-60, 62-64, 66-74, 76, 78, 79, 81-87, 89-91,
                  93-101, 103, 105, 106, 108-114, 116-118, 120-128, 130, 132,
                  133
    2   16 S      2, 15, 38, 48, 50, 53, 65, 75, 77, 80, 92, 102, 104, 107,
                  119, 129, 131, 134
    3    8 O      8, 11, 21, 24
    4   17 Cl     34, 61, 88, 115
    5    1 H      135-212

           -------------------------------------------------
          |                 G F N 2 - x T B                 |
           -------------------------------------------------

        Reference                      10.1021/acs.jctc.8b01176
      * Hamiltonian:
        H0-scaling (s, p, d)           1.850000    2.230000    2.230000
        zeta-weighting                 0.500000
      * Dispersion:
        s8                             2.700000
        a1                             0.520000
        a2                             5.000000
        s9                             5.000000
      * Repulsion:
        kExp                           1.500000    1.000000
        rExp                           1.000000
      * Coulomb:
        alpha                          2.000000
        third order                    shell-resolved
        anisotropic                    true
        a3                             3.000000
        a5                             4.000000
        cn-shift                       1.200000
        cn-exp                         4.000000
        max-rad                        5.000000

      * Solvation model:               ALPB
        Solvent                        water
        Parameter file                 internal GFN2-xTB/ALPB
        Dielectric constant                8.0200E+01
        Reference state                gsolv [1 M gas/solution]
        Free energy shift                  1.0808E-03 Eh       6.7819E-01 kcal/mol
        Temperature                        2.9815E+02 K
        Density                            1.0000E+00 kg/L
        Solvent mass                       1.8000E+01 g/mol
        Interaction kernel             P16
        Born radius scaling (c1)           1.4744E+00
        Born radii integrator          GBOBC
        Born offset                        0.0000E+00 a0       0.0000E+00 AA
        H-bond correction              true
        Ion screening                  false
        Surface tension                    1.0000E-05 Eh       1.5569E+01 dyn/cm
        Grid points                               230 per atom

          ...................................................
          :                      SETUP                      :
          :.................................................:
          :  # basis functions                 746          :
          :  # atomic orbitals                 724          :
          :  # shells                          368          :
          :  # electrons                       670          :
          :  max. iterations                   250          :
          :  Hamiltonian                  GFN2-xTB          :
          :  restarted?                      false          :
          :  GBSA solvation                   true          :
          :  PC potential                    false          :
          :  electronic temp.          300.0000000     K    :
          :  accuracy                    1.0000000          :
          :  -> integral cutoff          0.2500000E+02      :
          :  -> integral neglect         0.1000000E-07      :
          :  -> SCF convergence          0.1000000E-05 Eh   :
          :  -> wf. convergence          0.1000000E-03 e    :
          :  Broyden damping             0.4000000          :
          ...................................................

 iter      E             dE          RMSdq      gap      omega  full diag
   1   -369.0924391 -0.369092E+03  0.421E+00    1.07       0.0  T
   2   -369.2726524 -0.180213E+00  0.232E+00    1.03       1.0  T
   3   -369.1792953  0.933571E-01  0.981E-01    1.02       1.0  T
   4   -369.3002293 -0.120934E+00  0.386E-01    1.00       1.0  T
   5   -369.3101513 -0.992198E-02  0.162E-01    1.00       1.0  T
   6   -369.3115866 -0.143531E-02  0.791E-02    1.01       1.0  T
   7   -369.3120981 -0.511528E-03  0.401E-02    1.01       1.0  T
   8   -369.3122276 -0.129539E-03  0.252E-02    1.01       1.0  T
   9   -369.3122546 -0.269717E-04  0.177E-02    1.01       1.0  T
  10   -369.3122781 -0.235300E-04  0.118E-02    1.01       1.0  T
  11   -369.3122876 -0.946901E-05  0.830E-03    1.01       1.0  T
  12   -369.3122935 -0.589567E-05  0.438E-03    1.02       1.6  T
  13   -369.3122957 -0.221271E-05  0.207E-03    1.02       3.3  T
  14   -369.3122959 -0.210588E-06  0.128E-03    1.02       5.4  T
  15   -369.3122960 -0.112150E-06  0.698E-04    1.02       9.8  T
  16   -369.3122961 -0.229015E-07  0.374E-04    1.02      18.4  T

   *** convergence criteria satisfied after 16 iterations ***

         #    Occupation            Energy/Eh            Energy/eV
      -------------------------------------------------------------
         1        2.0000           -1.0717531             -29.1639
       ...           ...                  ...                  ...
       329        2.0000           -0.3785410             -10.3006
       330        2.0000           -0.3766222             -10.2484
       331        2.0000           -0.3652878              -9.9400
       332        2.0000           -0.3632011              -9.8832
       333        2.0000           -0.3613225              -9.8321
       334        2.0000           -0.3584003              -9.7526
       335        2.0000           -0.3441592              -9.3650 (HOMO)
       336                         -0.3068157              -8.3489 (LUMO)
       337                         -0.3012609              -8.1977
       338                         -0.2915071              -7.9323
       339                         -0.2825047              -7.6873
       340                         -0.2768068              -7.5323
       ...                                ...                  ...
       724                          0.7404893              20.1497
      -------------------------------------------------------------
                  HL-Gap            0.0373435 Eh            1.0162 eV
             Fermi-level           -0.3254888 Eh           -8.8570 eV

 SCC (total)                   0 d,  0 h,  0 min,  0.963 sec
 SCC setup                      ...        0 min,  0.008 sec (  0.871%)
 Dispersion                     ...        0 min,  0.012 sec (  1.212%)
 classical contributions        ...        0 min,  0.000 sec (  0.040%)
 integral evaluation            ...        0 min,  0.047 sec (  4.841%)
 iterations                     ...        0 min,  0.769 sec ( 79.896%)
 molecular gradient             ...        0 min,  0.122 sec ( 12.681%)
 printout                       ...        0 min,  0.004 sec (  0.450%)

         :::::::::::::::::::::::::::::::::::::::::::::::::::::
         ::                     SUMMARY                     ::
         :::::::::::::::::::::::::::::::::::::::::::::::::::::
         :: total energy            -364.168250749971 Eh    ::
         :: total w/o Gsasa/hb      -364.169836733323 Eh    ::
         :: gradient norm              0.020180824869 Eh/a0 ::
         :: HOMO-LUMO gap              1.016167875415 eV    ::
         ::.................................................::
         :: SCC energy              -369.312296057463 Eh    ::
         :: -> isotropic ES            0.110084918449 Eh    ::
         :: -> anisotropic ES          0.007245577366 Eh    ::
         :: -> anisotropic XC          0.127568453540 Eh    ::
         :: -> dispersion             -0.353997761341 Eh    ::
         :: -> Gsolv                  -0.021171619862 Eh    ::
         ::    -> Gelec               -0.022757603214 Eh    ::
         ::    -> Gsasa                0.007834498615 Eh    ::
         ::    -> Ghb                 -0.007329274961 Eh    ::
         ::    -> Gshift               0.001080759698 Eh    ::
         :: repulsion energy           5.146539259000 Eh    ::
         :: add. restraining           0.000000000000 Eh    ::
         :: total charge              -0.000000000017 e     ::
         :::::::::::::::::::::::::::::::::::::::::::::::::::::

           -------------------------------------------------
          |                Property Printout                |
           -------------------------------------------------

    * Orbital Energies and Occupations

         #    Occupation            Energy/Eh            Energy/eV
      -------------------------------------------------------------
         1        2.0000           -1.0717531             -29.1639
       ...           ...                  ...                  ...
       323        2.0000           -0.3884619             -10.5706
       324        2.0000           -0.3880043             -10.5581
       325        2.0000           -0.3851936             -10.4817
       326        2.0000           -0.3838285             -10.4445
       327        2.0000           -0.3822220             -10.4008
       328        2.0000           -0.3803835             -10.3508
       329        2.0000           -0.3785410             -10.3006
       330        2.0000           -0.3766222             -10.2484
       331        2.0000           -0.3652878              -9.9400
       332        2.0000           -0.3632011              -9.8832
       333        2.0000           -0.3613225              -9.8321
       334        2.0000           -0.3584003              -9.7526
       335        2.0000           -0.3441592              -9.3650 (HOMO)
       336                         -0.3068157              -8.3489 (LUMO)
       337                         -0.3012609              -8.1977
       338                         -0.2915071              -7.9323
       339                         -0.2825047              -7.6873
       340                         -0.2768068              -7.5323
       341                         -0.2686859              -7.3113
       342                         -0.2672698              -7.2728
       343                         -0.2658594              -7.2344
       344                         -0.2618293              -7.1247
       345                         -0.2535776              -6.9002
       346                         -0.2493812              -6.7860
       ...                                ...                  ...
       724                          0.7404893              20.1497
      -------------------------------------------------------------
                  HL-Gap            0.0373435 Eh            1.0162 eV
             Fermi-level           -0.3254888 Eh           -8.8570 eV

     #   Z          covCN         q      C6AA      α(0)
     1   6 C        2.926    -0.039    28.973     8.827
     2  16 S        2.324    -0.024   142.043    20.059
     3   6 C        3.012     0.003    27.928     8.669
     4   6 C        3.159    -0.013    28.007     8.652
     5   6 C        3.171    -0.005    27.760     8.607
     6   6 C        2.908    -0.088    30.199     9.011
     7   6 C        2.864     0.128    25.199     8.228
     8   8 O        1.705    -0.279    18.629     5.827
     9   6 C        3.647     0.019    20.575     6.517
    10   6 C        2.863     0.128    25.190     8.227
    11   8 O        1.705    -0.273    18.523     5.811
    12   6 C        3.646     0.021    20.545     6.514
    13   6 C        2.908    -0.084    30.115     8.998
    14   6 C        3.001     0.014    27.688     8.632
    15  16 S        2.455    -0.039   142.672    20.103
    16   6 C        3.017    -0.000    28.013     8.682
    17   6 C        3.151    -0.009    27.966     8.650
    18   6 C        3.156    -0.013    28.039     8.658
    19   6 C        2.909    -0.084    30.104     8.997
    20   6 C        2.864     0.126    25.236     8.234
    21   8 O        1.706    -0.277    18.602     5.823
    22   6 C        3.647     0.017    20.616     6.524
    23   6 C        2.863     0.128    25.187     8.226
    24   8 O        1.705    -0.275    18.570     5.818
    25   6 C        3.646     0.028    20.439     6.497
    26   6 C        2.909    -0.085    30.131     9.001
    27   6 C        3.036     0.030    27.293     8.569
    28   6 C        3.070    -0.068    29.624     8.925
    29   6 C        3.139    -0.004    27.887     8.643
    30   6 C        3.015    -0.014    28.334     8.732
    31   6 C        2.995     0.020    27.548     8.610
    32   6 C        3.123    -0.068    29.488     8.893
    33   6 C        3.102     0.071    26.294     8.403
    34  17 Cl       0.942    -0.212   105.847    15.740
    35   6 C        3.008     0.013    27.702     8.634
    36   6 C        3.823    -0.059    21.608     6.615
    37   6 C        3.754    -0.112    22.700     6.794
    38  16 S        2.399    -0.015   141.668    20.033
    39   6 C        3.006     0.025    27.441     8.593
    40   6 C        3.135    -0.007    27.968     8.656
    41   6 C        3.016    -0.007    28.180     8.708
    42   6 C        2.992     0.015    27.670     8.629
    43   6 C        3.110    -0.053    29.161     8.847
    44   6 C        3.115    -0.063    29.392     8.881
    45   6 C        2.987     0.029    27.339     8.577
    46   6 C        3.826    -0.064    21.705     6.629
    47   6 C        3.754    -0.112    22.707     6.795
    48  16 S        2.417    -0.051   143.177    20.139
    49   6 C        3.006     0.023    27.483     8.600
    50  16 S        2.426    -0.083   144.505    20.232
    51   6 C        3.068    -0.054    29.264     8.870
    52   6 C        3.021     0.028    27.363     8.581
    53  16 S        2.298    -0.083   144.502    20.232
    54   6 C        3.017     0.029    27.328     8.575
    55   6 C        3.067    -0.056    29.322     8.879
    56   6 C        3.135    -0.003    27.878     8.643
    57   6 C        3.017    -0.007    28.180     8.708
    58   6 C        2.997     0.020    27.555     8.611
    59   6 C        3.123    -0.065    29.423     8.883
    60   6 C        3.102     0.073    26.246     8.395
    61  17 Cl       0.943    -0.213   105.855    15.740
    62   6 C        3.007     0.014    27.674     8.629
    63   6 C        3.825    -0.060    21.631     6.618
    64   6 C        3.754    -0.113    22.713     6.796
    65  16 S        2.409    -0.005   141.272    20.005
    66   6 C        3.007     0.024    27.444     8.593
    67   6 C        3.138    -0.003    27.872     8.640
    68   6 C        3.018    -0.005    28.136     8.701
    69   6 C        2.993     0.016    27.644     8.625
    70   6 C        3.110    -0.054    29.185     8.851
    71   6 C        3.115    -0.063    29.394     8.881
    72   6 C        2.987     0.029    27.356     8.580
    73   6 C        3.826    -0.063    21.686     6.627
    74   6 C        3.753    -0.112    22.695     6.793
    75  16 S        2.387    -0.051   143.181    20.139
    76   6 C        3.008     0.024    27.445     8.594
    77  16 S        2.306    -0.070   143.969    20.195
    78   6 C        3.069    -0.056    29.317     8.878
    79   6 C        3.020     0.030    27.304     8.571
    80  16 S        2.341    -0.059   143.521    20.163
    81   6 C        3.016     0.031    27.286     8.568
    82   6 C        3.072    -0.058    29.358     8.884
    83   6 C        3.139    -0.002    27.832     8.634
    84   6 C        3.012    -0.008    28.203     8.711
    85   6 C        2.994     0.020    27.557     8.611
    86   6 C        3.124    -0.066    29.433     8.884
    87   6 C        3.104     0.074    26.214     8.389
    88  17 Cl       0.944    -0.211   105.799    15.736
    89   6 C        3.008     0.013    27.703     8.634
    90   6 C        3.823    -0.060    21.628     6.618
    91   6 C        3.754    -0.110    22.659     6.788
    92  16 S        2.377    -0.012   141.533    20.023
    93   6 C        3.006     0.024    27.444     8.593
    94   6 C        3.138    -0.003    27.864     8.639
    95   6 C        3.013    -0.005    28.129     8.700
    96   6 C        2.991     0.016    27.651     8.626
    97   6 C        3.111    -0.053    29.145     8.844
    98   6 C        3.117    -0.061    29.340     8.872
    99   6 C        2.986     0.029    27.353     8.579
   100   6 C        3.826    -0.062    21.679     6.625
   101   6 C        3.753    -0.110    22.668     6.789
   102  16 S        2.362    -0.055   143.325    20.149
   103   6 C        3.007     0.022    27.505     8.603
   104  16 S        2.314    -0.060   143.559    20.166
   105   6 C        3.071    -0.053    29.235     8.866
   106   6 C        3.019     0.029    27.331     8.576
   107  16 S        2.278    -0.085   144.595    20.239
   108   6 C        3.017     0.028    27.362     8.581
   109   6 C        3.068    -0.056    29.306     8.877
   110   6 C        3.137    -0.005    27.911     8.647
   111   6 C        3.012    -0.008    28.209     8.712
   112   6 C        2.996     0.020    27.553     8.610
   113   6 C        3.123    -0.066    29.443     8.886
   114   6 C        3.101     0.073    26.247     8.395
   115  17 Cl       0.943    -0.214   105.890    15.743
   116   6 C        3.008     0.013    27.708     8.635
   117   6 C        3.824    -0.059    21.621     6.617
   118   6 C        3.754    -0.110    22.658     6.788
   119  16 S        2.405    -0.008   141.375    20.012
   120   6 C        3.007     0.022    27.506     8.603
   121   6 C        3.145    -0.004    27.865     8.637
   122   6 C        3.012    -0.006    28.146     8.703
   123   6 C        2.992     0.015    27.662     8.628
   124   6 C        3.112    -0.053    29.168     8.848
   125   6 C        3.116    -0.062    29.368     8.877
   126   6 C        2.986     0.026    27.409     8.588
   127   6 C        3.825    -0.062    21.673     6.624
   128   6 C        3.753    -0.112    22.697     6.793
   129  16 S        2.360    -0.054   143.291    20.147
   130   6 C        3.008     0.022    27.508     8.603
   131  16 S        2.278    -0.074   144.115    20.205
   132   6 C        3.075    -0.051    29.187     8.858
   133   6 C        2.935    -0.014    28.351     8.732
   134  16 S        2.290    -0.058   143.453    20.158
   135   1 H        0.926     0.066     2.125     2.279
   136   1 H        0.926     0.056     2.244     2.342
   137   1 H        0.925     0.084     1.934     2.175
   138   1 H        0.924     0.056     2.242     2.341
   139   1 H        0.924     0.056     2.249     2.345
   140   1 H        0.925     0.085     1.931     2.173
   141   1 H        0.924     0.058     2.225     2.333
   142   1 H        0.924     0.056     2.242     2.342
   143   1 H        0.926     0.063     2.166     2.301
   144   1 H        0.926     0.067     2.117     2.275
   145   1 H        0.924     0.059     2.211     2.325
   146   1 H        0.924     0.059     2.214     2.327
   147   1 H        0.925     0.086     1.916     2.164
   148   1 H        0.925     0.084     1.941     2.179
   149   1 H        0.924     0.047     2.363     2.404
   150   1 H        0.924     0.056     2.243     2.342
   151   1 H        0.926     0.049     2.327     2.385
   152   1 H        0.926     0.044     2.396     2.421
   153   1 H        0.926     0.058     2.217     2.328
   154   1 H        0.924     0.057     2.231     2.336
   155   1 H        0.924     0.064     2.155     2.296
   156   1 H        0.925     0.058     2.228     2.334
   157   1 H        0.925     0.043     2.406     2.426
   158   1 H        0.925     0.051     2.304     2.374
   159   1 H        0.926     0.039     2.459     2.452
   160   1 H        0.926     0.047     2.352     2.398
   161   1 H        0.924     0.060     2.203     2.321
   162   1 H        0.924     0.057     2.239     2.340
   163   1 H        0.925     0.046     2.371     2.408
   164   1 H        0.925     0.053     2.283     2.363
   165   1 H        0.925     0.043     2.406     2.425
   166   1 H        0.926     0.057     2.228     2.334
   167   1 H        0.926     0.053     2.279     2.361
   168   1 H        0.926     0.059     2.206     2.322
   169   1 H        0.924     0.058     2.222     2.331
   170   1 H        0.924     0.067     2.114     2.274
   171   1 H        0.925     0.053     2.284     2.364
   172   1 H        0.925     0.057     2.239     2.340
   173   1 H        0.925     0.043     2.409     2.427
   174   1 H        0.926     0.041     2.435     2.440
   175   1 H        0.926     0.046     2.372     2.409
   176   1 H        0.924     0.055     2.263     2.352
   177   1 H        0.924     0.057     2.234     2.338
   178   1 H        0.925     0.047     2.362     2.403
   179   1 H        0.925     0.051     2.304     2.374
   180   1 H        0.925     0.044     2.393     2.419
   181   1 H        0.926     0.059     2.212     2.326
   182   1 H        0.926     0.061     2.190     2.314
   183   1 H        0.926     0.063     2.166     2.301
   184   1 H        0.924     0.067     2.120     2.277
   185   1 H        0.924     0.060     2.193     2.316
   186   1 H        0.925     0.057     2.238     2.340
   187   1 H        0.925     0.040     2.449     2.447
   188   1 H        0.925     0.049     2.336     2.390
   189   1 H        0.926     0.047     2.362     2.403
   190   1 H        0.926     0.048     2.351     2.398
   191   1 H        0.924     0.057     2.233     2.337
   192   1 H        0.924     0.055     2.259     2.350
   193   1 H        0.925     0.045     2.379     2.412
   194   1 H        0.925     0.044     2.401     2.423
   195   1 H        0.925     0.052     2.300     2.372
   196   1 H        0.926     0.062     2.175     2.306
   197   1 H        0.926     0.050     2.324     2.384
   198   1 H        0.926     0.060     2.195     2.317
   199   1 H        0.924     0.067     2.124     2.279
   200   1 H        0.924     0.058     2.223     2.331
   201   1 H        0.925     0.039     2.458     2.452
   202   1 H        0.925     0.056     2.247     2.344
   203   1 H        0.925     0.050     2.318     2.381
   204   1 H        0.926     0.043     2.403     2.424
   205   1 H        0.926     0.046     2.368     2.407
   206   1 H        0.924     0.057     2.239     2.340
   207   1 H        0.924     0.054     2.272     2.357
   208   1 H        0.925     0.050     2.318     2.381
   209   1 H        0.925     0.044     2.399     2.422
   210   1 H        0.925     0.047     2.352     2.398
   211   1 H        0.926     0.063     2.160     2.298
   212   1 H        0.926     0.072     2.058     2.243

 Mol. C6AA /au·bohr⁶  :     900287.808343
 Mol. C8AA /au·bohr⁸  :   27647729.233509
 Mol. α(0) /au        :       1528.732721


Wiberg/Mayer (AO) data.
largest (>0.10) Wiberg bond orders for each atom

 ---------------------------------------------------------------------------
     #   Z sym  total        # sym  WBO       # sym  WBO       # sym  WBO
 ---------------------------------------------------------------------------
     1   6 C    3.873 --     5 C    1.453     2 S    1.216   135 H    0.966
                             3 C    0.104
     2  16 S    2.651 --     1 C    1.216     3 C    1.124
     3   6 C    3.936 --     4 C    1.332    14 C    1.234     2 S    1.124
                             1 C    0.104
     4   6 C    3.961 --     3 C    1.332    13 C    1.249     5 C    1.175
     5   6 C    3.986 --     1 C    1.453     6 C    1.206     4 C    1.175
     6   6 C    3.965 --     7 C    1.540     5 C    1.206   136 H    0.961
     7   6 C    3.933 --     6 C    1.540    10 C    1.139     8 O    1.072
     8   8 O    2.230 --     7 C    1.072     9 C    0.973
     9   6 C    3.927 --   137 H    0.976   139 H    0.975   138 H    0.975
                             8 O    0.973
    10   6 C    3.910 --    13 C    1.509     7 C    1.139    11 O    1.080
    11   8 O    2.231 --    10 C    1.080    12 C    0.971
    12   6 C    3.926 --   140 H    0.976   142 H    0.974   141 H    0.974
                            11 O    0.971
    13   6 C    3.975 --    10 C    1.509     4 C    1.249   143 H    0.944
    14   6 C    3.919 --    18 C    1.309     3 C    1.234    15 S    1.138
    15  16 S    2.629 --    14 C    1.138    16 C    1.124
    16   6 C    3.897 --    17 C    1.323    27 C    1.201    15 S    1.124
    17   6 C    3.972 --    16 C    1.323    26 C    1.244    18 C    1.199
    18   6 C    3.972 --    14 C    1.309    19 C    1.250    17 C    1.199
    19   6 C    3.972 --    20 C    1.507    18 C    1.250   144 H    0.946
    20   6 C    3.914 --    19 C    1.507    23 C    1.153    21 O    1.075
    21   8 O    2.228 --    20 C    1.075    22 C    0.971
    22   6 C    3.925 --   147 H    0.976   146 H    0.974   145 H    0.974
                            21 O    0.971
    23   6 C    3.923 --    26 C    1.509    20 C    1.153    24 O    1.075
    24   8 O    2.228 --    23 C    1.075    25 C    0.973
    25   6 C    3.929 --   148 H    0.977   149 H    0.975   150 H    0.974
                            24 O    0.973
    26   6 C    3.970 --    23 C    1.509    17 C    1.244   151 H    0.954
    27   6 C    3.931 --    28 C    1.502    16 C    1.201    50 S    1.076
    28   6 C    3.935 --    27 C    1.502    29 C    1.245   152 H    0.949
    29   6 C    3.971 --    30 C    1.258    28 C    1.245    49 C    1.245
    30   6 C    3.944 --    39 C    1.369    29 C    1.258    31 C    1.086
    31   6 C    3.950 --    32 C    1.551    38 S    1.127    30 C    1.086
    32   6 C    3.962 --    31 C    1.551    33 C    1.257   153 H    0.960
    33   6 C    3.887 --    35 C    1.538    32 C    1.257    34 Cl   0.944
    34  17 Cl   1.077 --    33 C    0.944
    35   6 C    3.937 --    33 C    1.538    38 S    1.162    36 C    1.027
    36   6 C    3.991 --    35 C    1.027    37 C    0.994   155 H    0.969
                           154 H    0.964
    37   6 C    3.991 --    36 C    0.994   157 H    0.988   158 H    0.987
                           156 H    0.983
    38  16 S    2.599 --    35 C    1.162    31 C    1.127
    39   6 C    3.945 --    30 C    1.369    40 C    1.253    53 S    1.099
    40   6 C    3.965 --    41 C    1.259    39 C    1.253    51 C    1.235
    41   6 C    3.944 --    49 C    1.376    40 C    1.259    42 C    1.089
    42   6 C    3.946 --    43 C    1.547    48 S    1.124    41 C    1.089
                            45 C    0.102
    43   6 C    3.977 --    42 C    1.547    44 C    1.284   159 H    0.962
    44   6 C    3.981 --    45 C    1.584    43 C    1.284   160 H    0.963
    45   6 C    3.934 --    44 C    1.584    48 S    1.159    46 C    1.027
                            42 C    0.102
    46   6 C    3.993 --    45 C    1.027    47 C    0.999   162 H    0.969
                           161 H    0.964
    47   6 C    3.991 --    46 C    0.999   165 H    0.988   163 H    0.986
                           164 H    0.984
    48  16 S    2.591 --    45 C    1.159    42 C    1.124
    49   6 C    3.939 --    41 C    1.376    29 C    1.245    50 S    1.096
    50  16 S    2.493 --    49 C    1.096    27 C    1.076
    51   6 C    3.952 --    52 C    1.541    40 C    1.235   166 H    0.953
    52   6 C    3.926 --    51 C    1.541    54 C    1.159    53 S    1.076
    53  16 S    2.491 --    39 C    1.099    52 C    1.076
    54   6 C    3.933 --    55 C    1.542    52 C    1.159    77 S    1.082
    55   6 C    3.950 --    54 C    1.542    56 C    1.231   167 H    0.955
    56   6 C    3.971 --    57 C    1.269    76 C    1.250    55 C    1.231
    57   6 C    3.944 --    66 C    1.368    56 C    1.269    58 C    1.082
    58   6 C    3.951 --    59 C    1.555    65 S    1.128    57 C    1.082
    59   6 C    3.964 --    58 C    1.555    60 C    1.255   168 H    0.960
    60   6 C    3.887 --    62 C    1.540    59 C    1.255    61 Cl   0.945
    61  17 Cl   1.078 --    60 C    0.945
    62   6 C    3.938 --    60 C    1.540    65 S    1.162    63 C    1.027
    63   6 C    3.990 --    62 C    1.027    64 C    0.996   169 H    0.967
                           170 H    0.963
    64   6 C    3.990 --    63 C    0.996   173 H    0.988   171 H    0.986
                           172 H    0.984
    65  16 S    2.602 --    62 C    1.162    58 C    1.128
    66   6 C    3.946 --    57 C    1.368    67 C    1.250    80 S    1.105
    67   6 C    3.971 --    68 C    1.265    66 C    1.250    78 C    1.234
    68   6 C    3.945 --    76 C    1.374    67 C    1.265    69 C    1.084
    69   6 C    3.946 --    70 C    1.551    75 S    1.125    68 C    1.084
                            72 C    0.103
    70   6 C    3.969 --    69 C    1.551    71 C    1.283   174 H    0.962
    71   6 C    3.981 --    72 C    1.585    70 C    1.283   175 H    0.963
    72   6 C    3.935 --    71 C    1.585    75 S    1.161    73 C    1.026
                            69 C    0.103
    73   6 C    3.994 --    72 C    1.026    74 C    0.998   176 H    0.969
                           177 H    0.965
    74   6 C    3.992 --    73 C    0.998   180 H    0.988   178 H    0.987
                           179 H    0.985
    75  16 S    2.587 --    72 C    1.161    69 C    1.125
    76   6 C    3.946 --    68 C    1.374    56 C    1.250    77 S    1.098
    77  16 S    2.499 --    76 C    1.098    54 C    1.082
    78   6 C    3.953 --    79 C    1.536    67 C    1.234   181 H    0.955
    79   6 C    3.933 --    78 C    1.536    81 C    1.152    80 S    1.094
    80  16 S    2.517 --    66 C    1.105    79 C    1.094
    81   6 C    3.932 --    82 C    1.535    79 C    1.152   104 S    1.094
    82   6 C    3.954 --    81 C    1.535    83 C    1.237   182 H    0.953
    83   6 C    3.972 --    84 C    1.263   103 C    1.254    82 C    1.237
    84   6 C    3.942 --    93 C    1.361    83 C    1.263    85 C    1.097
    85   6 C    3.950 --    86 C    1.543    92 S    1.124    84 C    1.097
    86   6 C    3.958 --    85 C    1.543    87 C    1.262   183 H    0.956
    87   6 C    3.888 --    89 C    1.534    86 C    1.262    88 Cl   0.946
    88  17 Cl   1.080 --    87 C    0.946
    89   6 C    3.935 --    87 C    1.534    92 S    1.164    90 C    1.027
    90   6 C    3.991 --    89 C    1.027    91 C    0.994   184 H    0.970
                           185 H    0.963
    91   6 C    3.991 --    90 C    0.994   187 H    0.988   188 H    0.987
                           186 H    0.983
    92  16 S    2.597 --    89 C    1.164    85 C    1.124
    93   6 C    3.945 --    84 C    1.361    94 C    1.254   107 S    1.099
    94   6 C    3.972 --    95 C    1.268    93 C    1.254   105 C    1.230
    95   6 C    3.943 --   103 C    1.358    94 C    1.268    96 C    1.099
    96   6 C    3.946 --    97 C    1.540   102 S    1.121    95 C    1.099
                            99 C    0.101
    97   6 C    3.962 --    96 C    1.540    98 C    1.288   189 H    0.958
    98   6 C    3.981 --    99 C    1.580    97 C    1.288   190 H    0.963
    99   6 C    3.933 --    98 C    1.580   102 S    1.162   100 C    1.027
                            96 C    0.101
   100   6 C    3.993 --    99 C    1.027   101 C    0.998   192 H    0.969
                           191 H    0.965
   101   6 C    3.991 --   100 C    0.998   194 H    0.988   193 H    0.987
                           195 H    0.985
   102  16 S    2.582 --    99 C    1.162    96 C    1.121
   103   6 C    3.945 --    95 C    1.358    83 C    1.254   104 S    1.103
   104  16 S    2.516 --   103 C    1.103    81 C    1.094
   105   6 C    3.956 --   106 C    1.548    94 C    1.230   196 H    0.951
   106   6 C    3.929 --   105 C    1.548   108 C    1.157   107 S    1.077
   107  16 S    2.494 --    93 C    1.099   106 C    1.077
   108   6 C    3.940 --   109 C    1.551   106 C    1.157   131 S    1.081
   109   6 C    3.955 --   108 C    1.551   110 C    1.225   197 H    0.955
   110   6 C    3.982 --   111 C    1.271   130 C    1.258   109 C    1.225
   111   6 C    3.942 --   120 C    1.359   110 C    1.271   112 C    1.089
   112   6 C    3.950 --   113 C    1.547   119 S    1.129   111 C    1.089
   113   6 C    3.972 --   112 C    1.547   114 C    1.260   198 H    0.960
   114   6 C    3.887 --   116 C    1.536   113 C    1.260   115 Cl   0.944
   115  17 Cl   1.077 --   114 C    0.944
   116   6 C    3.936 --   114 C    1.536   119 S    1.163   117 C    1.027
   117   6 C    3.991 --   116 C    1.027   118 C    0.994   199 H    0.968
                           200 H    0.965
   118   6 C    3.991 --   117 C    0.994   201 H    0.988   203 H    0.987
                           202 H    0.984
   119  16 S    2.603 --   116 C    1.163   112 C    1.129
   120   6 C    3.954 --   111 C    1.359   121 C    1.267   134 S    1.108
   121   6 C    3.972 --   122 C    1.283   120 C    1.267   132 C    1.198
   122   6 C    3.972 --   130 C    1.359   121 C    1.283   123 C    1.091
   123   6 C    3.947 --   124 C    1.547   129 S    1.123   122 C    1.091
                           126 C    0.102
   124   6 C    3.965 --   123 C    1.547   125 C    1.283   204 H    0.959
   125   6 C    3.982 --   126 C    1.586   124 C    1.283   205 H    0.963
   126   6 C    3.936 --   125 C    1.586   129 S    1.158   127 C    1.027
                           123 C    0.102
   127   6 C    3.994 --   126 C    1.027   128 C    1.002   207 H    0.970
                           206 H    0.961
   128   6 C    3.992 --   127 C    1.002   209 H    0.988   210 H    0.985
                           208 H    0.985
   129  16 S    2.580 --   126 C    1.158   123 C    1.123
   130   6 C    3.945 --   122 C    1.359   110 C    1.258   131 S    1.097
   131  16 S    2.497 --   130 C    1.097   108 C    1.081
   132   6 C    3.979 --   133 C    1.679   121 C    1.198   211 H    0.955
   133   6 C    3.925 --   132 C    1.679   134 S    1.147   212 H    0.965
   134  16 S    2.546 --   133 C    1.147   120 C    1.108
   135   1 H    0.994 --     1 C    0.966
   136   1 H    0.996 --     6 C    0.961
   137   1 H    0.992 --     9 C    0.976
   138   1 H    0.996 --     9 C    0.975
   139   1 H    0.996 --     9 C    0.975
   140   1 H    0.992 --    12 C    0.976
   141   1 H    0.995 --    12 C    0.974
   142   1 H    0.996 --    12 C    0.974
   143   1 H    0.995 --    13 C    0.944
   144   1 H    0.994 --    19 C    0.946
   145   1 H    0.996 --    22 C    0.974
   146   1 H    0.996 --    22 C    0.974
   147   1 H    0.992 --    22 C    0.976
   148   1 H    0.993 --    25 C    0.977
   149   1 H    0.997 --    25 C    0.975
   150   1 H    0.996 --    25 C    0.974
   151   1 H    0.996 --    26 C    0.954
   152   1 H    0.997 --    28 C    0.949
   153   1 H    0.996 --    32 C    0.960
   154   1 H    0.996 --    36 C    0.964
   155   1 H    0.995 --    36 C    0.969
   156   1 H    0.996 --    37 C    0.983
   157   1 H    0.998 --    37 C    0.988
   158   1 H    0.997 --    37 C    0.987
   159   1 H    0.998 --    43 C    0.962
   160   1 H    0.997 --    44 C    0.963
   161   1 H    0.995 --    46 C    0.964
   162   1 H    0.996 --    46 C    0.969
   163   1 H    0.998 --    47 C    0.986
   164   1 H    0.996 --    47 C    0.984
   165   1 H    0.998 --    47 C    0.988
   166   1 H    0.996 --    51 C    0.953
   167   1 H    0.996 --    55 C    0.955
   168   1 H    0.996 --    59 C    0.960
   169   1 H    0.996 --    63 C    0.967
   170   1 H    0.994 --    63 C    0.963
   171   1 H    0.997 --    64 C    0.986
   172   1 H    0.996 --    64 C    0.984
   173   1 H    0.998 --    64 C    0.988
   174   1 H    0.998 --    70 C    0.962
   175   1 H    0.997 --    71 C    0.963
   176   1 H    0.996 --    73 C    0.969
   177   1 H    0.996 --    73 C    0.965
   178   1 H    0.998 --    74 C    0.987
   179   1 H    0.997 --    74 C    0.985
   180   1 H    0.998 --    74 C    0.988
   181   1 H    0.996 --    78 C    0.955
   182   1 H    0.996 --    82 C    0.953
   183   1 H    0.996 --    86 C    0.956
   184   1 H    0.995 --    90 C    0.970
   185   1 H    0.995 --    90 C    0.963
   186   1 H    0.996 --    91 C    0.983
   187   1 H    0.998 --    91 C    0.988
   188   1 H    0.998 --    91 C    0.987
   189   1 H    0.998 --    97 C    0.958
   190   1 H    0.997 --    98 C    0.963
   191   1 H    0.995 --   100 C    0.965
   192   1 H    0.997 --   100 C    0.969
   193   1 H    0.998 --   101 C    0.987
   194   1 H    0.998 --   101 C    0.988
   195   1 H    0.996 --   101 C    0.985
   196   1 H    0.995 --   105 C    0.951
   197   1 H    0.997 --   109 C    0.955
   198   1 H    0.996 --   113 C    0.960
   199   1 H    0.995 --   117 C    0.968
   200   1 H    0.996 --   117 C    0.965
   201   1 H    0.998 --   118 C    0.988
   202   1 H    0.996 --   118 C    0.984
   203   1 H    0.997 --   118 C    0.987
   204   1 H    0.998 --   124 C    0.959
   205   1 H    0.997 --   125 C    0.963
   206   1 H    0.995 --   127 C    0.961
   207   1 H    0.997 --   127 C    0.970
   208   1 H    0.997 --   128 C    0.985
   209   1 H    0.998 --   128 C    0.988
   210   1 H    0.998 --   128 C    0.985
   211   1 H    0.995 --   132 C    0.955
   212   1 H    0.994 --   133 C    0.965
 ---------------------------------------------------------------------------

Topologies differ in bond orders
Writing corrected topology to xtbtopo.mol

molecular dipole:
                 x           y           z       tot (Debye)
 q only:        0.429       0.451       1.315
   full:        0.631       0.051       1.767       4.770
molecular quadrupole (traceless):
                xx          xy          yy          xz          yz          zz
 q only:       22.898    -101.152     -37.504      -6.091     103.187      14.606
  q+dip:      -25.418     -74.141      -0.442     -17.864      69.803      25.860
   full:      -24.138     -79.010      -7.166     -16.403      69.296      31.303


           -------------------------------------------------
          | TOTAL ENERGY             -364.168250749971 Eh   |
          | GRADIENT NORM               0.020180824869 Eh/α |
          | HOMO-LUMO GAP               1.016167875415 eV   |
           -------------------------------------------------

------------------------------------------------------------------------
 * finished run on 2022/03/04 at 05:02:55.257     
------------------------------------------------------------------------
 total:
 * wall-time:     0 d,  0 h,  0 min,  1.083 sec
 *  cpu-time:     0 d,  0 h,  0 min,  8.546 sec
 * ratio c/w:     7.891 speedup
 SCF:
 * wall-time:     0 d,  0 h,  0 min,  0.966 sec
 *  cpu-time:     0 d,  0 h,  0 min,  7.712 sec
 * ratio c/w:     7.979 speedup

