      -----------------------------------------------------------      
     |                   =====================                   |     
     |                           x T B                           |     
     |                   =====================                   |     
     |                         S. Grimme                         |     
     |          Mulliken Center for Theoretical Chemistry        |     
     |                    University of Bonn                     |     
      -----------------------------------------------------------      

   * xtb version 6.4.1 (unknown) compiled by 'oda6@login1.crc.pitt.edu' on 2021-06-25

   xtb is free software: you can redistribute it and/or modify it under
   the terms of the GNU Lesser General Public License as published by
   the Free Software Foundation, either version 3 of the License, or
   (at your option) any later version.
   
   xtb is distributed in the hope that it will be useful,
   but WITHOUT ANY WARRANTY; without even the implied warranty of
   MERCHANTABILITY or FITNESS FOR A PARTICULAR PURPOSE.  See the
   GNU Lesser General Public License for more details.
   
   Cite this work as:
   * C. Bannwarth, E. Caldeweyher, S. Ehlert, A. Hansen, P. Pracht,
     J. Seibert, S. Spicher, S. Grimme, WIREs Comput. Mol. Sci., 2020, 11,
     e01493. DOI: 10.1002/wcms.1493
   
   for GFN2-xTB:
   * C. Bannwarth, S. Ehlert and S. Grimme., J. Chem. Theory Comput., 2019,
     15, 1652-1671. DOI: 10.1021/acs.jctc.8b01176
   for GFN1-xTB:
   * S. Grimme, C. Bannwarth, P. Shushkov, J. Chem. Theory Comput., 2017,
     13, 1989-2009. DOI: 10.1021/acs.jctc.7b00118
   for GFN0-xTB:
   * P. Pracht, E. Caldeweyher, S. Ehlert, S. Grimme, ChemRxiv, 2019, preprint.
     DOI: 10.26434/chemrxiv.8326202.v1
   for GFN-FF:
   * S. Spicher and S. Grimme, Angew. Chem. Int. Ed., 2020, 59, 15665-15673.
     DOI: 10.1002/anie.202004239
   
   for DFT-D4:
   * E. Caldeweyher, C. Bannwarth and S. Grimme, J. Chem. Phys., 2017,
     147, 034112. DOI: 10.1063/1.4993215
   * E. Caldeweyher, S. Ehlert, A. Hansen, H. Neugebauer, S. Spicher,
     C. Bannwarth and S. Grimme, J. Chem. Phys., 2019, 150, 154122.
     DOI: 10.1063/1.5090222
   * E. Caldeweyher, J.-M. Mewes, S. Ehlert and S. Grimme, Phys. Chem. Chem. Phys.
     2020, 22, 8499-8512. DOI: 10.1039/D0CP00502A
   
   for sTDA-xTB:
   * S. Grimme and C. Bannwarth, J. Chem. Phys., 2016, 145, 054103.
     DOI: 10.1063/1.4959605
   
   in the mass-spec context:
   * V. Asgeirsson, C. Bauer and S. Grimme, Chem. Sci., 2017, 8, 4879.
     DOI: 10.1039/c7sc00601b
   * J. Koopman and S. Grimme, ACS Omega 2019, 4, 12, 15120-15133.
     DOI: 10.1021/acsomega.9b02011
   
   for metadynamics refer to:
   * S. Grimme, J. Chem. Theory Comput., 2019, 155, 2847-2862
     DOI: 10.1021/acs.jctc.9b00143
   
   for SPH calculations refer to:
   * S. Spicher and S. Grimme, J. Chem. Theory Comput., 2021, 17, 1701-1714
     DOI: 10.1021/acs.jctc.0c01306
   
   with help from (in alphabetical order)
   P. Atkinson, C. Bannwarth, F. Bohle, G. Brandenburg, E. Caldeweyher
   M. Checinski, S. Dohm, S. Ehlert, S. Ehrlich, I. Gerasimov, J. Koopman
   C. Lavigne, S. Lehtola, F. März, M. Müller, F. Musil, H. Neugebauer
   J. Pisarek, C. Plett, P. Pracht, J. Seibert, P. Shushkov, S. Spicher
   M. Stahn, M. Steiner, T. Strunk, J. Stückrath, T. Rose, and J. Unsleber
   
 * started run on 2022/03/02 at 11:08:32.192     

           -------------------------------------------------
          |                Calculation Setup                |
           -------------------------------------------------

          program call               : /ihome/ghutchison/oda6/xtb/xtb-641/bin/xtb ../../GFN2_output/1113_61_101111.mol --sp --alpb water
          hostname                   : smp-n90
          coordinate file            : ../../GFN2_output/1113_61_101111.mol
          omp threads                :                     8
          number of atoms            :                   229
          number of electrons        :                   812
          charge                     :                     0
          spin                       :                   0.0
          first test random number   :      0.77981205297821

   ID    Z sym.   atoms
    1    6 C      1-5, 7-10, 12, 14-17, 19-23, 26, 28, 29, 31, 33-39, 41-45,
                  47-50, 52, 54-57, 59-63, 66, 68, 69, 71-75, 77-80, 82,
                  84-87, 89-93, 96, 98, 99, 101-105, 107-110, 112, 114-117,
                  119-123, 126, 128, 129, 131-135, 137-140, 142, 144-147,
                  149-153, 156, 158, 159
    2   16 S      6, 18, 27, 30, 32, 46, 58, 67, 70, 76, 88, 97, 100, 106,
                  118, 127, 130, 136, 148, 157, 160
    3   17 Cl     11, 13, 24, 25, 51, 53, 64, 65, 81, 83, 94, 95, 111, 113,
                  124, 125, 141, 143, 154, 155
    4    7 N      40
    5    1 H      161-229

           -------------------------------------------------
          |                 G F N 2 - x T B                 |
           -------------------------------------------------

        Reference                      10.1021/acs.jctc.8b01176
      * Hamiltonian:
        H0-scaling (s, p, d)           1.850000    2.230000    2.230000
        zeta-weighting                 0.500000
      * Dispersion:
        s8                             2.700000
        a1                             0.520000
        a2                             5.000000
        s9                             5.000000
      * Repulsion:
        kExp                           1.500000    1.000000
        rExp                           1.000000
      * Coulomb:
        alpha                          2.000000
        third order                    shell-resolved
        anisotropic                    true
        a3                             3.000000
        a5                             4.000000
        cn-shift                       1.200000
        cn-exp                         4.000000
        max-rad                        5.000000

      * Solvation model:               ALPB
        Solvent                        water
        Parameter file                 internal GFN2-xTB/ALPB
        Dielectric constant                8.0200E+01
        Reference state                gsolv [1 M gas/solution]
        Free energy shift                  1.0808E-03 Eh       6.7819E-01 kcal/mol
        Temperature                        2.9815E+02 K
        Density                            1.0000E+00 kg/L
        Solvent mass                       1.8000E+01 g/mol
        Interaction kernel             P16
        Born radius scaling (c1)           1.4744E+00
        Born radii integrator          GBOBC
        Born offset                        0.0000E+00 a0       0.0000E+00 AA
        H-bond correction              true
        Ion screening                  false
        Surface tension                    1.0000E-05 Eh       1.5569E+01 dyn/cm
        Grid points                               230 per atom

          ...................................................
          :                      SETUP                      :
          :.................................................:
          :  # basis functions                 955          :
          :  # atomic orbitals                 914          :
          :  # shells                          430          :
          :  # electrons                       812          :
          :  max. iterations                   250          :
          :  Hamiltonian                  GFN2-xTB          :
          :  restarted?                      false          :
          :  GBSA solvation                   true          :
          :  PC potential                    false          :
          :  electronic temp.          300.0000000     K    :
          :  accuracy                    1.0000000          :
          :  -> integral cutoff          0.2500000E+02      :
          :  -> integral neglect         0.1000000E-07      :
          :  -> SCF convergence          0.1000000E-05 Eh   :
          :  -> wf. convergence          0.1000000E-03 e    :
          :  Broyden damping             0.4000000          :
          ...................................................

 iter      E             dE          RMSdq      gap      omega  full diag
   1   -455.5730985 -0.455573E+03  0.425E+00    1.00       0.0  T
   2   -455.8111331 -0.238035E+00  0.237E+00    1.01       1.0  T
   3   -455.6822315  0.128902E+00  0.118E+00    1.08       1.0  T
   4   -455.8598509 -0.177619E+00  0.438E-01    1.01       1.0  T
   5   -455.8766347 -0.167838E-01  0.185E-01    0.97       1.0  T
   6   -455.8779897 -0.135506E-02  0.109E-01    0.96       1.0  T
   7   -455.8787984 -0.808692E-03  0.759E-02    0.96       1.0  T
   8   -455.8791060 -0.307540E-03  0.571E-02    0.94       1.0  T
   9   -455.8793249 -0.218947E-03  0.370E-02    0.93       1.0  T
  10   -455.8794861 -0.161145E-03  0.181E-02    0.91       1.0  T
  11   -455.8795049 -0.188391E-04  0.105E-02    0.91       1.0  T
  12   -455.8795134 -0.852946E-05  0.448E-03    0.91       1.5  T
  13   -455.8795145 -0.107271E-05  0.290E-03    0.91       2.3  T
  14   -455.8795150 -0.456796E-06  0.198E-03    0.91       3.3  T
  15   -455.8795152 -0.248769E-06  0.143E-03    0.90       4.6  T
  16   -455.8795154 -0.182074E-06  0.898E-04    0.90       7.4  T
  17   -455.8795155 -0.776860E-07  0.592E-04    0.90      11.2  T

   *** convergence criteria satisfied after 17 iterations ***

         #    Occupation            Energy/Eh            Energy/eV
      -------------------------------------------------------------
         1        2.0000           -1.0893835             -29.6436
       ...           ...                  ...                  ...
       400        2.0000           -0.3827469             -10.4151
       401        2.0000           -0.3790072             -10.3133
       402        2.0000           -0.3733064             -10.1582
       403        2.0000           -0.3707197             -10.0878
       404        2.0000           -0.3701372             -10.0719
       405        2.0000           -0.3612846              -9.8311
       406        2.0000           -0.3485691              -9.4850 (HOMO)
       407                         -0.3153292              -8.5805 (LUMO)
       408                         -0.3020701              -8.2197
       409                         -0.2924271              -7.9573
       410                         -0.2914491              -7.9307
       411                         -0.2872773              -7.8172
       ...                                ...                  ...
       914                          0.7517170              20.4553
      -------------------------------------------------------------
                  HL-Gap            0.0332399 Eh            0.9045 eV
             Fermi-level           -0.3319491 Eh           -9.0328 eV

 SCC (total)                   0 d,  0 h,  0 min,  1.472 sec
 SCC setup                      ...        0 min,  0.010 sec (  0.700%)
 Dispersion                     ...        0 min,  0.011 sec (  0.716%)
 classical contributions        ...        0 min,  0.000 sec (  0.028%)
 integral evaluation            ...        0 min,  0.071 sec (  4.853%)
 iterations                     ...        0 min,  1.218 sec ( 82.753%)
 molecular gradient             ...        0 min,  0.154 sec ( 10.450%)
 printout                       ...        0 min,  0.007 sec (  0.494%)

         :::::::::::::::::::::::::::::::::::::::::::::::::::::
         ::                     SUMMARY                     ::
         :::::::::::::::::::::::::::::::::::::::::::::::::::::
         :: total energy            -450.428977422596 Eh    ::
         :: total w/o Gsasa/hb      -450.427375855036 Eh    ::
         :: gradient norm              0.035724104647 Eh/a0 ::
         :: HOMO-LUMO gap              0.904502823887 eV    ::
         ::.................................................::
         :: SCC energy              -455.879515458761 Eh    ::
         :: -> isotropic ES            0.148549485884 Eh    ::
         :: -> anisotropic ES         -0.058551354490 Eh    ::
         :: -> anisotropic XC          0.125310895512 Eh    ::
         :: -> dispersion             -0.482169369704 Eh    ::
         :: -> Gsolv                  -0.063494402040 Eh    ::
         ::    -> Gelec               -0.061892834479 Eh    ::
         ::    -> Gsasa                0.006360159375 Eh    ::
         ::    -> Ghb                 -0.009042486634 Eh    ::
         ::    -> Gshift               0.001080759698 Eh    ::
         :: repulsion energy           5.439812588191 Eh    ::
         :: add. restraining           0.000000000000 Eh    ::
         :: total charge              -0.000000000000 e     ::
         :::::::::::::::::::::::::::::::::::::::::::::::::::::

           -------------------------------------------------
          |                Property Printout                |
           -------------------------------------------------

    * Orbital Energies and Occupations

         #    Occupation            Energy/Eh            Energy/eV
      -------------------------------------------------------------
         1        2.0000           -1.0893835             -29.6436
       ...           ...                  ...                  ...
       394        2.0000           -0.3945034             -10.7350
       395        2.0000           -0.3932352             -10.7005
       396        2.0000           -0.3929428             -10.6925
       397        2.0000           -0.3906362             -10.6298
       398        2.0000           -0.3892336             -10.5916
       399        2.0000           -0.3875850             -10.5467
       400        2.0000           -0.3827469             -10.4151
       401        2.0000           -0.3790072             -10.3133
       402        2.0000           -0.3733064             -10.1582
       403        2.0000           -0.3707197             -10.0878
       404        2.0000           -0.3701372             -10.0719
       405        2.0000           -0.3612846              -9.8311
       406        2.0000           -0.3485691              -9.4850 (HOMO)
       407                         -0.3153292              -8.5805 (LUMO)
       408                         -0.3020701              -8.2197
       409                         -0.2924271              -7.9573
       410                         -0.2914491              -7.9307
       411                         -0.2872773              -7.8172
       412                         -0.2797935              -7.6136
       413                         -0.2769701              -7.5367
       414                         -0.2727112              -7.4208
       415                         -0.2716361              -7.3916
       416                         -0.2683355              -7.3018
       417                         -0.2654897              -7.2243
       ...                                ...                  ...
       914                          0.7517170              20.4553
      -------------------------------------------------------------
                  HL-Gap            0.0332399 Eh            0.9045 eV
             Fermi-level           -0.3319491 Eh           -9.0328 eV

     #   Z          covCN         q      C6AA      α(0)
     1   6 C        2.936    -0.010    28.265     8.719
     2   6 C        3.074    -0.049    29.135     8.850
     3   6 C        3.148    -0.002    27.813     8.627
     4   6 C        3.010    -0.002    28.062     8.690
     5   6 C        3.012     0.002    27.960     8.674
     6  16 S        2.387     0.027   139.973    19.912
     7   6 C        3.008     0.016    27.627     8.622
     8   6 C        3.825    -0.064    21.701     6.629
     9   6 C        3.754    -0.117    22.805     6.809
    10   6 C        3.113     0.063    26.446     8.424
    11  17 Cl       0.949    -0.177   104.698    15.654
    12   6 C        3.104     0.068    26.353     8.412
    13  17 Cl       0.967    -0.173   104.597    15.647
    14   6 C        3.005     0.021    27.519     8.605
    15   6 C        3.140    -0.002    27.845     8.635
    16   6 C        3.012    -0.007    28.184     8.708
    17   6 C        3.014     0.006    27.869     8.660
    18  16 S        2.384     0.016   140.414    19.944
    19   6 C        3.009     0.014    27.680     8.630
    20   6 C        3.826    -0.053    21.508     6.599
    21   6 C        3.753    -0.111    22.674     6.790
    22   6 C        3.112     0.062    26.468     8.428
    23   6 C        3.103     0.066    26.398     8.419
    24  17 Cl       0.955    -0.180   104.789    15.661
    25  17 Cl       0.948    -0.180   104.816    15.663
    26   6 C        3.009     0.029    27.335     8.576
    27  16 S        2.263    -0.088   144.709    20.246
    28   6 C        3.067    -0.064    29.529     8.910
    29   6 C        3.020     0.037    27.156     8.548
    30  16 S        2.310    -0.065   143.737    20.178
    31   6 C        3.008     0.001    27.992     8.679
    32  16 S        2.411    -0.047   142.989    20.126
    33   6 C        2.964     0.011    27.767     8.643
    34   6 C        3.821    -0.063    21.693     6.628
    35   6 C        3.753    -0.114    22.740     6.800
    36   6 C        3.300     0.034    25.507     8.087
    37   6 C        3.265    -0.025    27.368     8.445
    38   6 C        3.069    -0.026    28.577     8.766
    39   6 C        3.029     0.013    27.705     8.634
    40   7 N        2.756    -0.092    23.031     7.128
    41   6 C        2.983     0.040    27.103     8.540
    42   6 C        3.077    -0.068    29.600     8.920
    43   6 C        3.143     0.001    27.748     8.619
    44   6 C        3.011    -0.003    28.092     8.694
    45   6 C        3.012     0.002    27.964     8.674
    46  16 S        2.389     0.041   139.402    19.872
    47   6 C        3.006     0.014    27.688     8.632
    48   6 C        3.824    -0.059    21.614     6.616
    49   6 C        3.753    -0.122    22.900     6.824
    50   6 C        3.116     0.058    26.543     8.439
    51  17 Cl       0.954    -0.178   104.741    15.657
    52   6 C        3.106     0.065    26.403     8.419
    53  17 Cl       0.965    -0.184   104.947    15.673
    54   6 C        3.008     0.030    27.319     8.574
    55   6 C        3.137    -0.002    27.856     8.638
    56   6 C        3.011     0.002    27.969     8.675
    57   6 C        3.006     0.004    27.914     8.667
    58  16 S        2.431     0.055   138.811    19.830
    59   6 C        3.008     0.017    27.607     8.619
    60   6 C        3.824    -0.066    21.748     6.636
    61   6 C        3.754    -0.118    22.817     6.811
    62   6 C        3.114     0.064    26.418     8.420
    63   6 C        3.100     0.068    26.354     8.413
    64  17 Cl       0.947    -0.184   104.937    15.672
    65  17 Cl       0.951    -0.185   104.964    15.674
    66   6 C        3.005     0.024    27.448     8.594
    67  16 S        2.323    -0.047   143.005    20.127
    68   6 C        3.070    -0.048    29.123     8.849
    69   6 C        3.023     0.028    27.354     8.579
    70  16 S        2.287    -0.068   143.889    20.189
    71   6 C        3.017     0.036    27.173     8.551
    72   6 C        3.064    -0.057    29.342     8.883
    73   6 C        3.136     0.002    27.756     8.623
    74   6 C        3.011    -0.000    28.021     8.683
    75   6 C        3.013     0.000    28.002     8.680
    76  16 S        2.378     0.045   139.227    19.859
    77   6 C        3.009     0.018    27.590     8.616
    78   6 C        3.823    -0.065    21.727     6.633
    79   6 C        3.754    -0.118    22.807     6.810
    80   6 C        3.112     0.063    26.448     8.425
    81  17 Cl       0.949    -0.178   104.733    15.657
    82   6 C        3.100     0.068    26.353     8.413
    83  17 Cl       0.964    -0.185   104.966    15.674
    84   6 C        3.006     0.027    27.385     8.584
    85   6 C        3.142    -0.001    27.797     8.627
    86   6 C        3.013    -0.001    28.027     8.684
    87   6 C        3.010     0.001    27.981     8.677
    88  16 S        2.408     0.053   138.920    19.837
    89   6 C        3.009     0.018    27.593     8.617
    90   6 C        3.824    -0.065    21.735     6.634
    91   6 C        3.754    -0.114    22.733     6.799
    92   6 C        3.109     0.063    26.445     8.425
    93   6 C        3.099     0.068    26.365     8.415
    94  17 Cl       0.946    -0.194   105.245    15.695
    95  17 Cl       0.949    -0.185   104.961    15.674
    96   6 C        3.007     0.026    27.407     8.588
    97  16 S        2.311    -0.052   143.199    20.141
    98   6 C        3.071    -0.051    29.184     8.858
    99   6 C        3.015     0.029    27.335     8.576
   100  16 S        2.310    -0.052   143.229    20.143
   101   6 C        3.015     0.031    27.283     8.568
   102   6 C        3.069    -0.052    29.223     8.864
   103   6 C        3.141     0.001    27.763     8.622
   104   6 C        3.015    -0.001    28.025     8.684
   105   6 C        3.010     0.002    27.959     8.674
   106  16 S        2.415     0.043   139.321    19.866
   107   6 C        3.007     0.020    27.547     8.609
   108   6 C        3.825    -0.065    21.727     6.633
   109   6 C        3.754    -0.114    22.738     6.800
   110   6 C        3.109     0.063    26.443     8.425
   111  17 Cl       0.949    -0.180   104.791    15.661
   112   6 C        3.099     0.069    26.344     8.411
   113  17 Cl       0.946    -0.189   105.086    15.683
   114   6 C        3.007     0.026    27.408     8.588
   115   6 C        3.138     0.001    27.773     8.625
   116   6 C        3.011     0.000    28.010     8.682
   117   6 C        3.013     0.002    27.972     8.676
   118  16 S        2.398     0.044   139.266    19.862
   119   6 C        3.009     0.019    27.567     8.613
   120   6 C        3.824    -0.065    21.732     6.634
   121   6 C        3.754    -0.115    22.768     6.804
   122   6 C        3.109     0.063    26.451     8.426
   123   6 C        3.099     0.068    26.362     8.414
   124  17 Cl       0.946    -0.184   104.933    15.672
   125  17 Cl       0.948    -0.179   104.755    15.658
   126   6 C        3.006     0.025    27.422     8.590
   127  16 S        2.313    -0.047   142.985    20.126
   128   6 C        3.064    -0.050    29.168     8.856
   129   6 C        3.017     0.031    27.278     8.567
   130  16 S        2.317    -0.052   143.229    20.143
   131   6 C        3.026     0.030    27.297     8.570
   132   6 C        3.069    -0.049    29.147     8.853
   133   6 C        3.139     0.000    27.788     8.627
   134   6 C        3.011     0.002    27.971     8.676
   135   6 C        3.013     0.002    27.954     8.673
   136  16 S        2.385     0.032   139.742    19.896
   137   6 C        3.009     0.018    27.588     8.616
   138   6 C        3.824    -0.065    21.719     6.632
   139   6 C        3.754    -0.117    22.802     6.809
   140   6 C        3.109     0.063    26.458     8.427
   141  17 Cl       0.949    -0.169   104.443    15.635
   142   6 C        3.099     0.068    26.362     8.414
   143  17 Cl       0.945    -0.172   104.552    15.643
   144   6 C        3.007     0.023    27.469     8.597
   145   6 C        3.147     0.001    27.743     8.617
   146   6 C        3.011     0.000    28.007     8.681
   147   6 C        3.014     0.003    27.948     8.672
   148  16 S        2.378     0.041   139.375    19.870
   149   6 C        3.009     0.016    27.630     8.623
   150   6 C        3.823    -0.065    21.728     6.633
   151   6 C        3.754    -0.116    22.778     6.805
   152   6 C        3.111     0.063    26.441     8.424
   153   6 C        3.099     0.068    26.350     8.412
   154  17 Cl       0.960    -0.183   104.895    15.669
   155  17 Cl       0.949    -0.182   104.880    15.668
   156   6 C        3.007     0.029    27.337     8.577
   157  16 S        2.283    -0.074   144.121    20.205
   158   6 C        3.072    -0.051    29.199     8.860
   159   6 C        2.936    -0.011    28.302     8.725
   160  16 S        2.262    -0.026   142.132    20.065
   161   1 H        0.926     0.059     2.205     2.322
   162   1 H        0.926     0.058     2.225     2.333
   163   1 H        0.924     0.075     2.034     2.231
   164   1 H        0.924     0.068     2.106     2.269
   165   1 H        0.925     0.063     2.163     2.300
   166   1 H        0.925     0.057     2.232     2.336
   167   1 H        0.925     0.052     2.300     2.372
   168   1 H        0.924     0.058     2.218     2.329
   169   1 H        0.924     0.061     2.193     2.316
   170   1 H        0.925     0.057     2.229     2.335
   171   1 H        0.925     0.051     2.309     2.376
   172   1 H        0.925     0.059     2.209     2.324
   173   1 H        0.926     0.053     2.285     2.364
   174   1 H        0.924     0.059     2.206     2.322
   175   1 H        0.924     0.064     2.149     2.292
   176   1 H        0.925     0.053     2.279     2.361
   177   1 H        0.925     0.041     2.430     2.438
   178   1 H        0.925     0.049     2.335     2.390
   179   1 H        0.926     0.084     1.941     2.179
   180   1 H        0.860     0.226     0.984     1.554
   181   1 H        0.926     0.057     2.232     2.336
   182   1 H        0.924     0.070     2.088     2.260
   183   1 H        0.924     0.069     2.094     2.263
   184   1 H        0.925     0.063     2.161     2.299
   185   1 H        0.925     0.055     2.261     2.351
   186   1 H        0.925     0.064     2.158     2.297
   187   1 H        0.924     0.069     2.096     2.264
   188   1 H        0.924     0.082     1.955     2.187
   189   1 H        0.925     0.044     2.401     2.423
   190   1 H        0.925     0.061     2.184     2.311
   191   1 H        0.925     0.062     2.181     2.309
   192   1 H        0.926     0.060     2.199     2.319
   193   1 H        0.926     0.066     2.129     2.282
   194   1 H        0.924     0.071     2.078     2.254
   195   1 H        0.924     0.082     1.958     2.188
   196   1 H        0.925     0.066     2.130     2.282
   197   1 H        0.925     0.058     2.224     2.332
   198   1 H        0.925     0.047     2.363     2.404
   199   1 H        0.924     0.087     1.912     2.162
   200   1 H        0.924     0.070     2.081     2.256
   201   1 H        0.925     0.040     2.443     2.444
   202   1 H        0.925     0.056     2.252     2.347
   203   1 H        0.925     0.067     2.120     2.277
   204   1 H        0.926     0.048     2.345     2.395
   205   1 H        0.926     0.051     2.305     2.374
   206   1 H        0.924     0.085     1.928     2.171
   207   1 H        0.924     0.072     2.064     2.247
   208   1 H        0.925     0.065     2.146     2.291
   209   1 H        0.925     0.048     2.349     2.397
   210   1 H        0.925     0.053     2.288     2.365
   211   1 H        0.924     0.072     2.061     2.245
   212   1 H        0.924     0.085     1.932     2.174
   213   1 H        0.925     0.042     2.417     2.431
   214   1 H        0.925     0.055     2.258     2.350
   215   1 H        0.925     0.066     2.125     2.279
   216   1 H        0.926     0.053     2.288     2.365
   217   1 H        0.926     0.059     2.208     2.324
   218   1 H        0.924     0.072     2.069     2.249
   219   1 H        0.924     0.076     2.018     2.222
   220   1 H        0.925     0.057     2.240     2.340
   221   1 H        0.925     0.063     2.169     2.303
   222   1 H        0.925     0.048     2.342     2.393
   223   1 H        0.924     0.071     2.080     2.255
   224   1 H        0.924     0.081     1.967     2.193
   225   1 H        0.925     0.044     2.397     2.421
   226   1 H        0.925     0.056     2.251     2.346
   227   1 H        0.925     0.064     2.153     2.295
   228   1 H        0.926     0.068     2.105     2.269
   229   1 H        0.926     0.086     1.919     2.166

 Mol. C6AA /au·bohr⁶  :    1362659.031963
 Mol. C8AA /au·bohr⁸  :   44992890.180687
 Mol. α(0) /au        :       1873.290894


Wiberg/Mayer (AO) data.
largest (>0.10) Wiberg bond orders for each atom

 ---------------------------------------------------------------------------
     #   Z sym  total        # sym  WBO       # sym  WBO       # sym  WBO
 ---------------------------------------------------------------------------
     1   6 C    3.925 --     2 C    1.680    27 S    1.145   161 H    0.967
     2   6 C    3.980 --     1 C    1.680     3 C    1.195   162 H    0.958
                            27 S    0.100
     3   6 C    3.969 --     4 C    1.287    26 C    1.262     2 C    1.195
     4   6 C    3.971 --    14 C    1.372     3 C    1.287     5 C    1.069
     5   6 C    3.950 --    12 C    1.518     6 S    1.127     4 C    1.069
     6  16 S    2.621 --     7 C    1.157     5 C    1.127
     7   6 C    3.942 --    10 C    1.544     6 S    1.157     8 C    1.027
     8   6 C    3.984 --     7 C    1.027     9 C    0.992   164 H    0.964
                           163 H    0.963
     9   6 C    3.988 --     8 C    0.992   167 H    0.988   166 H    0.985
                           165 H    0.982
    10   6 C    3.898 --     7 C    1.544    12 C    1.218    11 Cl   0.966
    11  17 Cl   1.108 --    10 C    0.966
    12   6 C    3.893 --     5 C    1.518    10 C    1.218    13 Cl   0.969
    13  17 Cl   1.121 --    12 C    0.969
    14   6 C    3.951 --     4 C    1.372    15 C    1.245    30 S    1.107
    15   6 C    3.982 --    16 C    1.285    14 C    1.245    28 C    1.225
    16   6 C    3.950 --    26 C    1.361    15 C    1.285    17 C    1.064
    17   6 C    3.949 --    23 C    1.520    18 S    1.131    16 C    1.064
    18  16 S    2.623 --    19 C    1.159    17 C    1.131
    19   6 C    3.942 --    22 C    1.543    18 S    1.159    20 C    1.026
    20   6 C    3.986 --    19 C    1.026    21 C    0.992   168 H    0.965
                           169 H    0.961
    21   6 C    3.988 --    20 C    0.992   171 H    0.988   170 H    0.983
                           172 H    0.982
    22   6 C    3.896 --    19 C    1.543    23 C    1.218    25 Cl   0.964
    23   6 C    3.889 --    17 C    1.520    22 C    1.218    24 Cl   0.966
    24  17 Cl   1.113 --    23 C    0.966
    25  17 Cl   1.105 --    22 C    0.964
    26   6 C    3.951 --    16 C    1.361     3 C    1.262    27 S    1.105
    27  16 S    2.534 --     1 C    1.145    26 C    1.105     2 C    0.100
    28   6 C    3.967 --    29 C    1.533    15 C    1.225   173 H    0.957
    29   6 C    3.938 --    28 C    1.533    31 C    1.161    30 S    1.083
    30  16 S    2.507 --    14 C    1.107    29 C    1.083
    31   6 C    3.927 --    37 C    1.396    29 C    1.161    32 S    1.116
                            33 C    0.113
    32  16 S    2.603 --    33 C    1.172    31 C    1.116
    33   6 C    3.914 --    36 C    1.463    32 S    1.172    34 C    1.026
                            31 C    0.113
    34   6 C    3.991 --    33 C    1.026    35 C    0.994   174 H    0.970
                           175 H    0.964
    35   6 C    3.988 --    34 C    0.994   177 H    0.988   178 H    0.987
                           176 H    0.984
    36   6 C    3.961 --    33 C    1.463    37 C    1.168    40 N    1.144
    37   6 C    3.964 --    31 C    1.396    36 C    1.168    38 C    1.155
    38   6 C    3.964 --    39 C    1.480    37 C    1.155    41 C    1.136
    39   6 C    3.930 --    38 C    1.480    40 N    1.254   179 H    0.962
    40   7 N    3.538 --    39 C    1.254    36 C    1.144   180 H    0.922
    41   6 C    3.931 --    42 C    1.550    38 C    1.136    67 S    1.085
    42   6 C    3.967 --    41 C    1.550    43 C    1.230   181 H    0.948
    43   6 C    3.970 --    44 C    1.270    66 C    1.247    42 C    1.230
    44   6 C    3.953 --    54 C    1.365    43 C    1.270    45 C    1.077
    45   6 C    3.951 --    52 C    1.513    46 S    1.127    44 C    1.077
    46  16 S    2.615 --    47 C    1.157    45 C    1.127
    47   6 C    3.940 --    50 C    1.542    46 S    1.157    48 C    1.028
    48   6 C    3.985 --    47 C    1.028    49 C    1.003   182 H    0.960
                           183 H    0.950
    49   6 C    3.988 --    48 C    1.003   185 H    0.987   186 H    0.983
                           184 H    0.981
    50   6 C    3.894 --    47 C    1.542    52 C    1.219    51 Cl   0.962
    51  17 Cl   1.116 --    50 C    0.962
    52   6 C    3.884 --    45 C    1.513    50 C    1.219    53 Cl   0.963
    53  17 Cl   1.115 --    52 C    0.963
    54   6 C    3.946 --    44 C    1.365    55 C    1.248    70 S    1.106
    55   6 C    3.971 --    56 C    1.260    54 C    1.248    68 C    1.237
    56   6 C    3.953 --    66 C    1.373    55 C    1.260    57 C    1.090
    57   6 C    3.951 --    63 C    1.501    58 S    1.130    56 C    1.090
    58  16 S    2.623 --    59 C    1.166    57 C    1.130
    59   6 C    3.938 --    62 C    1.534    58 S    1.166    60 C    1.027
    60   6 C    3.983 --    59 C    1.027    61 C    0.992   188 H    0.964
                           187 H    0.963
    61   6 C    3.988 --    60 C    0.992   189 H    0.988   190 H    0.986
                           191 H    0.982
    62   6 C    3.893 --    59 C    1.534    63 C    1.226    65 Cl   0.962
    63   6 C    3.886 --    57 C    1.501    62 C    1.226    64 Cl   0.961
    64  17 Cl   1.116 --    63 C    0.961
    65  17 Cl   1.103 --    62 C    0.962
    66   6 C    3.952 --    56 C    1.373    43 C    1.247    67 S    1.105
    67  16 S    2.510 --    66 C    1.105    41 C    1.085
    68   6 C    3.953 --    69 C    1.536    55 C    1.237   192 H    0.954
    69   6 C    3.931 --    68 C    1.536    71 C    1.161    70 S    1.084
    70  16 S    2.505 --    54 C    1.106    69 C    1.084
    71   6 C    3.932 --    72 C    1.543    69 C    1.161    97 S    1.081
    72   6 C    3.949 --    71 C    1.543    73 C    1.232   193 H    0.953
    73   6 C    3.971 --    74 C    1.276    96 C    1.245    72 C    1.232
    74   6 C    3.950 --    84 C    1.367    73 C    1.276    75 C    1.074
    75   6 C    3.951 --    82 C    1.513    76 S    1.130    74 C    1.074
    76  16 S    2.612 --    77 C    1.163    75 C    1.130
    77   6 C    3.939 --    80 C    1.539    76 S    1.163    78 C    1.026
    78   6 C    3.982 --    77 C    1.026    79 C    0.991   195 H    0.965
                           194 H    0.962
    79   6 C    3.988 --    78 C    0.991   198 H    0.988   197 H    0.986
                           196 H    0.982
    80   6 C    3.896 --    77 C    1.539    82 C    1.222    81 Cl   0.965
    81  17 Cl   1.108 --    80 C    0.965
    82   6 C    3.886 --    75 C    1.513    80 C    1.222    83 Cl   0.963
    83  17 Cl   1.114 --    82 C    0.963
    84   6 C    3.947 --    74 C    1.367    85 C    1.245   100 S    1.109
    85   6 C    3.971 --    86 C    1.266    84 C    1.245    98 C    1.238
    86   6 C    3.953 --    96 C    1.373    85 C    1.266    87 C    1.082
    87   6 C    3.951 --    93 C    1.506    88 S    1.131    86 C    1.082
    88  16 S    2.621 --    89 C    1.164    87 C    1.131
    89   6 C    3.938 --    92 C    1.536    88 S    1.164    90 C    1.027
    90   6 C    3.982 --    89 C    1.027    91 C    0.991   200 H    0.963
                           199 H    0.962
    91   6 C    3.988 --    90 C    0.991   201 H    0.988   202 H    0.986
                           203 H    0.982
    92   6 C    3.893 --    89 C    1.536    93 C    1.224    95 Cl   0.962
    93   6 C    3.884 --    87 C    1.506    92 C    1.224    94 Cl   0.959
    94  17 Cl   1.103 --    93 C    0.959
    95  17 Cl   1.103 --    92 C    0.962
    96   6 C    3.950 --    86 C    1.373    73 C    1.245    97 S    1.109
    97  16 S    2.511 --    96 C    1.109    71 C    1.081
    98   6 C    3.954 --    99 C    1.531    85 C    1.238   204 H    0.958
    99   6 C    3.934 --    98 C    1.531   101 C    1.156   100 S    1.098
   100  16 S    2.520 --    84 C    1.109    99 C    1.098
   101   6 C    3.935 --   102 C    1.534    99 C    1.156   127 S    1.095
   102   6 C    3.953 --   101 C    1.534   103 C    1.235   205 H    0.958
   103   6 C    3.972 --   104 C    1.269   126 C    1.246   102 C    1.235
   104   6 C    3.953 --   114 C    1.371   103 C    1.269   105 C    1.079
   105   6 C    3.951 --   112 C    1.511   106 S    1.129   104 C    1.079
   106  16 S    2.618 --   107 C    1.161   105 C    1.129
   107   6 C    3.938 --   110 C    1.538   106 S    1.161   108 C    1.027
   108   6 C    3.982 --   107 C    1.027   109 C    0.995   207 H    0.965
                           206 H    0.956
   109   6 C    3.989 --   108 C    0.995   209 H    0.988   210 H    0.985
                           208 H    0.982
   110   6 C    3.895 --   107 C    1.538   112 C    1.221   111 Cl   0.964
   111  17 Cl   1.106 --   110 C    0.964
   112   6 C    3.887 --   105 C    1.511   110 C    1.221   113 Cl   0.962
   113  17 Cl   1.106 --   112 C    0.962
   114   6 C    3.950 --   104 C    1.371   115 C    1.249   130 S    1.107
   115   6 C    3.971 --   116 C    1.273   114 C    1.249   128 C    1.228
   116   6 C    3.953 --   126 C    1.370   115 C    1.273   117 C    1.078
   117   6 C    3.950 --   123 C    1.509   118 S    1.131   116 C    1.078
   118  16 S    2.619 --   119 C    1.164   117 C    1.131
   119   6 C    3.938 --   122 C    1.536   118 S    1.164   120 C    1.027
   120   6 C    3.982 --   119 C    1.027   121 C    0.991   211 H    0.963
                           212 H    0.963
   121   6 C    3.988 --   120 C    0.991   213 H    0.988   214 H    0.986
                           215 H    0.982
   122   6 C    3.896 --   119 C    1.536   123 C    1.223   125 Cl   0.965
   123   6 C    3.889 --   117 C    1.509   122 C    1.223   124 Cl   0.964
   124  17 Cl   1.109 --   123 C    0.964
   125  17 Cl   1.107 --   122 C    0.965
   126   6 C    3.948 --   116 C    1.370   103 C    1.246   127 S    1.108
   127  16 S    2.517 --   126 C    1.108   101 C    1.095
   128   6 C    3.955 --   129 C    1.549   115 C    1.228   216 H    0.957
   129   6 C    3.934 --   128 C    1.549   131 C    1.156   130 S    1.081
   130  16 S    2.511 --   114 C    1.107   129 C    1.081
   131   6 C    3.939 --   132 C    1.548   129 C    1.156   157 S    1.084
   132   6 C    3.955 --   131 C    1.548   133 C    1.226   217 H    0.954
   133   6 C    3.982 --   134 C    1.282   156 C    1.245   132 C    1.226
   134   6 C    3.949 --   144 C    1.366   133 C    1.282   135 C    1.073
   135   6 C    3.950 --   142 C    1.512   136 S    1.130   134 C    1.073
   136  16 S    2.613 --   137 C    1.162   135 C    1.130
   137   6 C    3.939 --   140 C    1.538   136 S    1.162   138 C    1.027
   138   6 C    3.984 --   137 C    1.027   139 C    0.991   219 H    0.965
                           218 H    0.962
   139   6 C    3.988 --   138 C    0.991   222 H    0.988   220 H    0.986
                           221 H    0.982
   140   6 C    3.901 --   137 C    1.538   142 C    1.222   141 Cl   0.970
   141  17 Cl   1.114 --   140 C    0.970
   142   6 C    3.895 --   135 C    1.512   140 C    1.222   143 Cl   0.971
   143  17 Cl   1.119 --   142 C    0.971
   144   6 C    3.958 --   134 C    1.366   145 C    1.259   160 S    1.114
   145   6 C    3.971 --   146 C    1.289   144 C    1.259   158 C    1.198
   146   6 C    3.971 --   156 C    1.370   145 C    1.289   147 C    1.066
   147   6 C    3.950 --   153 C    1.519   148 S    1.131   146 C    1.066
   148  16 S    2.611 --   149 C    1.161   147 C    1.131
   149   6 C    3.942 --   152 C    1.542   148 S    1.161   150 C    1.027
   150   6 C    3.983 --   149 C    1.027   151 C    0.992   224 H    0.965
                           223 H    0.962
   151   6 C    3.989 --   150 C    0.992   225 H    0.988   226 H    0.986
                           227 H    0.982
   152   6 C    3.895 --   149 C    1.542   153 C    1.220   155 Cl   0.963
   153   6 C    3.883 --   147 C    1.519   152 C    1.220   154 Cl   0.965
   154  17 Cl   1.114 --   153 C    0.965
   155  17 Cl   1.105 --   152 C    0.963
   156   6 C    3.946 --   146 C    1.370   133 C    1.245   157 S    1.103
   157  16 S    2.503 --   156 C    1.103   131 C    1.084
   158   6 C    3.978 --   159 C    1.678   145 C    1.198   228 H    0.957
   159   6 C    3.928 --   158 C    1.678   160 S    1.154   229 H    0.963
   160  16 S    2.552 --   159 C    1.154   144 C    1.114
   161   1 H    0.996 --     1 C    0.967
   162   1 H    0.996 --     2 C    0.958
   163   1 H    0.994 --     8 C    0.963
   164   1 H    0.995 --     8 C    0.964
   165   1 H    0.995 --     9 C    0.982
   166   1 H    0.997 --     9 C    0.985
   167   1 H    0.997 --     9 C    0.988
   168   1 H    0.996 --    20 C    0.965
   169   1 H    0.996 --    20 C    0.961
   170   1 H    0.996 --    21 C    0.983
   171   1 H    0.997 --    21 C    0.988
   172   1 H    0.996 --    21 C    0.982
   173   1 H    0.997 --    28 C    0.957
   174   1 H    0.995 --    34 C    0.970
   175   1 H    0.994 --    34 C    0.964
   176   1 H    0.996 --    35 C    0.984
   177   1 H    0.998 --    35 C    0.988
   178   1 H    0.998 --    35 C    0.987
   179   1 H    0.992 --    39 C    0.962
   180   1 H    0.948 --    40 N    0.922
   181   1 H    0.996 --    42 C    0.948
   182   1 H    0.995 --    48 C    0.960
   183   1 H    0.994 --    48 C    0.950
   184   1 H    0.996 --    49 C    0.981
   185   1 H    0.997 --    49 C    0.987
   186   1 H    0.995 --    49 C    0.983
   187   1 H    0.995 --    60 C    0.963
   188   1 H    0.992 --    60 C    0.964
   189   1 H    0.998 --    61 C    0.988
   190   1 H    0.996 --    61 C    0.986
   191   1 H    0.995 --    61 C    0.982
   192   1 H    0.996 --    68 C    0.954
   193   1 H    0.995 --    72 C    0.953
   194   1 H    0.994 --    78 C    0.962
   195   1 H    0.993 --    78 C    0.965
   196   1 H    0.995 --    79 C    0.982
   197   1 H    0.997 --    79 C    0.986
   198   1 H    0.998 --    79 C    0.988
   199   1 H    0.992 --    90 C    0.962
   200   1 H    0.995 --    90 C    0.963
   201   1 H    0.998 --    91 C    0.988
   202   1 H    0.997 --    91 C    0.986
   203   1 H    0.994 --    91 C    0.982
   204   1 H    0.997 --    98 C    0.958
   205   1 H    0.997 --   102 C    0.958
   206   1 H    0.992 --   108 C    0.956
   207   1 H    0.994 --   108 C    0.965
   208   1 H    0.995 --   109 C    0.982
   209   1 H    0.998 --   109 C    0.988
   210   1 H    0.997 --   109 C    0.985
   211   1 H    0.994 --   120 C    0.963
   212   1 H    0.992 --   120 C    0.963
   213   1 H    0.998 --   121 C    0.988
   214   1 H    0.997 --   121 C    0.986
   215   1 H    0.994 --   121 C    0.982
   216   1 H    0.996 --   128 C    0.957
   217   1 H    0.996 --   132 C    0.954
   218   1 H    0.994 --   138 C    0.962
   219   1 H    0.993 --   138 C    0.965
   220   1 H    0.997 --   139 C    0.986
   221   1 H    0.995 --   139 C    0.982
   222   1 H    0.998 --   139 C    0.988
   223   1 H    0.994 --   150 C    0.962
   224   1 H    0.993 --   150 C    0.965
   225   1 H    0.998 --   151 C    0.988
   226   1 H    0.997 --   151 C    0.986
   227   1 H    0.995 --   151 C    0.982
   228   1 H    0.995 --   158 C    0.957
   229   1 H    0.992 --   159 C    0.963
 ---------------------------------------------------------------------------

Topologies differ in bond orders
Writing corrected topology to xtbtopo.mol

molecular dipole:
                 x           y           z       tot (Debye)
 q only:        9.723      -0.154      12.276
   full:        4.475      -0.652       7.612      22.504
molecular quadrupole (traceless):
                xx          xy          yy          xz          yz          zz
 q only:     -166.198     -25.564     121.916    -153.042    -187.961      44.281
  q+dip:     -131.278     -18.214      65.791    -115.059    -143.359      65.487
   full:     -123.994     -13.759      61.041    -108.484    -145.543      62.954


           -------------------------------------------------
          | TOTAL ENERGY             -450.428977422596 Eh   |
          | GRADIENT NORM               0.035724104647 Eh/α |
          | HOMO-LUMO GAP               0.904502823887 eV   |
           -------------------------------------------------

------------------------------------------------------------------------
 * finished run on 2022/03/02 at 11:08:34.029     
------------------------------------------------------------------------
 total:
 * wall-time:     0 d,  0 h,  0 min,  1.837 sec
 *  cpu-time:     0 d,  0 h,  0 min, 13.717 sec
 * ratio c/w:     7.465 speedup
 SCF:
 * wall-time:     0 d,  0 h,  0 min,  1.476 sec
 *  cpu-time:     0 d,  0 h,  0 min, 11.797 sec
 * ratio c/w:     7.992 speedup

