      -----------------------------------------------------------      
     |                   =====================                   |     
     |                           x T B                           |     
     |                   =====================                   |     
     |                         S. Grimme                         |     
     |          Mulliken Center for Theoretical Chemistry        |     
     |                    University of Bonn                     |     
      -----------------------------------------------------------      

   * xtb version 6.4.1 (unknown) compiled by 'oda6@login1.crc.pitt.edu' on 2021-06-25

   xtb is free software: you can redistribute it and/or modify it under
   the terms of the GNU Lesser General Public License as published by
   the Free Software Foundation, either version 3 of the License, or
   (at your option) any later version.
   
   xtb is distributed in the hope that it will be useful,
   but WITHOUT ANY WARRANTY; without even the implied warranty of
   MERCHANTABILITY or FITNESS FOR A PARTICULAR PURPOSE.  See the
   GNU Lesser General Public License for more details.
   
   Cite this work as:
   * C. Bannwarth, E. Caldeweyher, S. Ehlert, A. Hansen, P. Pracht,
     J. Seibert, S. Spicher, S. Grimme, WIREs Comput. Mol. Sci., 2020, 11,
     e01493. DOI: 10.1002/wcms.1493
   
   for GFN2-xTB:
   * C. Bannwarth, S. Ehlert and S. Grimme., J. Chem. Theory Comput., 2019,
     15, 1652-1671. DOI: 10.1021/acs.jctc.8b01176
   for GFN1-xTB:
   * S. Grimme, C. Bannwarth, P. Shushkov, J. Chem. Theory Comput., 2017,
     13, 1989-2009. DOI: 10.1021/acs.jctc.7b00118
   for GFN0-xTB:
   * P. Pracht, E. Caldeweyher, S. Ehlert, S. Grimme, ChemRxiv, 2019, preprint.
     DOI: 10.26434/chemrxiv.8326202.v1
   for GFN-FF:
   * S. Spicher and S. Grimme, Angew. Chem. Int. Ed., 2020, 59, 15665-15673.
     DOI: 10.1002/anie.202004239
   
   for DFT-D4:
   * E. Caldeweyher, C. Bannwarth and S. Grimme, J. Chem. Phys., 2017,
     147, 034112. DOI: 10.1063/1.4993215
   * E. Caldeweyher, S. Ehlert, A. Hansen, H. Neugebauer, S. Spicher,
     C. Bannwarth and S. Grimme, J. Chem. Phys., 2019, 150, 154122.
     DOI: 10.1063/1.5090222
   * E. Caldeweyher, J.-M. Mewes, S. Ehlert and S. Grimme, Phys. Chem. Chem. Phys.
     2020, 22, 8499-8512. DOI: 10.1039/D0CP00502A
   
   for sTDA-xTB:
   * S. Grimme and C. Bannwarth, J. Chem. Phys., 2016, 145, 054103.
     DOI: 10.1063/1.4959605
   
   in the mass-spec context:
   * V. Asgeirsson, C. Bauer and S. Grimme, Chem. Sci., 2017, 8, 4879.
     DOI: 10.1039/c7sc00601b
   * J. Koopman and S. Grimme, ACS Omega 2019, 4, 12, 15120-15133.
     DOI: 10.1021/acsomega.9b02011
   
   for metadynamics refer to:
   * S. Grimme, J. Chem. Theory Comput., 2019, 155, 2847-2862
     DOI: 10.1021/acs.jctc.9b00143
   
   for SPH calculations refer to:
   * S. Spicher and S. Grimme, J. Chem. Theory Comput., 2021, 17, 1701-1714
     DOI: 10.1021/acs.jctc.0c01306
   
   with help from (in alphabetical order)
   P. Atkinson, C. Bannwarth, F. Bohle, G. Brandenburg, E. Caldeweyher
   M. Checinski, S. Dohm, S. Ehlert, S. Ehrlich, I. Gerasimov, J. Koopman
   C. Lavigne, S. Lehtola, F. März, M. Müller, F. Musil, H. Neugebauer
   J. Pisarek, C. Plett, P. Pracht, J. Seibert, P. Shushkov, S. Spicher
   M. Stahn, M. Steiner, T. Strunk, J. Stückrath, T. Rose, and J. Unsleber
   
 * started run on 2022/03/08 at 06:02:20.842     

           -------------------------------------------------
          |                Calculation Setup                |
           -------------------------------------------------

          program call               : /ihome/ghutchison/oda6/xtb/xtb-641/bin/xtb ../../GFN2_output/1143_99_100011.mol --sp --alpb water
          hostname                   : smp-n44
          coordinate file            : ../../GFN2_output/1143_99_100011.mol
          omp threads                :                     8
          number of atoms            :                   239
          number of electrons        :                   746
          charge                     :                     0
          spin                       :                   0.0
          first test random number   :      0.15609949606865

   ID    Z sym.   atoms
    1    6 C      1-8, 10-12, 14-21, 23-26, 28, 30, 31, 33, 35-37, 39, 41-43,
                  45, 46, 48-50, 52-54, 56, 58-60, 62, 63, 65-67, 69-71, 73,
                  75-77, 79, 80, 82-91, 93-95, 97-104, 106-109, 111, 113,
                  114, 116-123, 125-127, 129-136, 138-141, 143, 145, 146
    2   16 S      9, 22, 29, 32, 34, 51, 68, 92, 105, 112, 115, 124, 137,
                  144, 147
    3    9 F      13, 27, 96, 110, 128, 142
    4    7 N      38, 47, 55, 64, 72, 81
    5    8 O      40, 44, 57, 61, 74, 78
    6    1 H      148-239

           -------------------------------------------------
          |                 G F N 2 - x T B                 |
           -------------------------------------------------

        Reference                      10.1021/acs.jctc.8b01176
      * Hamiltonian:
        H0-scaling (s, p, d)           1.850000    2.230000    2.230000
        zeta-weighting                 0.500000
      * Dispersion:
        s8                             2.700000
        a1                             0.520000
        a2                             5.000000
        s9                             5.000000
      * Repulsion:
        kExp                           1.500000    1.000000
        rExp                           1.000000
      * Coulomb:
        alpha                          2.000000
        third order                    shell-resolved
        anisotropic                    true
        a3                             3.000000
        a5                             4.000000
        cn-shift                       1.200000
        cn-exp                         4.000000
        max-rad                        5.000000

      * Solvation model:               ALPB
        Solvent                        water
        Parameter file                 internal GFN2-xTB/ALPB
        Dielectric constant                8.0200E+01
        Reference state                gsolv [1 M gas/solution]
        Free energy shift                  1.0808E-03 Eh       6.7819E-01 kcal/mol
        Temperature                        2.9815E+02 K
        Density                            1.0000E+00 kg/L
        Solvent mass                       1.8000E+01 g/mol
        Interaction kernel             P16
        Born radius scaling (c1)           1.4744E+00
        Born radii integrator          GBOBC
        Born offset                        0.0000E+00 a0       0.0000E+00 AA
        H-bond correction              true
        Ion screening                  false
        Surface tension                    1.0000E-05 Eh       1.5569E+01 dyn/cm
        Grid points                               230 per atom

          ...................................................
          :                      SETUP                      :
          :.................................................:
          :  # basis functions                 770          :
          :  # atomic orbitals                 755          :
          :  # shells                          401          :
          :  # electrons                       746          :
          :  max. iterations                   250          :
          :  Hamiltonian                  GFN2-xTB          :
          :  restarted?                      false          :
          :  GBSA solvation                   true          :
          :  PC potential                    false          :
          :  electronic temp.          300.0000000     K    :
          :  accuracy                    1.0000000          :
          :  -> integral cutoff          0.2500000E+02      :
          :  -> integral neglect         0.1000000E-07      :
          :  -> SCF convergence          0.1000000E-05 Eh   :
          :  -> wf. convergence          0.1000000E-03 e    :
          :  Broyden damping             0.4000000          :
          ...................................................

 iter      E             dE          RMSdq      gap      omega  full diag
   1   -415.6351118 -0.415635E+03  0.443E+00    0.81       0.0  T
   2   -415.9374587 -0.302347E+00  0.250E+00    0.79       1.0  T
   3   -415.8676230  0.698357E-01  0.998E-01    0.81       1.0  T
   4   -415.9816930 -0.114070E+00  0.369E-01    0.80       1.0  T
   5   -415.9918462 -0.101532E-01  0.173E-01    0.78       1.0  T
   6   -415.9940073 -0.216114E-02  0.797E-02    0.79       1.0  T
   7   -415.9946391 -0.631755E-03  0.375E-02    0.79       1.0  T
   8   -415.9947653 -0.126211E-03  0.196E-02    0.79       1.0  T
   9   -415.9947814 -0.161491E-04  0.111E-02    0.79       1.0  T
  10   -415.9947870 -0.553888E-05  0.483E-03    0.79       1.3  T
  11   -415.9947889 -0.188716E-05  0.268E-03    0.79       2.4  T
  12   -415.9947892 -0.367959E-06  0.155E-03    0.79       4.2  T
  13   -415.9947894 -0.159632E-06  0.670E-04    0.79       9.7  T
  14   -415.9947894 -0.267850E-07  0.386E-04    0.79      16.8  T

   *** convergence criteria satisfied after 14 iterations ***

         #    Occupation            Energy/Eh            Energy/eV
      -------------------------------------------------------------
         1        2.0000           -0.8369735             -22.7752
       ...           ...                  ...                  ...
       367        2.0000           -0.3678908             -10.0108
       368        2.0000           -0.3673961              -9.9974
       369        2.0000           -0.3668032              -9.9812
       370        2.0000           -0.3646906              -9.9237
       371        2.0000           -0.3635941              -9.8939
       372        2.0000           -0.3612029              -9.8288
       373        2.0000           -0.3519422              -9.5768 (HOMO)
       374        0.0000           -0.3230270              -8.7900 (LUMO)
       375                         -0.3064678              -8.3394
       376                         -0.3010294              -8.1914
       377                         -0.2914904              -7.9319
       378                         -0.2812789              -7.6540
       ...                                ...                  ...
       755                          0.7113357              19.3564
      -------------------------------------------------------------
                  HL-Gap            0.0289152 Eh            0.7868 eV
             Fermi-level           -0.3374846 Eh           -9.1834 eV

 SCC (total)                   0 d,  0 h,  0 min,  1.073 sec
 SCC setup                      ...        0 min,  0.011 sec (  1.012%)
 Dispersion                     ...        0 min,  0.012 sec (  1.157%)
 classical contributions        ...        0 min,  0.001 sec (  0.048%)
 integral evaluation            ...        0 min,  0.053 sec (  4.961%)
 iterations                     ...        0 min,  0.775 sec ( 72.208%)
 molecular gradient             ...        0 min,  0.215 sec ( 20.078%)
 printout                       ...        0 min,  0.006 sec (  0.525%)

         :::::::::::::::::::::::::::::::::::::::::::::::::::::
         ::                     SUMMARY                     ::
         :::::::::::::::::::::::::::::::::::::::::::::::::::::
         :: total energy            -410.333403320028 Eh    ::
         :: total w/o Gsasa/hb      -410.332732635832 Eh    ::
         :: gradient norm              0.030674118423 Eh/a0 ::
         :: HOMO-LUMO gap              0.786822560020 eV    ::
         ::.................................................::
         :: SCC energy              -415.994789412479 Eh    ::
         :: -> isotropic ES            0.272822075193 Eh    ::
         :: -> anisotropic ES         -0.009758132912 Eh    ::
         :: -> anisotropic XC          0.157287316201 Eh    ::
         :: -> dispersion             -0.445797707872 Eh    ::
         :: -> Gsolv                  -0.041753369587 Eh    ::
         ::    -> Gelec               -0.041082685391 Eh    ::
         ::    -> Gsasa                0.008261992849 Eh    ::
         ::    -> Ghb                 -0.010013436743 Eh    ::
         ::    -> Gshift               0.001080759698 Eh    ::
         :: repulsion energy           5.635280560546 Eh    ::
         :: add. restraining           0.000000000000 Eh    ::
         :: total charge               0.000000000032 e     ::
         :::::::::::::::::::::::::::::::::::::::::::::::::::::

           -------------------------------------------------
          |                Property Printout                |
           -------------------------------------------------

    * Orbital Energies and Occupations

         #    Occupation            Energy/Eh            Energy/eV
      -------------------------------------------------------------
         1        2.0000           -0.8369735             -22.7752
       ...           ...                  ...                  ...
       361        2.0000           -0.3802816             -10.3480
       362        2.0000           -0.3764320             -10.2432
       363        2.0000           -0.3743416             -10.1864
       364        2.0000           -0.3741946             -10.1824
       365        2.0000           -0.3717582             -10.1161
       366        2.0000           -0.3702698             -10.0756
       367        2.0000           -0.3678908             -10.0108
       368        2.0000           -0.3673961              -9.9974
       369        2.0000           -0.3668032              -9.9812
       370        2.0000           -0.3646906              -9.9237
       371        2.0000           -0.3635941              -9.8939
       372        2.0000           -0.3612029              -9.8288
       373        2.0000           -0.3519422              -9.5768 (HOMO)
       374        0.0000           -0.3230270              -8.7900 (LUMO)
       375                         -0.3064678              -8.3394
       376                         -0.3010294              -8.1914
       377                         -0.2914904              -7.9319
       378                         -0.2812789              -7.6540
       379                         -0.2782140              -7.5706
       380                         -0.2691375              -7.3236
       381                         -0.2667472              -7.2586
       382                         -0.2630768              -7.1587
       383                         -0.2594138              -7.0590
       384                         -0.2576692              -7.0115
       ...                                ...                  ...
       755                          0.7113357              19.3564
      -------------------------------------------------------------
                  HL-Gap            0.0289152 Eh            0.7868 eV
             Fermi-level           -0.3374846 Eh           -9.1834 eV

     #   Z          covCN         q      C6AA      α(0)
     1   6 C        2.934    -0.014    28.351     8.732
     2   6 C        3.070    -0.052    29.213     8.862
     3   6 C        3.141    -0.004    27.866     8.638
     4   6 C        2.993    -0.005    28.126     8.700
     5   6 C        2.979     0.014    27.699     8.633
     6   6 C        2.924    -0.042    29.035     8.836
     7   6 C        2.943    -0.045    29.113     8.849
     8   6 C        2.961     0.030    27.321     8.574
     9  16 S        2.051    -0.173   148.379    20.502
    10   6 C        3.793    -0.009    20.748     6.487
    11   6 C        3.779    -0.116    22.736     6.793
    12   6 C        2.842     0.155    24.630     8.133
    13   9 F        0.787    -0.250    11.760     4.051
    14   6 C        2.925    -0.052    29.287     8.875
    15   6 C        3.008     0.021    27.512     8.604
    16   6 C        3.133    -0.001    27.849     8.639
    17   6 C        2.993    -0.005    28.138     8.701
    18   6 C        2.978     0.016    27.657     8.627
    19   6 C        2.922    -0.035    28.873     8.812
    20   6 C        2.981    -0.039    28.952     8.826
    21   6 C        2.960     0.027    27.389     8.584
    22  16 S        2.058    -0.169   148.182    20.488
    23   6 C        3.792     0.000    20.589     6.462
    24   6 C        3.791    -0.115    22.709     6.787
    25   6 C        2.803     0.157    24.598     8.125
    26   6 C        2.926    -0.055    29.362     8.886
    27   9 F        0.787    -0.259    11.860     4.068
    28   6 C        3.007     0.023    27.469     8.597
    29  16 S        2.248    -0.067   143.828    20.185
    30   6 C        3.063    -0.058    29.382     8.889
    31   6 C        3.020     0.030    27.301     8.571
    32  16 S        2.284    -0.061   143.592    20.168
    33   6 C        3.021    -0.003    28.074     8.691
    34  16 S        2.633    -0.017   141.750    20.038
    35   6 C        2.967     0.009    27.810     8.650
    36   6 C        3.150     0.050    26.599     8.436
    37   6 C        3.171     0.058    26.346     8.385
    38   7 N        1.843    -0.299    28.610     7.927
    39   6 C        2.866     0.219    23.401     7.929
    40   8 O        1.705    -0.255    18.218     5.763
    41   6 C        3.702     0.077    19.440     6.304
    42   6 C        3.750    -0.116    22.792     6.809
    43   6 C        2.849     0.215    23.457     7.938
    44   8 O        1.705    -0.259    18.294     5.775
    45   6 C        3.695     0.069    19.585     6.331
    46   6 C        3.750    -0.127    23.008     6.841
    47   7 N        1.832    -0.298    28.569     7.921
    48   6 C        2.914    -0.040    28.983     8.828
    49   6 C        2.908    -0.039    28.960     8.824
    50   6 C        2.961     0.009    27.822     8.652
    51  16 S        2.678    -0.029   142.238    20.073
    52   6 C        2.969     0.010    27.799     8.648
    53   6 C        3.153     0.053    26.523     8.422
    54   6 C        3.178     0.052    26.422     8.393
    55   7 N        1.834    -0.303    28.707     7.940
    56   6 C        2.857     0.213    23.513     7.948
    57   8 O        1.706    -0.258    18.273     5.771
    58   6 C        3.701     0.082    19.374     6.294
    59   6 C        3.751    -0.127    22.999     6.839
    60   6 C        2.849     0.216    23.452     7.937
    61   8 O        1.705    -0.254    18.205     5.761
    62   6 C        3.696     0.070    19.576     6.329
    63   6 C        3.751    -0.122    22.893     6.824
    64   7 N        1.885    -0.296    28.515     7.916
    65   6 C        2.952    -0.040    28.992     8.831
    66   6 C        2.921    -0.035    28.875     8.812
    67   6 C        2.970     0.010    27.780     8.645
    68  16 S        2.558    -0.016   141.735    20.037
    69   6 C        2.975     0.005    27.912     8.666
    70   6 C        3.160     0.051    26.539     8.422
    71   6 C        3.170     0.051    26.504     8.410
    72   7 N        1.834    -0.294    28.462     7.906
    73   6 C        2.862     0.212    23.526     7.950
    74   8 O        1.705    -0.265    18.388     5.790
    75   6 C        3.703     0.070    19.563     6.324
    76   6 C        3.750    -0.124    22.938     6.830
    77   6 C        2.862     0.213    23.500     7.946
    78   8 O        1.705    -0.265    18.389     5.790
    79   6 C        3.704     0.068    19.591     6.328
    80   6 C        3.750    -0.128    23.024     6.843
    81   7 N        1.834    -0.299    28.602     7.925
    82   6 C        2.921    -0.033    28.820     8.804
    83   6 C        2.928    -0.051    29.257     8.870
    84   6 C        2.987     0.041    27.078     8.536
    85   6 C        3.069    -0.058    29.370     8.886
    86   6 C        3.144    -0.004    27.865     8.637
    87   6 C        2.997    -0.006    28.164     8.705
    88   6 C        2.979     0.016    27.638     8.624
    89   6 C        2.922    -0.039    28.961     8.825
    90   6 C        2.969    -0.040    28.987     8.831
    91   6 C        2.960     0.032    27.274     8.566
    92  16 S        2.043    -0.198   149.474    20.577
    93   6 C        3.793    -0.005    20.669     6.474
    94   6 C        3.781    -0.111    22.636     6.778
    95   6 C        2.807     0.160    24.523     8.113
    96   9 F        0.787    -0.244    11.704     4.041
    97   6 C        2.925    -0.053    29.323     8.880
    98   6 C        3.009     0.024    27.450     8.594
    99   6 C        3.141    -0.003    27.856     8.637
   100   6 C        2.995    -0.005    28.126     8.700
   101   6 C        2.979     0.018    27.612     8.620
   102   6 C        2.924    -0.038    28.948     8.823
   103   6 C        2.969    -0.037    28.925     8.822
   104   6 C        2.961     0.033    27.263     8.564
   105  16 S        2.039    -0.191   149.152    20.555
   106   6 C        3.793    -0.004    20.664     6.474
   107   6 C        3.777    -0.099    22.408     6.744
   108   6 C        2.808     0.163    24.478     8.106
   109   6 C        2.925    -0.056    29.389     8.890
   110   9 F        0.787    -0.252    11.787     4.055
   111   6 C        3.005     0.023    27.475     8.598
   112  16 S        2.439    -0.080   144.395    20.225
   113   6 C        3.063    -0.052    29.232     8.866
   114   6 C        3.008     0.027    27.387     8.585
   115  16 S        2.305    -0.072   144.065    20.201
   116   6 C        3.036     0.029    27.309     8.571
   117   6 C        3.076    -0.055    29.292     8.873
   118   6 C        3.138    -0.003    27.877     8.641
   119   6 C        2.992    -0.007    28.174     8.707
   120   6 C        2.978     0.019    27.586     8.616
   121   6 C        2.924    -0.038    28.950     8.824
   122   6 C        2.964    -0.036    28.897     8.817
   123   6 C        2.961     0.035    27.220     8.558
   124  16 S        2.041    -0.210   149.985    20.612
   125   6 C        3.793    -0.001    20.614     6.466
   126   6 C        3.781    -0.103    22.480     6.754
   127   6 C        2.810     0.166    24.410     8.095
   128   9 F        0.787    -0.249    11.751     4.049
   129   6 C        2.922    -0.055    29.358     8.885
   130   6 C        3.007     0.020    27.550     8.610
   131   6 C        3.147    -0.005    27.885     8.639
   132   6 C        2.989    -0.008    28.208     8.712
   133   6 C        2.979     0.018    27.603     8.618
   134   6 C        2.924    -0.039    28.960     8.825
   135   6 C        2.966    -0.037    28.925     8.822
   136   6 C        2.961     0.034    27.239     8.561
   137  16 S        2.043    -0.211   150.061    20.618
   138   6 C        3.793     0.003    20.535     6.453
   139   6 C        3.783    -0.109    22.592     6.771
   140   6 C        2.810     0.164    24.445     8.100
   141   6 C        2.921    -0.050    29.240     8.867
   142   9 F        0.787    -0.246    11.716     4.043
   143   6 C        3.007     0.020    27.548     8.610
   144  16 S        2.254    -0.089   144.759    20.250
   145   6 C        3.072    -0.049    29.134     8.850
   146   6 C        2.935    -0.013    28.329     8.729
   147  16 S        2.252    -0.043   142.826    20.114
   148   1 H        0.926     0.069     2.099     2.266
   149   1 H        0.926     0.058     2.218     2.329
   150   1 H        0.926     0.066     2.126     2.280
   151   1 H        0.926     0.071     2.076     2.253
   152   1 H        0.925     0.063     2.166     2.301
   153   1 H        0.925     0.071     2.074     2.252
   154   1 H        0.925     0.055     2.262     2.352
   155   1 H        0.925     0.062     2.181     2.310
   156   1 H        0.925     0.050     2.324     2.384
   157   1 H        0.926     0.061     2.182     2.310
   158   1 H        0.926     0.062     2.175     2.306
   159   1 H        0.926     0.075     2.030     2.228
   160   1 H        0.925     0.057     2.240     2.340
   161   1 H        0.925     0.048     2.341     2.393
   162   1 H        0.925     0.054     2.267     2.355
   163   1 H        0.925     0.059     2.216     2.328
   164   1 H        0.925     0.056     2.249     2.345
   165   1 H        0.926     0.067     2.124     2.279
   166   1 H        0.926     0.052     2.295     2.369
   167   1 H        0.924     0.076     2.021     2.223
   168   1 H        0.924     0.052     2.296     2.369
   169   1 H        0.925     0.058     2.222     2.331
   170   1 H        0.925     0.053     2.289     2.366
   171   1 H        0.925     0.066     2.136     2.285
   172   1 H        0.924     0.078     1.999     2.211
   173   1 H        0.924     0.059     2.208     2.324
   174   1 H        0.925     0.055     2.263     2.353
   175   1 H        0.925     0.059     2.216     2.328
   176   1 H        0.925     0.074     2.042     2.235
   177   1 H        0.925     0.068     2.110     2.272
   178   1 H        0.925     0.070     2.085     2.258
   179   1 H        0.924     0.060     2.202     2.321
   180   1 H        0.924     0.049     2.335     2.390
   181   1 H        0.925     0.069     2.096     2.264
   182   1 H        0.925     0.071     2.071     2.251
   183   1 H        0.925     0.064     2.149     2.293
   184   1 H        0.924     0.073     2.050     2.239
   185   1 H        0.924     0.057     2.231     2.336
   186   1 H        0.925     0.074     2.039     2.233
   187   1 H        0.925     0.062     2.180     2.309
   188   1 H        0.925     0.050     2.325     2.385
   189   1 H        0.925     0.063     2.168     2.303
   190   1 H        0.925     0.077     2.006     2.215
   191   1 H        0.924     0.061     2.191     2.315
   192   1 H        0.924     0.078     2.001     2.212
   193   1 H        0.925     0.060     2.198     2.318
   194   1 H        0.925     0.066     2.126     2.280
   195   1 H        0.925     0.057     2.239     2.340
   196   1 H        0.924     0.062     2.174     2.306
   197   1 H        0.924     0.078     2.001     2.212
   198   1 H        0.925     0.072     2.065     2.247
   199   1 H        0.925     0.060     2.203     2.321
   200   1 H        0.925     0.056     2.251     2.346
   201   1 H        0.925     0.075     2.028     2.227
   202   1 H        0.925     0.073     2.057     2.243
   203   1 H        0.926     0.051     2.310     2.377
   204   1 H        0.926     0.066     2.128     2.281
   205   1 H        0.926     0.077     2.006     2.215
   206   1 H        0.925     0.066     2.128     2.281
   207   1 H        0.925     0.058     2.217     2.328
   208   1 H        0.925     0.058     2.227     2.334
   209   1 H        0.925     0.059     2.210     2.325
   210   1 H        0.925     0.040     2.443     2.444
   211   1 H        0.926     0.072     2.067     2.248
   212   1 H        0.926     0.065     2.145     2.290
   213   1 H        0.926     0.075     2.035     2.231
   214   1 H        0.925     0.055     2.262     2.352
   215   1 H        0.925     0.068     2.111     2.272
   216   1 H        0.925     0.047     2.353     2.399
   217   1 H        0.925     0.031     2.566     2.505
   218   1 H        0.925     0.061     2.187     2.313
   219   1 H        0.926     0.074     2.042     2.235
   220   1 H        0.926     0.056     2.250     2.345
   221   1 H        0.926     0.061     2.185     2.312
   222   1 H        0.926     0.069     2.093     2.262
   223   1 H        0.926     0.080     1.978     2.200
   224   1 H        0.925     0.051     2.311     2.377
   225   1 H        0.925     0.064     2.153     2.295
   226   1 H        0.925     0.037     2.494     2.470
   227   1 H        0.925     0.054     2.267     2.355
   228   1 H        0.925     0.055     2.254     2.348
   229   1 H        0.926     0.073     2.055     2.242
   230   1 H        0.926     0.069     2.101     2.267
   231   1 H        0.926     0.081     1.973     2.196
   232   1 H        0.925     0.061     2.185     2.312
   233   1 H        0.925     0.047     2.353     2.399
   234   1 H        0.925     0.058     2.226     2.333
   235   1 H        0.925     0.046     2.365     2.405
   236   1 H        0.925     0.054     2.274     2.358
   237   1 H        0.926     0.060     2.198     2.318
   238   1 H        0.926     0.054     2.275     2.359
   239   1 H        0.926     0.074     2.039     2.233

 Mol. C6AA /au·bohr⁶  :     953269.751332
 Mol. C8AA /au·bohr⁸  :   27215509.502777
 Mol. α(0) /au        :       1556.399922


Wiberg/Mayer (AO) data.
largest (>0.10) Wiberg bond orders for each atom

 ---------------------------------------------------------------------------
     #   Z sym  total        # sym  WBO       # sym  WBO       # sym  WBO
 ---------------------------------------------------------------------------
     1   6 C    3.924 --     2 C    1.679    29 S    1.148   148 H    0.966
     2   6 C    3.979 --     1 C    1.679     3 C    1.196   149 H    0.959
     3   6 C    3.963 --     4 C    1.295    28 C    1.258     2 C    1.196
     4   6 C    3.979 --    15 C    1.380     3 C    1.295     5 C    1.050
     5   6 C    3.986 --     6 C    1.381    14 C    1.365     4 C    1.050
     6   6 C    3.985 --     7 C    1.454     5 C    1.381   150 H    0.964
     7   6 C    3.985 --     6 C    1.454     8 C    1.380   151 H    0.960
     8   6 C    3.961 --     7 C    1.380    12 C    1.331     9 S    1.059
     9  16 S    2.262 --     8 C    1.059    10 C    0.977
    10   6 C    3.966 --    11 C    1.026     9 S    0.977   152 H    0.968
                           153 H    0.967
    11   6 C    3.990 --    10 C    1.026   154 H    0.986   156 H    0.983
                           155 H    0.976
    12   6 C    3.870 --    14 C    1.430     8 C    1.331    13 F    0.936
    13   9 F    1.067 --    12 C    0.936
    14   6 C    3.982 --    12 C    1.430     5 C    1.365   157 H    0.957
    15   6 C    3.938 --     4 C    1.380    16 C    1.243    32 S    1.097
    16   6 C    3.980 --    17 C    1.283    15 C    1.243    30 C    1.237
    17   6 C    3.951 --    28 C    1.385    16 C    1.283    18 C    1.040
    18   6 C    3.985 --    26 C    1.386    19 C    1.372    17 C    1.040
    19   6 C    3.985 --    20 C    1.469    18 C    1.372   158 H    0.962
    20   6 C    3.984 --    19 C    1.469    21 C    1.372   159 H    0.957
                            26 C    0.102
    21   6 C    3.962 --    20 C    1.372    25 C    1.352    22 S    1.053
    22  16 S    2.231 --    21 C    1.053    23 C    0.967
    23   6 C    3.968 --    24 C    1.026   161 H    0.977   160 H    0.976
                            22 S    0.967
    24   6 C    3.990 --    23 C    1.026   162 H    0.983   164 H    0.983
                           163 H    0.977
    25   6 C    3.867 --    26 C    1.412    21 C    1.352    27 F    0.930
    26   6 C    3.981 --    25 C    1.412    18 C    1.386   165 H    0.962
                            20 C    0.102
    27   9 F    1.054 --    25 C    0.930
    28   6 C    3.951 --    17 C    1.385     3 C    1.258    29 S    1.098
    29  16 S    2.525 --     1 C    1.148    28 C    1.098
    30   6 C    3.929 --    31 C    1.507    16 C    1.237   166 H    0.956
    31   6 C    3.944 --    30 C    1.507    33 C    1.196    32 S    1.084
    32  16 S    2.540 --    15 C    1.097    31 C    1.084
    33   6 C    3.898 --    37 C    1.325    31 C    1.196    34 S    1.134
    34  16 S    2.630 --    33 C    1.134    35 C    1.123
    35   6 C    3.920 --    36 C    1.298    48 C    1.269    34 S    1.123
    36   6 C    3.945 --    35 C    1.298    47 N    1.220    37 C    1.198
    37   6 C    3.958 --    33 C    1.325    38 N    1.212    36 C    1.198
    38   7 N    3.061 --    39 C    1.508    37 C    1.212    40 O    0.115
    39   6 C    3.927 --    38 N    1.508    40 O    1.146    43 C    1.067
    40   8 O    2.291 --    39 C    1.146    41 C    0.927    38 N    0.115
    41   6 C    3.912 --    42 C    1.010   167 H    0.969   168 H    0.966
                            40 O    0.927
    42   6 C    3.987 --    41 C    1.010   171 H    0.985   170 H    0.984
                           169 H    0.979
    43   6 C    3.921 --    47 N    1.509    44 O    1.141    39 C    1.067
    44   8 O    2.283 --    43 C    1.141    45 C    0.925    47 N    0.116
    45   6 C    3.909 --    46 C    1.011   172 H    0.969   173 H    0.955
                            44 O    0.925
    46   6 C    3.987 --    45 C    1.011   175 H    0.985   174 H    0.984
                           176 H    0.980
    47   7 N    3.037 --    43 C    1.509    36 C    1.220    44 O    0.116
    48   6 C    3.931 --    49 C    1.544    35 C    1.269   177 H    0.947
    49   6 C    3.940 --    48 C    1.544    50 C    1.271   178 H    0.947
    50   6 C    3.914 --    54 C    1.288    49 C    1.271    51 S    1.128
    51  16 S    2.623 --    50 C    1.128    52 C    1.120
    52   6 C    3.901 --    53 C    1.311    65 C    1.234    51 S    1.120
    53   6 C    3.962 --    52 C    1.311    64 N    1.211    54 C    1.204
    54   6 C    3.947 --    50 C    1.288    55 N    1.226    53 C    1.204
    55   7 N    3.035 --    56 C    1.503    54 C    1.226    57 O    0.116
    56   6 C    3.923 --    55 N    1.503    57 O    1.140    60 C    1.076
    57   8 O    2.280 --    56 C    1.140    58 C    0.925    55 N    0.116
    58   6 C    3.912 --    59 C    1.016   179 H    0.967   180 H    0.960
                            57 O    0.925
    59   6 C    3.985 --    58 C    1.016   183 H    0.985   181 H    0.983
                           182 H    0.980
    60   6 C    3.939 --    64 N    1.498    61 O    1.145    56 C    1.076
    61   8 O    2.291 --    60 C    1.145    62 C    0.926    64 N    0.114
    62   6 C    3.911 --    63 C    1.012   185 H    0.967   184 H    0.965
                            61 O    0.926
    63   6 C    3.985 --    62 C    1.012   186 H    0.983   188 H    0.982
                           187 H    0.982
    64   7 N    3.066 --    60 C    1.498    53 C    1.211    61 O    0.114
    65   6 C    3.946 --    66 C    1.580    52 C    1.234   189 H    0.955
    66   6 C    3.943 --    65 C    1.580    67 C    1.248   190 H    0.946
    67   6 C    3.935 --    71 C    1.292    66 C    1.248    68 S    1.150
    68  16 S    2.736 --    69 C    1.152    67 C    1.150
    69   6 C    3.906 --    70 C    1.324    82 C    1.188    68 S    1.152
    70   6 C    3.967 --    69 C    1.324    81 N    1.216    71 C    1.198
    71   6 C    3.950 --    67 C    1.292    72 N    1.230    70 C    1.198
    72   7 N    3.039 --    73 C    1.505    71 C    1.230    74 O    0.112
    73   6 C    3.920 --    72 N    1.505    74 O    1.132    77 C    1.081
    74   8 O    2.274 --    73 C    1.132    75 C    0.929    72 N    0.112
    75   6 C    3.912 --    76 C    1.011   192 H    0.969   191 H    0.965
                            74 O    0.929
    76   6 C    3.987 --    75 C    1.011   195 H    0.985   193 H    0.981
                           194 H    0.980
    77   6 C    3.930 --    81 N    1.512    78 O    1.133    73 C    1.081
    78   8 O    2.277 --    77 C    1.133    79 C    0.929    81 N    0.114
    79   6 C    3.912 --    80 C    1.011   197 H    0.969   196 H    0.967
                            78 O    0.929
    80   6 C    3.986 --    79 C    1.011   199 H    0.985   200 H    0.984
                           198 H    0.981
    81   7 N    3.032 --    77 C    1.512    70 C    1.216    78 O    0.114
    82   6 C    3.971 --    83 C    1.709    69 C    1.188   201 H    0.952
    83   6 C    3.925 --    82 C    1.709    84 C    1.096   202 H    0.950
    84   6 C    3.932 --    85 C    1.606    83 C    1.096   112 S    1.068
    85   6 C    3.956 --    84 C    1.606    86 C    1.202   203 H    0.960
    86   6 C    3.970 --    87 C    1.299   111 C    1.252    85 C    1.202
    87   6 C    3.967 --    98 C    1.370    86 C    1.299    88 C    1.048
    88   6 C    3.983 --    97 C    1.378    89 C    1.375    87 C    1.048
    89   6 C    3.984 --    90 C    1.462    88 C    1.375   204 H    0.965
    90   6 C    3.985 --    89 C    1.462    91 C    1.384   205 H    0.964
                            97 C    0.101
    91   6 C    3.962 --    90 C    1.384    95 C    1.355    92 S    1.031
    92  16 S    2.178 --    91 C    1.031    93 C    0.967
    93   6 C    3.964 --    94 C    1.027   207 H    0.973   206 H    0.968
                            92 S    0.967
    94   6 C    3.992 --    93 C    1.027   208 H    0.985   210 H    0.985
                           209 H    0.976
    95   6 C    3.875 --    97 C    1.412    91 C    1.355    96 F    0.939
    96   9 F    1.070 --    95 C    0.939
    97   6 C    3.981 --    95 C    1.412    88 C    1.378   211 H    0.955
                            90 C    0.101
    98   6 C    3.946 --    87 C    1.370    99 C    1.256   115 S    1.100
    99   6 C    3.975 --   100 C    1.281    98 C    1.256   113 C    1.221
   100   6 C    3.961 --   111 C    1.377    99 C    1.281   101 C    1.059
   101   6 C    3.987 --   109 C    1.375   102 C    1.367   100 C    1.059
   102   6 C    3.982 --   103 C    1.466   101 C    1.367   212 H    0.956
   103   6 C    3.985 --   102 C    1.466   104 C    1.383   213 H    0.959
   104   6 C    3.960 --   103 C    1.383   108 C    1.354   105 S    1.032
   105  16 S    2.184 --   104 C    1.032   106 C    0.968
   106   6 C    3.969 --   107 C    1.028   214 H    0.974   215 H    0.968
                           105 S    0.968
   107   6 C    3.992 --   106 C    1.028   217 H    0.985   218 H    0.980
                           216 H    0.976
   108   6 C    3.869 --   109 C    1.415   104 C    1.354   110 F    0.936
   109   6 C    3.979 --   108 C    1.415   101 C    1.375   219 H    0.956
   110   9 F    1.065 --   108 C    0.936
   111   6 C    3.950 --   100 C    1.377    86 C    1.252   112 S    1.100
   112  16 S    2.525 --   111 C    1.100    84 C    1.068
   113   6 C    3.956 --   114 C    1.557    99 C    1.221   220 H    0.956
   114   6 C    3.937 --   113 C    1.557   116 C    1.153   115 S    1.077
   115  16 S    2.508 --    98 C    1.100   114 C    1.077
   116   6 C    3.938 --   117 C    1.551   114 C    1.153   144 S    1.081
   117   6 C    3.955 --   116 C    1.551   118 C    1.224   221 H    0.948
   118   6 C    3.982 --   119 C    1.289   143 C    1.248   117 C    1.224
   119   6 C    3.963 --   130 C    1.380   118 C    1.289   120 C    1.046
   120   6 C    3.987 --   129 C    1.388   121 C    1.368   119 C    1.046
   121   6 C    3.984 --   122 C    1.455   120 C    1.368   222 H    0.953
   122   6 C    3.985 --   121 C    1.455   123 C    1.393   223 H    0.964
                           129 C    0.101
   123   6 C    3.962 --   122 C    1.393   127 C    1.363   124 S    1.015
   124  16 S    2.136 --   123 C    1.015   125 C    0.964
   125   6 C    3.970 --   126 C    1.028   224 H    0.975   225 H    0.969
                           124 S    0.964
   126   6 C    3.993 --   125 C    1.028   226 H    0.986   228 H    0.985
                           227 H    0.977
   127   6 C    3.871 --   129 C    1.409   123 C    1.363   128 F    0.940
   128   9 F    1.069 --   127 C    0.940
   129   6 C    3.980 --   127 C    1.409   120 C    1.388   229 H    0.961
                           122 C    0.101
   130   6 C    3.955 --   119 C    1.380   131 C    1.258   147 S    1.106
   131   6 C    3.970 --   132 C    1.299   130 C    1.258   145 C    1.194
   132   6 C    3.980 --   143 C    1.384   131 C    1.299   133 C    1.039
   133   6 C    3.982 --   141 C    1.387   134 C    1.378   132 C    1.039
   134   6 C    3.985 --   135 C    1.458   133 C    1.378   230 H    0.965
   135   6 C    3.984 --   134 C    1.458   136 C    1.392   231 H    0.964
                           141 C    0.102
   136   6 C    3.964 --   135 C    1.392   140 C    1.362   137 S    1.018
   137  16 S    2.144 --   136 C    1.018   138 C    0.964
   138   6 C    3.965 --   139 C    1.028   233 H    0.973   232 H    0.970
                           137 S    0.964
   139   6 C    3.992 --   138 C    1.028   235 H    0.985   234 H    0.985
                           236 H    0.977
   140   6 C    3.873 --   141 C    1.410   136 C    1.362   142 F    0.940
   141   6 C    3.983 --   140 C    1.410   133 C    1.387   237 H    0.957
                           135 C    0.102
   142   9 F    1.072 --   140 C    0.940
   143   6 C    3.945 --   132 C    1.384   118 C    1.248   144 S    1.091
   144  16 S    2.481 --   143 C    1.091   116 C    1.081
   145   6 C    3.980 --   146 C    1.682   131 C    1.194   238 H    0.959
   146   6 C    3.929 --   145 C    1.682   147 S    1.150   239 H    0.966
   147  16 S    2.536 --   146 C    1.150   130 C    1.106
   148   1 H    0.994 --     1 C    0.966
   149   1 H    0.996 --     2 C    0.959
   150   1 H    0.996 --     6 C    0.964
   151   1 H    0.994 --     7 C    0.960
   152   1 H    0.996 --    10 C    0.968
   153   1 H    0.995 --    10 C    0.967
   154   1 H    0.997 --    11 C    0.986
   155   1 H    0.996 --    11 C    0.976
   156   1 H    0.998 --    11 C    0.983
   157   1 H    0.996 --    14 C    0.957
   158   1 H    0.996 --    19 C    0.962
   159   1 H    0.994 --    20 C    0.957
   160   1 H    0.996 --    23 C    0.976
   161   1 H    0.997 --    23 C    0.977
   162   1 H    0.997 --    24 C    0.983
   163   1 H    0.996 --    24 C    0.977
   164   1 H    0.997 --    24 C    0.983
   165   1 H    0.995 --    26 C    0.962
   166   1 H    0.997 --    30 C    0.956
   167   1 H    0.993 --    41 C    0.969
   168   1 H    0.997 --    41 C    0.966
   169   1 H    0.996 --    42 C    0.979
   170   1 H    0.997 --    42 C    0.984
   171   1 H    0.996 --    42 C    0.985
   172   1 H    0.993 --    45 C    0.969
   173   1 H    0.995 --    45 C    0.955
   174   1 H    0.997 --    46 C    0.984
   175   1 H    0.996 --    46 C    0.985
   176   1 H    0.994 --    46 C    0.980
   177   1 H    0.994 --    48 C    0.947
   178   1 H    0.994 --    49 C    0.947
   179   1 H    0.996 --    58 C    0.967
   180   1 H    0.996 --    58 C    0.960
   181   1 H    0.995 --    59 C    0.983
   182   1 H    0.994 --    59 C    0.980
   183   1 H    0.996 --    59 C    0.985
   184   1 H    0.991 --    62 C    0.965
   185   1 H    0.997 --    62 C    0.967
   186   1 H    0.994 --    63 C    0.983
   187   1 H    0.995 --    63 C    0.982
   188   1 H    0.997 --    63 C    0.982
   189   1 H    0.993 --    65 C    0.955
   190   1 H    0.993 --    66 C    0.946
   191   1 H    0.995 --    75 C    0.965
   192   1 H    0.993 --    75 C    0.969
   193   1 H    0.996 --    76 C    0.981
   194   1 H    0.995 --    76 C    0.980
   195   1 H    0.997 --    76 C    0.985
   196   1 H    0.995 --    79 C    0.967
   197   1 H    0.993 --    79 C    0.969
   198   1 H    0.994 --    80 C    0.981
   199   1 H    0.996 --    80 C    0.985
   200   1 H    0.997 --    80 C    0.984
   201   1 H    0.992 --    82 C    0.952
   202   1 H    0.990 --    83 C    0.950
   203   1 H    0.997 --    85 C    0.960
   204   1 H    0.995 --    89 C    0.965
   205   1 H    0.993 --    90 C    0.964
   206   1 H    0.995 --    93 C    0.968
   207   1 H    0.997 --    93 C    0.973
   208   1 H    0.997 --    94 C    0.985
   209   1 H    0.996 --    94 C    0.976
   210   1 H    0.998 --    94 C    0.985
   211   1 H    0.995 --    97 C    0.955
   212   1 H    0.996 --   102 C    0.956
   213   1 H    0.994 --   103 C    0.959
   214   1 H    0.997 --   106 C    0.974
   215   1 H    0.995 --   106 C    0.968
   216   1 H    0.998 --   107 C    0.976
   217   1 H    0.999 --   107 C    0.985
   218   1 H    0.996 --   107 C    0.980
   219   1 H    0.994 --   109 C    0.956
   220   1 H    0.996 --   113 C    0.956
   221   1 H    0.996 --   117 C    0.948
   222   1 H    0.995 --   121 C    0.953
   223   1 H    0.993 --   122 C    0.964
   224   1 H    0.997 --   125 C    0.975
   225   1 H    0.995 --   125 C    0.969
   226   1 H    0.999 --   126 C    0.986
   227   1 H    0.997 --   126 C    0.977
   228   1 H    0.997 --   126 C    0.985
   229   1 H    0.995 --   129 C    0.961
   230   1 H    0.995 --   134 C    0.965
   231   1 H    0.993 --   135 C    0.964
   232   1 H    0.996 --   138 C    0.970
   233   1 H    0.998 --   138 C    0.973
   234   1 H    0.997 --   139 C    0.985
   235   1 H    0.998 --   139 C    0.985
   236   1 H    0.997 --   139 C    0.977
   237   1 H    0.996 --   141 C    0.957
   238   1 H    0.997 --   145 C    0.959
   239   1 H    0.994 --   146 C    0.966
 ---------------------------------------------------------------------------

Topologies differ in bond orders
Writing corrected topology to xtbtopo.mol

molecular dipole:
                 x           y           z       tot (Debye)
 q only:       -2.902      -1.258       1.479
   full:       -3.430      -1.102       1.921      10.377
molecular quadrupole (traceless):
                xx          xy          yy          xz          yz          zz
 q only:       -6.881      31.905     -71.248      87.907      55.094      78.129
  q+dip:       -2.925      27.624     -88.137      84.740      62.085      91.063
   full:       -0.960      33.897     -92.603      77.048      57.819      93.563


           -------------------------------------------------
          | TOTAL ENERGY             -410.333403320028 Eh   |
          | GRADIENT NORM               0.030674118423 Eh/α |
          | HOMO-LUMO GAP               0.786822560020 eV   |
           -------------------------------------------------

------------------------------------------------------------------------
 * finished run on 2022/03/08 at 06:02:22.041     
------------------------------------------------------------------------
 total:
 * wall-time:     0 d,  0 h,  0 min,  1.199 sec
 *  cpu-time:     0 d,  0 h,  0 min,  9.478 sec
 * ratio c/w:     7.904 speedup
 SCF:
 * wall-time:     0 d,  0 h,  0 min,  1.077 sec
 *  cpu-time:     0 d,  0 h,  0 min,  8.585 sec
 * ratio c/w:     7.973 speedup

