      -----------------------------------------------------------      
     |                   =====================                   |     
     |                           x T B                           |     
     |                   =====================                   |     
     |                         S. Grimme                         |     
     |          Mulliken Center for Theoretical Chemistry        |     
     |                    University of Bonn                     |     
      -----------------------------------------------------------      

   * xtb version 6.4.1 (unknown) compiled by 'oda6@login1.crc.pitt.edu' on 2021-06-25

   xtb is free software: you can redistribute it and/or modify it under
   the terms of the GNU Lesser General Public License as published by
   the Free Software Foundation, either version 3 of the License, or
   (at your option) any later version.
   
   xtb is distributed in the hope that it will be useful,
   but WITHOUT ANY WARRANTY; without even the implied warranty of
   MERCHANTABILITY or FITNESS FOR A PARTICULAR PURPOSE.  See the
   GNU Lesser General Public License for more details.
   
   Cite this work as:
   * C. Bannwarth, E. Caldeweyher, S. Ehlert, A. Hansen, P. Pracht,
     J. Seibert, S. Spicher, S. Grimme, WIREs Comput. Mol. Sci., 2020, 11,
     e01493. DOI: 10.1002/wcms.1493
   
   for GFN2-xTB:
   * C. Bannwarth, S. Ehlert and S. Grimme., J. Chem. Theory Comput., 2019,
     15, 1652-1671. DOI: 10.1021/acs.jctc.8b01176
   for GFN1-xTB:
   * S. Grimme, C. Bannwarth, P. Shushkov, J. Chem. Theory Comput., 2017,
     13, 1989-2009. DOI: 10.1021/acs.jctc.7b00118
   for GFN0-xTB:
   * P. Pracht, E. Caldeweyher, S. Ehlert, S. Grimme, ChemRxiv, 2019, preprint.
     DOI: 10.26434/chemrxiv.8326202.v1
   for GFN-FF:
   * S. Spicher and S. Grimme, Angew. Chem. Int. Ed., 2020, 59, 15665-15673.
     DOI: 10.1002/anie.202004239
   
   for DFT-D4:
   * E. Caldeweyher, C. Bannwarth and S. Grimme, J. Chem. Phys., 2017,
     147, 034112. DOI: 10.1063/1.4993215
   * E. Caldeweyher, S. Ehlert, A. Hansen, H. Neugebauer, S. Spicher,
     C. Bannwarth and S. Grimme, J. Chem. Phys., 2019, 150, 154122.
     DOI: 10.1063/1.5090222
   * E. Caldeweyher, J.-M. Mewes, S. Ehlert and S. Grimme, Phys. Chem. Chem. Phys.
     2020, 22, 8499-8512. DOI: 10.1039/D0CP00502A
   
   for sTDA-xTB:
   * S. Grimme and C. Bannwarth, J. Chem. Phys., 2016, 145, 054103.
     DOI: 10.1063/1.4959605
   
   in the mass-spec context:
   * V. Asgeirsson, C. Bauer and S. Grimme, Chem. Sci., 2017, 8, 4879.
     DOI: 10.1039/c7sc00601b
   * J. Koopman and S. Grimme, ACS Omega 2019, 4, 12, 15120-15133.
     DOI: 10.1021/acsomega.9b02011
   
   for metadynamics refer to:
   * S. Grimme, J. Chem. Theory Comput., 2019, 155, 2847-2862
     DOI: 10.1021/acs.jctc.9b00143
   
   for SPH calculations refer to:
   * S. Spicher and S. Grimme, J. Chem. Theory Comput., 2021, 17, 1701-1714
     DOI: 10.1021/acs.jctc.0c01306
   
   with help from (in alphabetical order)
   P. Atkinson, C. Bannwarth, F. Bohle, G. Brandenburg, E. Caldeweyher
   M. Checinski, S. Dohm, S. Ehlert, S. Ehrlich, I. Gerasimov, J. Koopman
   C. Lavigne, S. Lehtola, F. März, M. Müller, F. Musil, H. Neugebauer
   J. Pisarek, C. Plett, P. Pracht, J. Seibert, P. Shushkov, S. Spicher
   M. Stahn, M. Steiner, T. Strunk, J. Stückrath, T. Rose, and J. Unsleber
   
 * started run on 2022/03/03 at 13:52:16.586     

           -------------------------------------------------
          |                Calculation Setup                |
           -------------------------------------------------

          program call               : /ihome/ghutchison/oda6/xtb/xtb-641/bin/xtb ../../GFN2_output/1145_99_011100.mol --sp --alpb water
          hostname                   : smp-n90
          coordinate file            : ../../GFN2_output/1145_99_011100.mol
          omp threads                :                     8
          number of atoms            :                   194
          number of electrons        :                   626
          charge                     :                     0
          spin                       :                   0.0
          first test random number   :      0.96276388402792

   ID    Z sym.   atoms
    1    6 C      1, 3-5, 7, 9-18, 20-22, 24-31, 33-36, 38, 40, 41, 43-50,
                  52-54, 56-63, 65-68, 70, 72, 73, 75-82, 84-86, 88-95,
                  97-100, 102, 104, 105, 107, 109-111, 113, 115-117, 119-121,
                  123, 125, 126
    2   16 S      2, 19, 32, 39, 42, 51, 64, 71, 74, 83, 96, 103, 106, 108,
                  118
    3    7 N      6, 8, 112, 114, 122, 124
    4    9 F      23, 37, 55, 69, 87, 101
    5    1 H      127-194

           -------------------------------------------------
          |                 G F N 2 - x T B                 |
           -------------------------------------------------

        Reference                      10.1021/acs.jctc.8b01176
      * Hamiltonian:
        H0-scaling (s, p, d)           1.850000    2.230000    2.230000
        zeta-weighting                 0.500000
      * Dispersion:
        s8                             2.700000
        a1                             0.520000
        a2                             5.000000
        s9                             5.000000
      * Repulsion:
        kExp                           1.500000    1.000000
        rExp                           1.000000
      * Coulomb:
        alpha                          2.000000
        third order                    shell-resolved
        anisotropic                    true
        a3                             3.000000
        a5                             4.000000
        cn-shift                       1.200000
        cn-exp                         4.000000
        max-rad                        5.000000

      * Solvation model:               ALPB
        Solvent                        water
        Parameter file                 internal GFN2-xTB/ALPB
        Dielectric constant                8.0200E+01
        Reference state                gsolv [1 M gas/solution]
        Free energy shift                  1.0808E-03 Eh       6.7819E-01 kcal/mol
        Temperature                        2.9815E+02 K
        Density                            1.0000E+00 kg/L
        Solvent mass                       1.8000E+01 g/mol
        Interaction kernel             P16
        Born radius scaling (c1)           1.4744E+00
        Born radii integrator          GBOBC
        Born offset                        0.0000E+00 a0       0.0000E+00 AA
        H-bond correction              true
        Ion screening                  false
        Surface tension                    1.0000E-05 Eh       1.5569E+01 dyn/cm
        Grid points                               230 per atom

          ...................................................
          :                      SETUP                      :
          :.................................................:
          :  # basis functions                 662          :
          :  # atomic orbitals                 647          :
          :  # shells                          335          :
          :  # electrons                       626          :
          :  max. iterations                   250          :
          :  Hamiltonian                  GFN2-xTB          :
          :  restarted?                      false          :
          :  GBSA solvation                   true          :
          :  PC potential                    false          :
          :  electronic temp.          300.0000000     K    :
          :  accuracy                    1.0000000          :
          :  -> integral cutoff          0.2500000E+02      :
          :  -> integral neglect         0.1000000E-07      :
          :  -> SCF convergence          0.1000000E-05 Eh   :
          :  -> wf. convergence          0.1000000E-03 e    :
          :  Broyden damping             0.4000000          :
          ...................................................

 iter      E             dE          RMSdq      gap      omega  full diag
   1   -346.0060343 -0.346006E+03  0.445E+00    0.98       0.0  T
   2   -346.3207782 -0.314744E+00  0.254E+00    1.09       1.0  T
   3   -346.2889769  0.318013E-01  0.106E+00    1.11       1.0  T
   4   -346.3667756 -0.777987E-01  0.415E-01    1.10       1.0  T
   5   -346.3758243 -0.904869E-02  0.199E-01    1.10       1.0  T
   6   -346.3773163 -0.149202E-02  0.934E-02    1.09       1.0  T
   7   -346.3781162 -0.799904E-03  0.371E-02    1.09       1.0  T
   8   -346.3781721 -0.559121E-04  0.206E-02    1.09       1.0  T
   9   -346.3781891 -0.169882E-04  0.109E-02    1.09       1.0  T
  10   -346.3781922 -0.307122E-05  0.452E-03    1.09       1.6  T
  11   -346.3781936 -0.140876E-05  0.236E-03    1.09       3.0  T
  12   -346.3781936 -0.677182E-07  0.139E-03    1.09       5.2  T
  13   -346.3781938 -0.119855E-06  0.518E-04    1.09      13.9  T
  14   -346.3781938 -0.126341E-07  0.272E-04    1.09      26.4  T

   *** convergence criteria satisfied after 14 iterations ***

         #    Occupation            Energy/Eh            Energy/eV
      -------------------------------------------------------------
         1        2.0000           -0.8363883             -22.7593
       ...           ...                  ...                  ...
       307        2.0000           -0.3685261             -10.0281
       308        2.0000           -0.3681450             -10.0177
       309        2.0000           -0.3649664              -9.9312
       310        2.0000           -0.3637493              -9.8981
       311        2.0000           -0.3620133              -9.8509
       312        2.0000           -0.3564758              -9.7002
       313        2.0000           -0.3473034              -9.4506 (HOMO)
       314                         -0.3072828              -8.3616 (LUMO)
       315                         -0.2990411              -8.1373
       316                         -0.2882718              -7.8443
       317                         -0.2786598              -7.5827
       318                         -0.2704565              -7.3595
       ...                                ...                  ...
       647                          0.7325061              19.9325
      -------------------------------------------------------------
                  HL-Gap            0.0400207 Eh            1.0890 eV
             Fermi-level           -0.3272932 Eh           -8.9061 eV

 SCC (total)                   0 d,  0 h,  0 min,  1.583 sec
 SCC setup                      ...        0 min,  0.009 sec (  0.545%)
 Dispersion                     ...        0 min,  0.009 sec (  0.575%)
 classical contributions        ...        0 min,  0.001 sec (  0.032%)
 integral evaluation            ...        0 min,  0.041 sec (  2.589%)
 iterations                     ...        0 min,  1.402 sec ( 88.566%)
 molecular gradient             ...        0 min,  0.116 sec (  7.359%)
 printout                       ...        0 min,  0.005 sec (  0.330%)

         :::::::::::::::::::::::::::::::::::::::::::::::::::::
         ::                     SUMMARY                     ::
         :::::::::::::::::::::::::::::::::::::::::::::::::::::
         :: total energy            -341.444989611479 Eh    ::
         :: total w/o Gsasa/hb      -341.436586932806 Eh    ::
         :: gradient norm              0.035268532814 Eh/a0 ::
         :: HOMO-LUMO gap              1.089017340068 eV    ::
         ::.................................................::
         :: SCC energy              -346.378193764730 Eh    ::
         :: -> isotropic ES            0.171816788466 Eh    ::
         :: -> anisotropic ES          0.012078881835 Eh    ::
         :: -> anisotropic XC          0.135770763984 Eh    ::
         :: -> dispersion             -0.309230000001 Eh    ::
         :: -> Gsolv                  -0.047964580606 Eh    ::
         ::    -> Gelec               -0.039561901934 Eh    ::
         ::    -> Gsasa                0.004886405105 Eh    ::
         ::    -> Ghb                 -0.014369843476 Eh    ::
         ::    -> Gshift               0.001080759698 Eh    ::
         :: repulsion energy           4.934156929733 Eh    ::
         :: add. restraining           0.000000000000 Eh    ::
         :: total charge              -0.000000000000 e     ::
         :::::::::::::::::::::::::::::::::::::::::::::::::::::

           -------------------------------------------------
          |                Property Printout                |
           -------------------------------------------------

    * Orbital Energies and Occupations

         #    Occupation            Energy/Eh            Energy/eV
      -------------------------------------------------------------
         1        2.0000           -0.8363883             -22.7593
       ...           ...                  ...                  ...
       301        2.0000           -0.3856685             -10.4946
       302        2.0000           -0.3832855             -10.4297
       303        2.0000           -0.3769745             -10.2580
       304        2.0000           -0.3737271             -10.1696
       305        2.0000           -0.3731206             -10.1531
       306        2.0000           -0.3694252             -10.0526
       307        2.0000           -0.3685261             -10.0281
       308        2.0000           -0.3681450             -10.0177
       309        2.0000           -0.3649664              -9.9312
       310        2.0000           -0.3637493              -9.8981
       311        2.0000           -0.3620133              -9.8509
       312        2.0000           -0.3564758              -9.7002
       313        2.0000           -0.3473034              -9.4506 (HOMO)
       314                         -0.3072828              -8.3616 (LUMO)
       315                         -0.2990411              -8.1373
       316                         -0.2882718              -7.8443
       317                         -0.2786598              -7.5827
       318                         -0.2704565              -7.3595
       319                         -0.2663638              -7.2481
       320                         -0.2643692              -7.1939
       321                         -0.2610050              -7.1023
       322                         -0.2502580              -6.8099
       323                         -0.2477579              -6.7418
       324                         -0.2461348              -6.6977
       ...                                ...                  ...
       647                          0.7325061              19.9325
      -------------------------------------------------------------
                  HL-Gap            0.0400207 Eh            1.0890 eV
             Fermi-level           -0.3272932 Eh           -8.9061 eV

     #   Z          covCN         q      C6AA      α(0)
     1   6 C        2.914    -0.058    29.440     8.897
     2  16 S        2.400    -0.036   142.545    20.095
     3   6 C        2.970     0.004    27.933     8.669
     4   6 C        3.409     0.053    22.902     7.366
     5   6 C        3.302     0.037    25.423     8.069
     6   7 N        2.762    -0.139    24.000     7.276
     7   6 C        3.156     0.115    25.179     8.205
     8   7 N        1.877    -0.300    28.634     7.932
     9   6 C        2.930    -0.037    28.921     8.819
    10   6 C        2.921    -0.048    29.185     8.859
    11   6 C        2.981     0.047    26.943     8.514
    12   6 C        3.076    -0.060    29.399     8.890
    13   6 C        3.139    -0.001    27.805     8.630
    14   6 C        2.996    -0.006    28.171     8.707
    15   6 C        2.979     0.013    27.723     8.637
    16   6 C        2.923    -0.040    29.002     8.831
    17   6 C        2.943    -0.048    29.195     8.862
    18   6 C        2.961     0.029    27.352     8.578
    19  16 S        2.076    -0.161   147.843    20.465
    20   6 C        3.793    -0.007    20.719     6.482
    21   6 C        3.799    -0.118    22.760     6.793
    22   6 C        2.848     0.157    24.594     8.128
    23   9 F        0.788    -0.255    11.814     4.060
    24   6 C        2.923    -0.055    29.361     8.886
    25   6 C        3.009     0.025    27.426     8.591
    26   6 C        3.134    -0.005    27.918     8.649
    27   6 C        2.995    -0.006    28.158     8.705
    28   6 C        2.978     0.013    27.721     8.637
    29   6 C        2.924    -0.041    29.008     8.832
    30   6 C        2.942    -0.045    29.119     8.850
    31   6 C        2.960     0.031    27.298     8.570
    32  16 S        2.053    -0.170   148.242    20.492
    33   6 C        3.793    -0.009    20.753     6.487
    34   6 C        3.778    -0.117    22.759     6.797
    35   6 C        2.845     0.157    24.601     8.129
    36   6 C        2.922    -0.056    29.382     8.889
    37   9 F        0.787    -0.259    11.864     4.069
    38   6 C        3.007     0.026    27.407     8.588
    39  16 S        2.286    -0.070   143.984    20.196
    40   6 C        3.061    -0.053    29.263     8.871
    41   6 C        3.011     0.027    27.371     8.582
    42  16 S        2.285    -0.090   144.807    20.253
    43   6 C        3.027     0.029    27.316     8.573
    44   6 C        3.071    -0.055    29.294     8.874
    45   6 C        3.134    -0.002    27.863     8.640
    46   6 C        2.991    -0.004    28.115     8.698
    47   6 C        2.978     0.012    27.733     8.638
    48   6 C        2.924    -0.041    29.014     8.833
    49   6 C        2.945    -0.044    29.084     8.845
    50   6 C        2.961     0.033    27.263     8.564
    51  16 S        2.048    -0.171   148.287    20.495
    52   6 C        3.793    -0.008    20.727     6.483
    53   6 C        3.777    -0.106    22.553     6.766
    54   6 C        2.839     0.160    24.543     8.119
    55   9 F        0.787    -0.255    11.824     4.062
    56   6 C        2.922    -0.055    29.362     8.886
    57   6 C        3.006     0.026    27.407     8.588
    58   6 C        3.132    -0.002    27.872     8.643
    59   6 C        2.990    -0.004    28.117     8.698
    60   6 C        2.977     0.012    27.731     8.638
    61   6 C        2.923    -0.040    28.999     8.831
    62   6 C        2.943    -0.044    29.092     8.846
    63   6 C        2.960     0.032    27.282     8.567
    64  16 S        2.053    -0.168   148.169    20.487
    65   6 C        3.793    -0.009    20.742     6.486
    66   6 C        3.779    -0.114    22.710     6.789
    67   6 C        2.843     0.157    24.589     8.127
    68   6 C        2.923    -0.055    29.379     8.889
    69   9 F        0.787    -0.253    11.792     4.056
    70   6 C        3.006     0.025    27.421     8.590
    71  16 S        2.261    -0.073   144.092    20.203
    72   6 C        3.071    -0.055    29.289     8.874
    73   6 C        3.030     0.029    27.326     8.574
    74  16 S        2.259    -0.075   144.178    20.209
    75   6 C        3.012     0.028    27.356     8.580
    76   6 C        3.060    -0.055    29.297     8.876
    77   6 C        3.136    -0.005    27.914     8.648
    78   6 C        2.994    -0.006    28.169     8.706
    79   6 C        2.978     0.014    27.686     8.631
    80   6 C        2.922    -0.038    28.946     8.823
    81   6 C        2.986    -0.042    29.037     8.839
    82   6 C        2.959     0.030    27.327     8.574
    83  16 S        2.069    -0.175   148.465    20.508
    84   6 C        3.792    -0.000    20.593     6.462
    85   6 C        3.797    -0.118    22.760     6.793
    86   6 C        2.802     0.156    24.605     8.126
    87   9 F        0.787    -0.258    11.854     4.067
    88   6 C        2.925    -0.055    29.366     8.887
    89   6 C        3.004     0.025    27.442     8.593
    90   6 C        3.136    -0.002    27.842     8.637
    91   6 C        2.998    -0.009    28.222     8.714
    92   6 C        2.979     0.012    27.738     8.639
    93   6 C        2.925    -0.040    29.005     8.832
    94   6 C        2.947    -0.042    29.048     8.840
    95   6 C        2.961     0.033    27.264     8.564
    96  16 S        2.047    -0.172   148.320    20.498
    97   6 C        3.793    -0.008    20.728     6.483
    98   6 C        3.777    -0.108    22.592     6.772
    99   6 C        2.836     0.159    24.554     8.120
   100   6 C        2.922    -0.056    29.380     8.889
   101   9 F        0.787    -0.256    11.828     4.062
   102   6 C        3.009     0.025    27.421     8.590
   103  16 S        2.291    -0.084   144.565    20.236
   104   6 C        3.060    -0.064    29.523     8.910
   105   6 C        3.009     0.030    27.308     8.572
   106  16 S        2.275    -0.102   145.301    20.288
   107   6 C        3.004    -0.011    28.285     8.724
   108  16 S        2.371    -0.065   143.753    20.180
   109   6 C        2.972     0.014    27.686     8.631
   110   6 C        3.407     0.047    23.057     7.395
   111   6 C        3.279     0.034    25.849     8.182
   112   7 N        2.769    -0.119    23.578     7.212
   113   6 C        3.168     0.109    25.267     8.213
   114   7 N        1.876    -0.297    28.540     7.919
   115   6 C        2.922    -0.049    29.224     8.865
   116   6 C        2.933    -0.039    28.969     8.827
   117   6 C        2.967     0.002    27.974     8.676
   118  16 S        2.408    -0.049   143.068    20.131
   119   6 C        2.976     0.012    27.740     8.639
   120   6 C        3.415     0.050    22.819     7.333
   121   6 C        3.282     0.031    25.872     8.181
   122   7 N        2.770    -0.119    23.580     7.212
   123   6 C        3.163     0.109    25.292     8.220
   124   7 N        1.875    -0.295    28.489     7.912
   125   6 C        2.920    -0.034    28.847     8.808
   126   6 C        2.844    -0.096    30.411     9.038
   127   1 H        0.927     0.066     2.128     2.281
   128   1 H        0.860     0.224     0.992     1.560
   129   1 H        0.926     0.052     2.292     2.368
   130   1 H        0.925     0.058     2.220     2.330
   131   1 H        0.925     0.062     2.170     2.304
   132   1 H        0.926     0.052     2.295     2.369
   133   1 H        0.926     0.065     2.146     2.291
   134   1 H        0.926     0.066     2.135     2.285
   135   1 H        0.925     0.061     2.184     2.311
   136   1 H        0.925     0.062     2.174     2.306
   137   1 H        0.925     0.056     2.250     2.346
   138   1 H        0.925     0.063     2.165     2.301
   139   1 H        0.925     0.056     2.243     2.342
   140   1 H        0.926     0.068     2.103     2.268
   141   1 H        0.926     0.067     2.119     2.276
   142   1 H        0.926     0.071     2.071     2.250
   143   1 H        0.925     0.065     2.146     2.291
   144   1 H        0.925     0.071     2.077     2.254
   145   1 H        0.925     0.055     2.256     2.349
   146   1 H        0.925     0.052     2.296     2.370
   147   1 H        0.925     0.061     2.187     2.313
   148   1 H        0.926     0.063     2.161     2.299
   149   1 H        0.926     0.052     2.291     2.367
   150   1 H        0.926     0.055     2.260     2.351
   151   1 H        0.926     0.065     2.141     2.288
   152   1 H        0.926     0.069     2.099     2.265
   153   1 H        0.925     0.062     2.171     2.304
   154   1 H        0.925     0.072     2.061     2.245
   155   1 H        0.925     0.053     2.278     2.360
   156   1 H        0.925     0.043     2.407     2.426
   157   1 H        0.925     0.058     2.218     2.329
   158   1 H        0.926     0.067     2.116     2.275
   159   1 H        0.926     0.065     2.141     2.288
   160   1 H        0.926     0.070     2.081     2.256
   161   1 H        0.925     0.063     2.160     2.298
   162   1 H        0.925     0.071     2.069     2.250
   163   1 H        0.925     0.061     2.189     2.314
   164   1 H        0.925     0.053     2.279     2.361
   165   1 H        0.925     0.049     2.333     2.388
   166   1 H        0.926     0.067     2.117     2.275
   167   1 H        0.926     0.056     2.250     2.345
   168   1 H        0.926     0.054     2.265     2.353
   169   1 H        0.926     0.065     2.139     2.287
   170   1 H        0.926     0.072     2.059     2.244
   171   1 H        0.925     0.058     2.225     2.332
   172   1 H        0.925     0.056     2.245     2.343
   173   1 H        0.925     0.055     2.256     2.349
   174   1 H        0.925     0.062     2.176     2.307
   175   1 H        0.925     0.058     2.221     2.330
   176   1 H        0.926     0.068     2.106     2.269
   177   1 H        0.926     0.064     2.157     2.297
   178   1 H        0.926     0.070     2.090     2.260
   179   1 H        0.925     0.073     2.053     2.240
   180   1 H        0.925     0.062     2.170     2.304
   181   1 H        0.925     0.055     2.264     2.353
   182   1 H        0.925     0.044     2.395     2.420
   183   1 H        0.925     0.059     2.215     2.327
   184   1 H        0.926     0.065     2.138     2.286
   185   1 H        0.926     0.046     2.376     2.411
   186   1 H        0.860     0.216     1.028     1.588
   187   1 H        0.926     0.067     2.113     2.273
   188   1 H        0.926     0.058     2.227     2.334
   189   1 H        0.925     0.055     2.254     2.348
   190   1 H        0.860     0.215     1.032     1.591
   191   1 H        0.926     0.066     2.131     2.283
   192   1 H        0.925     0.052     2.299     2.371
   193   1 H        0.926     0.070     2.081     2.256
   194   1 H        0.926     0.062     2.175     2.306

 Mol. C6AA /au·bohr⁶  :     711185.335890
 Mol. C8AA /au·bohr⁸  :   21108871.559362
 Mol. α(0) /au        :       1357.580699


Wiberg/Mayer (AO) data.
largest (>0.10) Wiberg bond orders for each atom

 ---------------------------------------------------------------------------
     #   Z sym  total        # sym  WBO       # sym  WBO       # sym  WBO
 ---------------------------------------------------------------------------
     1   6 C    3.914 --     5 C    1.501     2 S    1.187   127 H    0.966
                             3 C    0.123
     2  16 S    2.604 --     1 C    1.187     3 C    1.132
     3   6 C    3.943 --     4 C    1.401     9 C    1.168     2 S    1.132
                             1 C    0.123
     4   6 C    3.971 --     3 C    1.401     8 N    1.186     5 C    1.159
     5   6 C    3.959 --     1 C    1.501     4 C    1.159     6 N    1.140
     6   7 N    3.530 --     7 C    1.228     5 C    1.140   128 H    0.922
                             8 N    0.131
     7   6 C    3.960 --     8 N    1.597     6 N    1.228   129 H    0.962
     8   7 N    3.025 --     7 C    1.597     4 C    1.186     6 N    0.131
     9   6 C    3.965 --    10 C    1.706     3 C    1.168   130 H    0.959
    10   6 C    3.982 --     9 C    1.706    11 C    1.136   131 H    0.952
    11   6 C    3.935 --    12 C    1.563    10 C    1.136    39 S    1.091
    12   6 C    3.958 --    11 C    1.563    13 C    1.224   132 H    0.959
    13   6 C    3.970 --    14 C    1.291    38 C    1.242    12 C    1.224
    14   6 C    3.964 --    25 C    1.383    13 C    1.291    15 C    1.042
    15   6 C    3.987 --    16 C    1.387    24 C    1.365    14 C    1.042
    16   6 C    3.985 --    17 C    1.450    15 C    1.387   133 H    0.965
    17   6 C    3.985 --    16 C    1.450    18 C    1.379   134 H    0.962
    18   6 C    3.961 --    17 C    1.379    22 C    1.327    19 S    1.070
    19  16 S    2.279 --    18 C    1.070    20 C    0.975
    20   6 C    3.969 --    21 C    1.024    19 S    0.975   135 H    0.973
                           136 H    0.973
    21   6 C    3.990 --    20 C    1.024   139 H    0.985   137 H    0.985
                           138 H    0.977
    22   6 C    3.866 --    24 C    1.435    18 C    1.327    23 F    0.932
    23   9 F    1.063 --    22 C    0.932
    24   6 C    3.981 --    22 C    1.435    15 C    1.365   140 H    0.961
    25   6 C    3.943 --    14 C    1.383    26 C    1.249    42 S    1.093
    26   6 C    3.970 --    27 C    1.286    25 C    1.249    40 C    1.222
    27   6 C    3.961 --    38 C    1.384    26 C    1.286    28 C    1.045
    28   6 C    3.987 --    29 C    1.383    36 C    1.368    27 C    1.045
    29   6 C    3.983 --    30 C    1.451    28 C    1.383   141 H    0.962
    30   6 C    3.985 --    29 C    1.451    31 C    1.381   142 H    0.959
    31   6 C    3.961 --    30 C    1.381    35 C    1.330    32 S    1.064
    32  16 S    2.276 --    31 C    1.064    33 C    0.979
    33   6 C    3.966 --    34 C    1.026    32 S    0.979   143 H    0.967
                           144 H    0.967
    34   6 C    3.990 --    33 C    1.026   145 H    0.986   146 H    0.983
                           147 H    0.977
    35   6 C    3.864 --    36 C    1.433    31 C    1.330    37 F    0.929
    36   6 C    3.982 --    35 C    1.433    28 C    1.368   148 H    0.963
    37   9 F    1.058 --    35 C    0.929
    38   6 C    3.949 --    27 C    1.384    13 C    1.242    39 S    1.109
    39  16 S    2.535 --    38 C    1.109    11 C    1.091
    40   6 C    3.954 --    41 C    1.552    26 C    1.222   149 H    0.956
    41   6 C    3.934 --    40 C    1.552    43 C    1.157    42 S    1.076
    42  16 S    2.488 --    25 C    1.093    41 C    1.076
    43   6 C    3.933 --    44 C    1.548    41 C    1.157    71 S    1.082
    44   6 C    3.954 --    43 C    1.548    45 C    1.228   150 H    0.951
    45   6 C    3.969 --    46 C    1.280    70 C    1.248    44 C    1.228
    46   6 C    3.960 --    57 C    1.388    45 C    1.280    47 C    1.048
    47   6 C    3.986 --    48 C    1.375    56 C    1.372    46 C    1.048
    48   6 C    3.985 --    49 C    1.458    47 C    1.375   151 H    0.964
    49   6 C    3.985 --    48 C    1.458    50 C    1.377   152 H    0.960
    50   6 C    3.960 --    49 C    1.377    54 C    1.334    51 S    1.063
    51  16 S    2.267 --    50 C    1.063    52 C    0.977
    52   6 C    3.966 --    53 C    1.027    51 S    0.977   153 H    0.968
                           154 H    0.966
    53   6 C    3.991 --    52 C    1.027   155 H    0.986   156 H    0.984
                           157 H    0.975
    54   6 C    3.866 --    56 C    1.427    50 C    1.334    55 F    0.934
    55   9 F    1.063 --    54 C    0.934
    56   6 C    3.980 --    54 C    1.427    47 C    1.372   158 H    0.961
    57   6 C    3.943 --    46 C    1.388    58 C    1.246    74 S    1.095
    58   6 C    3.970 --    59 C    1.280    57 C    1.246    72 C    1.231
    59   6 C    3.960 --    70 C    1.388    58 C    1.280    60 C    1.049
    60   6 C    3.986 --    61 C    1.383    68 C    1.364    59 C    1.049
    61   6 C    3.983 --    62 C    1.451    60 C    1.383   159 H    0.963
    62   6 C    3.985 --    61 C    1.451    63 C    1.382   160 H    0.959
    63   6 C    3.961 --    62 C    1.382    67 C    1.330    64 S    1.062
    64  16 S    2.271 --    63 C    1.062    65 C    0.978
    65   6 C    3.966 --    66 C    1.027    64 S    0.978   161 H    0.968
                           162 H    0.967
    66   6 C    3.990 --    65 C    1.027   164 H    0.986   165 H    0.983
                           163 H    0.976
    67   6 C    3.868 --    68 C    1.434    63 C    1.330    69 F    0.935
    68   6 C    3.982 --    67 C    1.434    60 C    1.364   166 H    0.962
    69   9 F    1.065 --    67 C    0.935
    70   6 C    3.945 --    59 C    1.388    45 C    1.248    71 S    1.094
    71  16 S    2.484 --    70 C    1.094    43 C    1.082
    72   6 C    3.953 --    73 C    1.544    58 C    1.231   167 H    0.952
    73   6 C    3.932 --    72 C    1.544    75 C    1.156    74 S    1.084
    74  16 S    2.485 --    57 C    1.095    73 C    1.084
    75   6 C    3.929 --    76 C    1.548    73 C    1.156   103 S    1.077
    76   6 C    3.953 --    75 C    1.548    77 C    1.227   168 H    0.956
    77   6 C    3.963 --    78 C    1.275   102 C    1.251    76 C    1.227
    78   6 C    3.961 --    89 C    1.399    77 C    1.275    79 C    1.045
    79   6 C    3.986 --    88 C    1.384    80 C    1.367    78 C    1.045
    80   6 C    3.985 --    81 C    1.474    79 C    1.367   169 H    0.964
    81   6 C    3.985 --    80 C    1.474    82 C    1.365   170 H    0.964
                            88 C    0.101
    82   6 C    3.962 --    81 C    1.365    86 C    1.350    83 S    1.062
    83  16 S    2.242 --    82 C    1.062    84 C    0.968
    84   6 C    3.967 --    85 C    1.025   171 H    0.976   172 H    0.975
                            83 S    0.968
    85   6 C    3.990 --    84 C    1.025   175 H    0.985   173 H    0.985
                           174 H    0.977
    86   6 C    3.868 --    88 C    1.412    82 C    1.350    87 F    0.930
    87   9 F    1.054 --    86 C    0.930
    88   6 C    3.981 --    86 C    1.412    79 C    1.384   176 H    0.961
                            81 C    0.101
    89   6 C    3.936 --    78 C    1.399    90 C    1.241   106 S    1.082
    90   6 C    3.969 --    91 C    1.283    89 C    1.241   104 C    1.237
    91   6 C    3.952 --   102 C    1.381    90 C    1.283    92 C    1.046
    92   6 C    3.985 --    93 C    1.375   100 C    1.372    91 C    1.046
    93   6 C    3.983 --    94 C    1.457    92 C    1.375   177 H    0.963
    94   6 C    3.985 --    93 C    1.457    95 C    1.378   178 H    0.960
    95   6 C    3.962 --    94 C    1.378    99 C    1.335    96 S    1.062
    96  16 S    2.262 --    95 C    1.062    97 C    0.976
    97   6 C    3.966 --    98 C    1.027    96 S    0.976   180 H    0.968
                           179 H    0.966
    98   6 C    3.991 --    97 C    1.027   181 H    0.986   182 H    0.983
                           183 H    0.974
    99   6 C    3.866 --   100 C    1.427    95 C    1.335   101 F    0.933
   100   6 C    3.982 --    99 C    1.427    92 C    1.372   184 H    0.963
   101   9 F    1.062 --    99 C    0.933
   102   6 C    3.945 --    91 C    1.381    77 C    1.251   103 S    1.096
   103  16 S    2.496 --   102 C    1.096    75 C    1.077
   104   6 C    3.934 --   105 C    1.512    90 C    1.237   185 H    0.957
   105   6 C    3.931 --   104 C    1.512   107 C    1.205   106 S    1.065
   106  16 S    2.453 --    89 C    1.082   105 C    1.065
   107   6 C    3.893 --   111 C    1.361   105 C    1.205   108 S    1.090
   108  16 S    2.519 --   109 C    1.117   107 C    1.090
   109   6 C    3.923 --   110 C    1.333   115 C    1.247   108 S    1.117
   110   6 C    3.940 --   109 C    1.333   111 C    1.203   114 N    1.200
   111   6 C    3.943 --   107 C    1.361   110 C    1.203   112 N    1.166
   112   7 N    3.548 --   113 C    1.224   111 C    1.166   186 H    0.923
                           114 N    0.121
   113   6 C    3.931 --   114 N    1.594   112 N    1.224   187 H    0.961
   114   7 N    3.011 --   113 C    1.594   110 C    1.200   112 N    0.121
   115   6 C    3.956 --   116 C    1.572   109 C    1.247   188 H    0.950
   116   6 C    3.941 --   115 C    1.572   117 C    1.246   189 H    0.957
   117   6 C    3.934 --   121 C    1.344   116 C    1.246   118 S    1.103
   118  16 S    2.563 --   119 C    1.152   117 C    1.103
   119   6 C    3.895 --   120 C    1.358   125 C    1.165   118 S    1.152
   120   6 C    3.973 --   119 C    1.358   121 C    1.204   124 N    1.195
   121   6 C    3.926 --   117 C    1.344   120 C    1.204   122 N    1.167
   122   7 N    3.548 --   123 C    1.225   121 C    1.167   190 H    0.921
                           124 N    0.121
   123   6 C    3.956 --   124 N    1.599   122 N    1.225   191 H    0.961
   124   7 N    3.014 --   123 C    1.599   120 C    1.195   122 N    0.121
   125   6 C    3.986 --   126 C    1.819   119 C    1.165   192 H    0.963
   126   6 C    3.928 --   125 C    1.819   194 H    0.976   193 H    0.972
   127   1 H    0.995 --     1 C    0.966
   128   1 H    0.949 --     6 N    0.922
   129   1 H    0.996 --     7 C    0.962
   130   1 H    0.995 --     9 C    0.959
   131   1 H    0.994 --    10 C    0.952
   132   1 H    0.997 --    12 C    0.959
   133   1 H    0.996 --    16 C    0.965
   134   1 H    0.995 --    17 C    0.962
   135   1 H    0.996 --    20 C    0.973
   136   1 H    0.996 --    20 C    0.973
   137   1 H    0.997 --    21 C    0.985
   138   1 H    0.996 --    21 C    0.977
   139   1 H    0.997 --    21 C    0.985
   140   1 H    0.995 --    24 C    0.961
   141   1 H    0.995 --    29 C    0.962
   142   1 H    0.994 --    30 C    0.959
   143   1 H    0.996 --    33 C    0.967
   144   1 H    0.995 --    33 C    0.967
   145   1 H    0.997 --    34 C    0.986
   146   1 H    0.997 --    34 C    0.983
   147   1 H    0.996 --    34 C    0.977
   148   1 H    0.995 --    36 C    0.963
   149   1 H    0.997 --    40 C    0.956
   150   1 H    0.996 --    44 C    0.951
   151   1 H    0.996 --    48 C    0.964
   152   1 H    0.995 --    49 C    0.960
   153   1 H    0.996 --    52 C    0.968
   154   1 H    0.994 --    52 C    0.966
   155   1 H    0.997 --    53 C    0.986
   156   1 H    0.998 --    53 C    0.984
   157   1 H    0.996 --    53 C    0.975
   158   1 H    0.995 --    56 C    0.961
   159   1 H    0.996 --    61 C    0.963
   160   1 H    0.994 --    62 C    0.959
   161   1 H    0.996 --    65 C    0.968
   162   1 H    0.995 --    65 C    0.967
   163   1 H    0.996 --    66 C    0.976
   164   1 H    0.997 --    66 C    0.986
   165   1 H    0.998 --    66 C    0.983
   166   1 H    0.995 --    68 C    0.962
   167   1 H    0.996 --    72 C    0.952
   168   1 H    0.996 --    76 C    0.956
   169   1 H    0.995 --    80 C    0.964
   170   1 H    0.994 --    81 C    0.964
   171   1 H    0.996 --    84 C    0.976
   172   1 H    0.997 --    84 C    0.975
   173   1 H    0.997 --    85 C    0.985
   174   1 H    0.995 --    85 C    0.977
   175   1 H    0.997 --    85 C    0.985
   176   1 H    0.995 --    88 C    0.961
   177   1 H    0.996 --    93 C    0.963
   178   1 H    0.994 --    94 C    0.960
   179   1 H    0.994 --    97 C    0.966
   180   1 H    0.996 --    97 C    0.968
   181   1 H    0.997 --    98 C    0.986
   182   1 H    0.998 --    98 C    0.983
   183   1 H    0.996 --    98 C    0.974
   184   1 H    0.995 --   100 C    0.963
   185   1 H    0.997 --   104 C    0.957
   186   1 H    0.953 --   112 N    0.923
   187   1 H    0.994 --   113 C    0.961
   188   1 H    0.996 --   115 C    0.950
   189   1 H    0.996 --   116 C    0.957
   190   1 H    0.953 --   122 N    0.921
   191   1 H    0.994 --   123 C    0.961
   192   1 H    0.997 --   125 C    0.963
   193   1 H    0.995 --   126 C    0.972
   194   1 H    0.996 --   126 C    0.976
 ---------------------------------------------------------------------------

Topologies differ in bond orders
Writing corrected topology to xtbtopo.mol

molecular dipole:
                 x           y           z       tot (Debye)
 q only:        3.600      -2.433       3.607
   full:        3.698      -3.070       4.054      15.981
molecular quadrupole (traceless):
                xx          xy          yy          xz          yz          zz
 q only:      132.826     -38.508    -101.732      56.816     -12.379     -31.094
  q+dip:      148.061      -8.291    -149.630      62.295      28.395       1.570
   full:      144.212     -14.046    -154.610      59.856      32.879      10.398


           -------------------------------------------------
          | TOTAL ENERGY             -341.444989611479 Eh   |
          | GRADIENT NORM               0.035268532814 Eh/α |
          | HOMO-LUMO GAP               1.089017340068 eV   |
           -------------------------------------------------

------------------------------------------------------------------------
 * finished run on 2022/03/03 at 13:52:18.497     
------------------------------------------------------------------------
 total:
 * wall-time:     0 d,  0 h,  0 min,  1.911 sec
 *  cpu-time:     0 d,  0 h,  0 min, 12.723 sec
 * ratio c/w:     6.657 speedup
 SCF:
 * wall-time:     0 d,  0 h,  0 min,  1.586 sec
 *  cpu-time:     0 d,  0 h,  0 min, 11.082 sec
 * ratio c/w:     6.987 speedup

