      -----------------------------------------------------------      
     |                   =====================                   |     
     |                           x T B                           |     
     |                   =====================                   |     
     |                         S. Grimme                         |     
     |          Mulliken Center for Theoretical Chemistry        |     
     |                    University of Bonn                     |     
      -----------------------------------------------------------      

   * xtb version 6.4.1 (unknown) compiled by 'oda6@login1.crc.pitt.edu' on 2021-06-25

   xtb is free software: you can redistribute it and/or modify it under
   the terms of the GNU Lesser General Public License as published by
   the Free Software Foundation, either version 3 of the License, or
   (at your option) any later version.
   
   xtb is distributed in the hope that it will be useful,
   but WITHOUT ANY WARRANTY; without even the implied warranty of
   MERCHANTABILITY or FITNESS FOR A PARTICULAR PURPOSE.  See the
   GNU Lesser General Public License for more details.
   
   Cite this work as:
   * C. Bannwarth, E. Caldeweyher, S. Ehlert, A. Hansen, P. Pracht,
     J. Seibert, S. Spicher, S. Grimme, WIREs Comput. Mol. Sci., 2020, 11,
     e01493. DOI: 10.1002/wcms.1493
   
   for GFN2-xTB:
   * C. Bannwarth, S. Ehlert and S. Grimme., J. Chem. Theory Comput., 2019,
     15, 1652-1671. DOI: 10.1021/acs.jctc.8b01176
   for GFN1-xTB:
   * S. Grimme, C. Bannwarth, P. Shushkov, J. Chem. Theory Comput., 2017,
     13, 1989-2009. DOI: 10.1021/acs.jctc.7b00118
   for GFN0-xTB:
   * P. Pracht, E. Caldeweyher, S. Ehlert, S. Grimme, ChemRxiv, 2019, preprint.
     DOI: 10.26434/chemrxiv.8326202.v1
   for GFN-FF:
   * S. Spicher and S. Grimme, Angew. Chem. Int. Ed., 2020, 59, 15665-15673.
     DOI: 10.1002/anie.202004239
   
   for DFT-D4:
   * E. Caldeweyher, C. Bannwarth and S. Grimme, J. Chem. Phys., 2017,
     147, 034112. DOI: 10.1063/1.4993215
   * E. Caldeweyher, S. Ehlert, A. Hansen, H. Neugebauer, S. Spicher,
     C. Bannwarth and S. Grimme, J. Chem. Phys., 2019, 150, 154122.
     DOI: 10.1063/1.5090222
   * E. Caldeweyher, J.-M. Mewes, S. Ehlert and S. Grimme, Phys. Chem. Chem. Phys.
     2020, 22, 8499-8512. DOI: 10.1039/D0CP00502A
   
   for sTDA-xTB:
   * S. Grimme and C. Bannwarth, J. Chem. Phys., 2016, 145, 054103.
     DOI: 10.1063/1.4959605
   
   in the mass-spec context:
   * V. Asgeirsson, C. Bauer and S. Grimme, Chem. Sci., 2017, 8, 4879.
     DOI: 10.1039/c7sc00601b
   * J. Koopman and S. Grimme, ACS Omega 2019, 4, 12, 15120-15133.
     DOI: 10.1021/acsomega.9b02011
   
   for metadynamics refer to:
   * S. Grimme, J. Chem. Theory Comput., 2019, 155, 2847-2862
     DOI: 10.1021/acs.jctc.9b00143
   
   for SPH calculations refer to:
   * S. Spicher and S. Grimme, J. Chem. Theory Comput., 2021, 17, 1701-1714
     DOI: 10.1021/acs.jctc.0c01306
   
   with help from (in alphabetical order)
   P. Atkinson, C. Bannwarth, F. Bohle, G. Brandenburg, E. Caldeweyher
   M. Checinski, S. Dohm, S. Ehlert, S. Ehrlich, I. Gerasimov, J. Koopman
   C. Lavigne, S. Lehtola, F. März, M. Müller, F. Musil, H. Neugebauer
   J. Pisarek, C. Plett, P. Pracht, J. Seibert, P. Shushkov, S. Spicher
   M. Stahn, M. Steiner, T. Strunk, J. Stückrath, T. Rose, and J. Unsleber
   
 * started run on 2022/03/03 at 05:34:49.680     

           -------------------------------------------------
          |                Calculation Setup                |
           -------------------------------------------------

          program call               : /ihome/ghutchison/oda6/xtb/xtb-641/bin/xtb ../../GFN2_output/17_1173_111011.mol --sp --alpb water
          hostname                   : smp-n90
          coordinate file            : ../../GFN2_output/17_1173_111011.mol
          omp threads                :                     8
          number of atoms            :                   229
          number of electrons        :                   668
          charge                     :                     0
          spin                       :                   0.0
          first test random number   :      0.75051342453511

   ID    Z sym.   atoms
    1    6 C      1-8, 11-14, 17-32, 35-38, 41-56, 59-62, 65-73, 75-77,
                  79-86, 88-95, 98-101, 104-119, 122-125, 128-135
    2    8 O      9, 15, 33, 39, 57, 63, 96, 102, 120, 126
    3    7 N      10, 16, 34, 40, 58, 64, 97, 103, 121, 127
    4   16 S      74, 87
    5   32 Ge     78
    6    1 H      136-229

           -------------------------------------------------
          |                 G F N 2 - x T B                 |
           -------------------------------------------------

        Reference                      10.1021/acs.jctc.8b01176
      * Hamiltonian:
        H0-scaling (s, p, d)           1.850000    2.230000    2.230000
        zeta-weighting                 0.500000
      * Dispersion:
        s8                             2.700000
        a1                             0.520000
        a2                             5.000000
        s9                             5.000000
      * Repulsion:
        kExp                           1.500000    1.000000
        rExp                           1.000000
      * Coulomb:
        alpha                          2.000000
        third order                    shell-resolved
        anisotropic                    true
        a3                             3.000000
        a5                             4.000000
        cn-shift                       1.200000
        cn-exp                         4.000000
        max-rad                        5.000000

      * Solvation model:               ALPB
        Solvent                        water
        Parameter file                 internal GFN2-xTB/ALPB
        Dielectric constant                8.0200E+01
        Reference state                gsolv [1 M gas/solution]
        Free energy shift                  1.0808E-03 Eh       6.7819E-01 kcal/mol
        Temperature                        2.9815E+02 K
        Density                            1.0000E+00 kg/L
        Solvent mass                       1.8000E+01 g/mol
        Interaction kernel             P16
        Born radius scaling (c1)           1.4744E+00
        Born radii integrator          GBOBC
        Born offset                        0.0000E+00 a0       0.0000E+00 AA
        H-bond correction              true
        Ion screening                  false
        Surface tension                    1.0000E-05 Eh       1.5569E+01 dyn/cm
        Grid points                               230 per atom

          ...................................................
          :                      SETUP                      :
          :.................................................:
          :  # basis functions                 652          :
          :  # atomic orbitals                 649          :
          :  # shells                          367          :
          :  # electrons                       668          :
          :  max. iterations                   250          :
          :  Hamiltonian                  GFN2-xTB          :
          :  restarted?                      false          :
          :  GBSA solvation                   true          :
          :  PC potential                    false          :
          :  electronic temp.          300.0000000     K    :
          :  accuracy                    1.0000000          :
          :  -> integral cutoff          0.2500000E+02      :
          :  -> integral neglect         0.1000000E-07      :
          :  -> SCF convergence          0.1000000E-05 Eh   :
          :  -> wf. convergence          0.1000000E-03 e    :
          :  Broyden damping             0.4000000          :
          ...................................................

 iter      E             dE          RMSdq      gap      omega  full diag
   1   -371.5838814 -0.371584E+03  0.421E+00    1.71       0.0  T
   2   -371.7840505 -0.200169E+00  0.273E+00    1.73       1.0  T
   3   -370.9119440  0.872107E+00  0.220E+00    1.73       1.0  T
   4   -372.0414314 -0.112949E+01  0.920E-01    1.76       1.0  T
   5   -372.2923405 -0.250909E+00  0.209E-01    1.74       1.0  T
   6   -372.2968510 -0.451048E-02  0.112E-01    1.75       1.0  T
   7   -372.2967784  0.726375E-04  0.553E-02    1.75       1.0  T
   8   -372.2970266 -0.248224E-03  0.310E-02    1.75       1.0  T
   9   -372.2971247 -0.981076E-04  0.144E-02    1.75       1.0  T
  10   -372.2971207  0.404667E-05  0.107E-02    1.75       1.0  T
  11   -372.2971260 -0.533170E-05  0.582E-03    1.75       1.1  T
  12   -372.2971297 -0.367554E-05  0.285E-03    1.75       2.3  T
  13   -372.2971307 -0.103422E-05  0.111E-03    1.75       6.0  T
  14   -372.2971307 -0.501002E-07  0.575E-04    1.75      11.5  T
  15   -372.2971308 -0.179306E-07  0.303E-04    1.75      21.8  T

   *** convergence criteria satisfied after 15 iterations ***

         #    Occupation            Energy/Eh            Energy/eV
      -------------------------------------------------------------
         1        2.0000           -0.7306301             -19.8815
       ...           ...                  ...                  ...
       328        2.0000           -0.3832348             -10.4283
       329        2.0000           -0.3815052             -10.3813
       330        2.0000           -0.3795709             -10.3287
       331        2.0000           -0.3779638             -10.2849
       332        2.0000           -0.3772373             -10.2651
       333        2.0000           -0.3713457             -10.1048
       334        2.0000           -0.3520574              -9.5800 (HOMO)
       335                         -0.2878453              -7.8327 (LUMO)
       336                         -0.2728023              -7.4233
       337                         -0.2616452              -7.1197
       338                         -0.2599129              -7.0726
       339                         -0.2584577              -7.0330
       ...                                ...                  ...
       649                          1.1258161              30.6350
      -------------------------------------------------------------
                  HL-Gap            0.0642121 Eh            1.7473 eV
             Fermi-level           -0.3199514 Eh           -8.7063 eV

 SCC (total)                   0 d,  0 h,  0 min,  0.887 sec
 SCC setup                      ...        0 min,  0.009 sec (  1.047%)
 Dispersion                     ...        0 min,  0.011 sec (  1.255%)
 classical contributions        ...        0 min,  0.000 sec (  0.053%)
 integral evaluation            ...        0 min,  0.041 sec (  4.592%)
 iterations                     ...        0 min,  0.648 sec ( 73.035%)
 molecular gradient             ...        0 min,  0.174 sec ( 19.585%)
 printout                       ...        0 min,  0.004 sec (  0.423%)

         :::::::::::::::::::::::::::::::::::::::::::::::::::::
         ::                     SUMMARY                     ::
         :::::::::::::::::::::::::::::::::::::::::::::::::::::
         :: total energy            -366.543337385670 Eh    ::
         :: total w/o Gsasa/hb      -366.530221928122 Eh    ::
         :: gradient norm              0.091511929735 Eh/a0 ::
         :: HOMO-LUMO gap              1.747300745449 eV    ::
         ::.................................................::
         :: SCC energy              -372.297130760947 Eh    ::
         :: -> isotropic ES            0.491151345936 Eh    ::
         :: -> anisotropic ES         -0.017507081545 Eh    ::
         :: -> anisotropic XC          0.146507275973 Eh    ::
         :: -> dispersion             -0.379308266877 Eh    ::
         :: -> Gsolv                  -0.104110613226 Eh    ::
         ::    -> Gelec               -0.090995155678 Eh    ::
         ::    -> Gsasa                0.000740482317 Eh    ::
         ::    -> Ghb                 -0.014936699563 Eh    ::
         ::    -> Gshift               0.001080759698 Eh    ::
         :: repulsion energy           5.732790635393 Eh    ::
         :: add. restraining           0.000000000000 Eh    ::
         :: total charge              -0.000000000000 e     ::
         :::::::::::::::::::::::::::::::::::::::::::::::::::::

           -------------------------------------------------
          |                Property Printout                |
           -------------------------------------------------

    * Orbital Energies and Occupations

         #    Occupation            Energy/Eh            Energy/eV
      -------------------------------------------------------------
         1        2.0000           -0.7306301             -19.8815
       ...           ...                  ...                  ...
       322        2.0000           -0.3934918             -10.7075
       323        2.0000           -0.3876417             -10.5483
       324        2.0000           -0.3868504             -10.5267
       325        2.0000           -0.3857521             -10.4968
       326        2.0000           -0.3851539             -10.4806
       327        2.0000           -0.3843054             -10.4575
       328        2.0000           -0.3832348             -10.4283
       329        2.0000           -0.3815052             -10.3813
       330        2.0000           -0.3795709             -10.3287
       331        2.0000           -0.3779638             -10.2849
       332        2.0000           -0.3772373             -10.2651
       333        2.0000           -0.3713457             -10.1048
       334        2.0000           -0.3520574              -9.5800 (HOMO)
       335                         -0.2878453              -7.8327 (LUMO)
       336                         -0.2728023              -7.4233
       337                         -0.2616452              -7.1197
       338                         -0.2599129              -7.0726
       339                         -0.2584577              -7.0330
       340                         -0.2540904              -6.9142
       341                         -0.2516478              -6.8477
       342                         -0.2496126              -6.7923
       343                         -0.2483598              -6.7582
       344                         -0.2477034              -6.7404
       345                         -0.2474120              -6.7324
       ...                                ...                  ...
       649                          1.1258161              30.6350
      -------------------------------------------------------------
                  HL-Gap            0.0642121 Eh            1.7473 eV
             Fermi-level           -0.3199514 Eh           -8.7063 eV

     #   Z          covCN         q      C6AA      α(0)
     1   6 C        2.924    -0.037    28.909     8.817
     2   6 C        2.913    -0.052    29.298     8.876
     3   6 C        3.017     0.057    26.698     8.476
     4   6 C        3.031    -0.019    28.449     8.749
     5   6 C        2.915    -0.034    28.859     8.809
     6   6 C        2.922    -0.044    29.096     8.846
     7   6 C        3.902    -0.034    21.123     6.533
     8   6 C        2.850     0.281    22.248     7.731
     9   8 O        0.857    -0.485    23.464     6.494
    10   7 N        2.778    -0.074    22.673     7.072
    11   6 C        3.742     0.018    20.350     6.436
    12   6 C        3.752    -0.103    22.523     6.768
    13   6 C        3.905    -0.032    21.083     6.527
    14   6 C        2.839     0.289    22.108     7.705
    15   8 O        0.857    -0.508    23.952     6.562
    16   7 N        2.736    -0.161    24.474     7.348
    17   6 C        3.007     0.069    26.447     8.436
    18   6 C        2.924    -0.059    29.459     8.901
    19   6 C        2.974     0.018    27.603     8.618
    20   6 C        2.924    -0.043    29.075     8.843
    21   6 C        2.915    -0.033    28.819     8.803
    22   6 C        3.035    -0.006    28.130     8.699
    23   6 C        2.907    -0.040    28.996     8.830
    24   6 C        2.901    -0.039    28.979     8.827
    25   6 C        2.978     0.018    27.610     8.619
    26   6 C        2.918    -0.056    29.403     8.892
    27   6 C        3.011     0.056    26.720     8.479
    28   6 C        3.035    -0.017    28.393     8.740
    29   6 C        2.913    -0.036    28.896     8.815
    30   6 C        2.929    -0.048    29.181     8.859
    31   6 C        3.902    -0.039    21.207     6.546
    32   6 C        2.850     0.274    22.374     7.752
    33   8 O        0.857    -0.497    23.713     6.529
    34   7 N        2.778    -0.076    22.709     7.078
    35   6 C        3.741    -0.000    20.664     6.486
    36   6 C        3.752    -0.118    22.823     6.813
    37   6 C        3.904    -0.039    21.217     6.547
    38   6 C        2.830     0.292    22.056     7.696
    39   8 O        0.857    -0.487    23.495     6.499
    40   7 N        2.734    -0.167    24.613     7.368
    41   6 C        2.997     0.066    26.515     8.447
    42   6 C        2.921    -0.062    29.541     8.913
    43   6 C        2.972     0.020    27.561     8.611
    44   6 C        2.925    -0.045    29.127     8.851
    45   6 C        2.914    -0.036    28.905     8.816
    46   6 C        3.035    -0.019    28.443     8.748
    47   6 C        2.899    -0.041    29.021     8.833
    48   6 C        2.898    -0.040    29.002     8.830
    49   6 C        2.975     0.023    27.494     8.601
    50   6 C        2.918    -0.053    29.328     8.881
    51   6 C        3.010     0.056    26.731     8.481
    52   6 C        3.033    -0.021    28.486     8.754
    53   6 C        2.914    -0.033    28.825     8.804
    54   6 C        2.927    -0.049    29.214     8.864
    55   6 C        3.901    -0.039    21.222     6.548
    56   6 C        2.845     0.275    22.368     7.751
    57   8 O        0.857    -0.491    23.595     6.513
    58   7 N        2.778    -0.073    22.652     7.069
    59   6 C        3.740    -0.000    20.664     6.486
    60   6 C        3.752    -0.120    22.857     6.818
    61   6 C        3.901    -0.037    21.178     6.542
    62   6 C        2.840     0.285    22.190     7.720
    63   8 O        0.857    -0.492    23.609     6.514
    64   7 N        2.730    -0.156    24.362     7.331
    65   6 C        3.010     0.064    26.542     8.451
    66   6 C        2.925    -0.052    29.292     8.876
    67   6 C        2.975     0.021    27.535     8.607
    68   6 C        2.929    -0.048    29.183     8.859
    69   6 C        2.914    -0.032    28.810     8.802
    70   6 C        3.033    -0.016    28.380     8.738
    71   6 C        2.899    -0.047    29.163     8.854
    72   6 C        2.910    -0.045    29.117     8.848
    73   6 C        2.981     0.022    27.509     8.603
    74  16 S        2.288    -0.088   144.723    20.247
    75   6 C        3.118     0.012    27.574     8.601
    76   6 C        3.114     0.012    27.585     8.604
    77   6 C        3.056    -0.081    29.957     8.976
    78  32 Ge       3.752     0.180   168.028    23.268
    79   6 C        3.704    -0.098    22.531     6.786
    80   6 C        3.765    -0.115    22.747     6.798
    81   6 C        3.704    -0.097    22.512     6.783
    82   6 C        3.767    -0.106    22.562     6.770
    83   6 C        3.047    -0.077    29.885     8.966
    84   6 C        3.102    -0.053    29.174     8.851
    85   6 C        3.098    -0.053    29.186     8.854
    86   6 C        2.995     0.016    27.639     8.624
    87  16 S        2.302    -0.084   144.565    20.236
    88   6 C        3.003     0.008    27.830     8.654
    89   6 C        2.920    -0.045    29.129     8.851
    90   6 C        3.012     0.063    26.578     8.457
    91   6 C        3.037    -0.020    28.461     8.750
    92   6 C        2.913    -0.040    28.994     8.830
    93   6 C        2.927    -0.051    29.266     8.872
    94   6 C        3.898    -0.042    21.259     6.554
    95   6 C        2.852     0.274    22.386     7.755
    96   8 O        0.857    -0.501    23.800     6.541
    97   7 N        2.779    -0.074    22.677     7.073
    98   6 C        3.741     0.007    20.532     6.465
    99   6 C        3.752    -0.119    22.833     6.814
   100   6 C        3.905    -0.032    21.078     6.526
   101   6 C        2.843     0.291    22.070     7.699
   102   8 O        0.857    -0.507    23.944     6.561
   103   7 N        2.737    -0.158    24.420     7.339
   104   6 C        3.016     0.066    26.500     8.444
   105   6 C        2.923    -0.057    29.408     8.893
   106   6 C        2.985     0.022    27.512     8.604
   107   6 C        2.924    -0.049    29.205     8.862
   108   6 C        2.916    -0.038    28.937     8.821
   109   6 C        3.035    -0.013    28.295     8.725
   110   6 C        2.905    -0.042    29.033     8.835
   111   6 C        2.906    -0.041    29.020     8.833
   112   6 C        2.979     0.019    27.573     8.613
   113   6 C        2.921    -0.057    29.406     8.893
   114   6 C        3.013     0.055    26.744     8.483
   115   6 C        3.029    -0.023    28.545     8.764
   116   6 C        2.914    -0.039    28.971     8.826
   117   6 C        2.924    -0.051    29.254     8.870
   118   6 C        3.898    -0.042    21.273     6.556
   119   6 C        2.852     0.278    22.299     7.740
   120   8 O        0.857    -0.495    23.665     6.522
   121   7 N        2.777    -0.074    22.674     7.072
   122   6 C        3.741     0.002    20.626     6.480
   123   6 C        3.752    -0.115    22.762     6.804
   124   6 C        3.906    -0.035    21.134     6.534
   125   6 C        2.838     0.282    22.231     7.727
   126   8 O        0.857    -0.500    23.778     6.538
   127   7 N        2.733    -0.170    24.684     7.379
   128   6 C        3.009     0.062    26.592     8.459
   129   6 C        2.917    -0.055    29.369     8.887
   130   6 C        2.976     0.019    27.585     8.615
   131   6 C        2.930    -0.047    29.179     8.859
   132   6 C        2.914    -0.036    28.897     8.815
   133   6 C        3.034    -0.014    28.338     8.732
   134   6 C        2.896    -0.035    28.880     8.811
   135   6 C        2.838    -0.091    30.279     9.018
   136   1 H        0.926     0.051     2.313     2.378
   137   1 H        0.926     0.036     2.509     2.477
   138   1 H        0.926     0.054     2.271     2.357
   139   1 H        0.926     0.058     2.220     2.330
   140   1 H        0.924     0.071     2.073     2.252
   141   1 H        0.924     0.049     2.330     2.387
   142   1 H        0.924     0.052     2.290     2.367
   143   1 H        0.925     0.055     2.264     2.353
   144   1 H        0.925     0.054     2.272     2.357
   145   1 H        0.925     0.038     2.475     2.460
   146   1 H        0.924     0.087     1.913     2.163
   147   1 H        0.860     0.223     0.996     1.564
   148   1 H        0.926     0.059     2.208     2.324
   149   1 H        0.926     0.057     2.237     2.339
   150   1 H        0.926     0.042     2.419     2.432
   151   1 H        0.925     0.054     2.267     2.354
   152   1 H        0.926     0.050     2.319     2.381
   153   1 H        0.926     0.062     2.173     2.305
   154   1 H        0.926     0.048     2.349     2.397
   155   1 H        0.926     0.050     2.314     2.379
   156   1 H        0.924     0.072     2.068     2.249
   157   1 H        0.924     0.070     2.081     2.256
   158   1 H        0.924     0.065     2.142     2.289
   159   1 H        0.925     0.041     2.430     2.438
   160   1 H        0.925     0.068     2.104     2.268
   161   1 H        0.925     0.054     2.266     2.354
   162   1 H        0.924     0.081     1.972     2.196
   163   1 H        0.860     0.225     0.986     1.556
   164   1 H        0.926     0.053     2.283     2.363
   165   1 H        0.926     0.051     2.312     2.378
   166   1 H        0.926     0.045     2.380     2.413
   167   1 H        0.925     0.053     2.278     2.360
   168   1 H        0.925     0.063     2.163     2.300
   169   1 H        0.926     0.056     2.242     2.342
   170   1 H        0.926     0.031     2.574     2.509
   171   1 H        0.926     0.052     2.293     2.368
   172   1 H        0.924     0.082     1.958     2.188
   173   1 H        0.924     0.066     2.127     2.281
   174   1 H        0.924     0.068     2.108     2.271
   175   1 H        0.925     0.059     2.211     2.325
   176   1 H        0.925     0.064     2.148     2.292
   177   1 H        0.925     0.044     2.400     2.423
   178   1 H        0.924     0.080     1.980     2.201
   179   1 H        0.860     0.199     1.111     1.651
   180   1 H        0.926     0.051     2.304     2.374
   181   1 H        0.926     0.055     2.260     2.351
   182   1 H        0.926     0.039     2.459     2.452
   183   1 H        0.925     0.057     2.240     2.340
   184   1 H        0.925     0.057     2.235     2.338
   185   1 H        0.925     0.061     2.189     2.314
   186   1 H        0.925     0.061     2.183     2.310
   187   1 H        0.925     0.050     2.325     2.385
   188   1 H        0.925     0.053     2.284     2.363
   189   1 H        0.925     0.048     2.350     2.397
   190   1 H        0.925     0.063     2.167     2.302
   191   1 H        0.925     0.060     2.194     2.316
   192   1 H        0.925     0.039     2.460     2.453
   193   1 H        0.925     0.034     2.527     2.486
   194   1 H        0.925     0.049     2.329     2.387
   195   1 H        0.926     0.051     2.309     2.376
   196   1 H        0.926     0.048     2.348     2.396
   197   1 H        0.926     0.045     2.380     2.413
   198   1 H        0.926     0.058     2.222     2.331
   199   1 H        0.926     0.054     2.276     2.359
   200   1 H        0.924     0.087     1.911     2.162
   201   1 H        0.924     0.066     2.132     2.283
   202   1 H        0.924     0.057     2.232     2.337
   203   1 H        0.925     0.053     2.286     2.364
   204   1 H        0.925     0.062     2.180     2.309
   205   1 H        0.925     0.052     2.301     2.372
   206   1 H        0.924     0.088     1.900     2.156
   207   1 H        0.860     0.213     1.041     1.599
   208   1 H        0.926     0.052     2.294     2.369
   209   1 H        0.926     0.061     2.188     2.313
   210   1 H        0.926     0.056     2.244     2.342
   211   1 H        0.926     0.062     2.170     2.304
   212   1 H        0.925     0.064     2.153     2.295
   213   1 H        0.926     0.049     2.336     2.390
   214   1 H        0.926     0.050     2.322     2.383
   215   1 H        0.926     0.052     2.297     2.370
   216   1 H        0.924     0.085     1.933     2.174
   217   1 H        0.924     0.066     2.127     2.281
   218   1 H        0.924     0.067     2.118     2.276
   219   1 H        0.925     0.047     2.356     2.400
   220   1 H        0.925     0.064     2.150     2.293
   221   1 H        0.925     0.044     2.396     2.420
   222   1 H        0.923     0.082     1.958     2.188
   223   1 H        0.860     0.200     1.105     1.647
   224   1 H        0.926     0.045     2.388     2.416
   225   1 H        0.926     0.061     2.188     2.313
   226   1 H        0.926     0.056     2.245     2.343
   227   1 H        0.925     0.054     2.273     2.358
   228   1 H        0.926     0.043     2.413     2.429
   229   1 H        0.926     0.054     2.270     2.356

 Mol. C6AA /au·bohr⁶  :     715520.618721
 Mol. C8AA /au·bohr⁸  :   18522853.302742
 Mol. α(0) /au        :       1336.210117


Wiberg/Mayer (AO) data.
largest (>0.10) Wiberg bond orders for each atom

 ---------------------------------------------------------------------------
     #   Z sym  total        # sym  WBO       # sym  WBO       # sym  WBO
 ---------------------------------------------------------------------------
     1   6 C    3.989 --     6 C    1.452     2 C    1.427   136 H    0.969
                             4 C    0.103
     2   6 C    3.988 --     1 C    1.427     3 C    1.389   137 H    0.967
                             5 C    0.101
     3   6 C    3.958 --     2 C    1.389     4 C    1.308    10 N    1.081
     4   6 C    3.982 --     5 C    1.455     3 C    1.308     7 C    1.005
                             1 C    0.103
     5   6 C    3.989 --     4 C    1.455     6 C    1.408   138 H    0.965
                             2 C    0.101
     6   6 C    3.979 --     1 C    1.452     5 C    1.408   139 H    0.969
     7   6 C    3.992 --     4 C    1.005     8 C    0.945    13 C    0.939
                           140 H    0.931
     8   6 C    3.939 --     9 O    1.659    10 N    1.216     7 C    0.945
     9   8 O    1.974 --     8 C    1.659    10 N    0.161
    10   7 N    3.577 --     8 C    1.216     3 C    1.081    11 C    0.979
                             9 O    0.161
    11   6 C    3.964 --    12 C    1.006    10 N    0.979   141 H    0.968
                           142 H    0.965
    12   6 C    3.992 --    11 C    1.006   145 H    0.987   144 H    0.985
                           143 H    0.982
    13   6 C    3.990 --    22 C    1.006    14 C    0.958     7 C    0.939
                           146 H    0.920
    14   6 C    3.937 --    15 O    1.635    16 N    1.243    13 C    0.958
    15   8 O    1.951 --    14 C    1.635    16 N    0.170
    16   7 N    3.518 --    14 C    1.243    17 C    1.074   147 H    0.917
                            15 O    0.170
    17   6 C    3.954 --    18 C    1.419    22 C    1.304    16 N    1.074
    18   6 C    3.975 --    17 C    1.419    19 C    1.348   148 H    0.963
    19   6 C    3.986 --    20 C    1.374    18 C    1.348    23 C    1.114
    20   6 C    3.968 --    21 C    1.436    19 C    1.374   149 H    0.965
    21   6 C    3.989 --    20 C    1.436    22 C    1.434   150 H    0.967
    22   6 C    3.973 --    21 C    1.434    17 C    1.304    13 C    1.006
    23   6 C    3.985 --    24 C    1.764    19 C    1.114   151 H    0.957
    24   6 C    3.985 --    23 C    1.764    25 C    1.103   152 H    0.959
    25   6 C    3.987 --    30 C    1.376    26 C    1.354    24 C    1.103
    26   6 C    3.977 --    27 C    1.415    25 C    1.354   153 H    0.959
    27   6 C    3.959 --    26 C    1.415    28 C    1.298    34 N    1.072
    28   6 C    3.972 --    29 C    1.440    27 C    1.298    31 C    1.007
    29   6 C    3.988 --    28 C    1.440    30 C    1.430   154 H    0.967
    30   6 C    3.966 --    29 C    1.430    25 C    1.376   155 H    0.968
    31   6 C    3.990 --    28 C    1.007    32 C    0.950   156 H    0.943
                            37 C    0.916
    32   6 C    3.943 --    33 O    1.654    34 N    1.222    31 C    0.950
    33   8 O    1.967 --    32 C    1.654    34 N    0.169
    34   7 N    3.572 --    32 C    1.222    27 C    1.072    35 C    0.975
                            33 O    0.169
    35   6 C    3.958 --    36 C    1.007    34 N    0.975   158 H    0.969
                           157 H    0.967
    36   6 C    3.990 --    35 C    1.007   159 H    0.986   161 H    0.984
                           160 H    0.982
    37   6 C    3.990 --    46 C    1.007    38 C    0.947   162 H    0.941
                            31 C    0.916
    38   6 C    3.936 --    39 O    1.676    40 N    1.222    37 C    0.947
    39   8 O    1.976 --    38 C    1.676    40 N    0.169
    40   7 N    3.512 --    38 C    1.222    41 C    1.084   163 H    0.917
                            39 O    0.169
    41   6 C    3.956 --    42 C    1.411    46 C    1.304    40 N    1.084
    42   6 C    3.981 --    41 C    1.411    43 C    1.358   164 H    0.965
    43   6 C    3.988 --    44 C    1.384    42 C    1.358    47 C    1.092
    44   6 C    3.982 --    45 C    1.428    43 C    1.384   165 H    0.962
    45   6 C    3.990 --    46 C    1.440    44 C    1.428   166 H    0.966
    46   6 C    3.980 --    45 C    1.440    41 C    1.304    37 C    1.007
    47   6 C    3.987 --    48 C    1.834    43 C    1.092   167 H    0.960
    48   6 C    3.986 --    47 C    1.834    49 C    1.044   168 H    0.951
    49   6 C    3.988 --    54 C    1.399    50 C    1.375    48 C    1.044
    50   6 C    3.984 --    51 C    1.401    49 C    1.375   169 H    0.964
    51   6 C    3.960 --    50 C    1.401    52 C    1.308    58 N    1.076
    52   6 C    3.982 --    53 C    1.448    51 C    1.308    55 C    1.006
    53   6 C    3.990 --    52 C    1.448    54 C    1.420   170 H    0.966
    54   6 C    3.975 --    53 C    1.420    49 C    1.399   171 H    0.969
    55   6 C    3.990 --    52 C    1.006    56 C    0.951    61 C    0.937
                           172 H    0.925
    56   6 C    3.944 --    57 O    1.657    58 N    1.217    55 C    0.951
    57   8 O    1.970 --    56 C    1.657    58 N    0.169
    58   7 N    3.572 --    56 C    1.217    51 C    1.076    59 C    0.976
                            57 O    0.169
    59   6 C    3.959 --    60 C    1.007    58 N    0.976   173 H    0.969
                           174 H    0.966
    60   6 C    3.990 --    59 C    1.007   177 H    0.986   175 H    0.984
                           176 H    0.982
    61   6 C    3.992 --    70 C    1.008    62 C    0.951    55 C    0.937
                           178 H    0.928
    62   6 C    3.938 --    63 O    1.656    64 N    1.235    61 C    0.951
    63   8 O    1.965 --    62 C    1.656    64 N    0.170
    64   7 N    3.518 --    62 C    1.235    65 C    1.075   179 H    0.915
                            63 O    0.170
    65   6 C    3.955 --    66 C    1.410    70 C    1.309    64 N    1.075
    66   6 C    3.984 --    65 C    1.410    67 C    1.359   180 H    0.963
    67   6 C    3.987 --    68 C    1.385    66 C    1.359    71 C    1.083
    68   6 C    3.968 --    69 C    1.429    67 C    1.385   181 H    0.968
    69   6 C    3.989 --    70 C    1.440    68 C    1.429   182 H    0.966
    70   6 C    3.974 --    69 C    1.440    65 C    1.309    61 C    1.008
    71   6 C    3.960 --    72 C    1.746    67 C    1.083   183 H    0.958
    72   6 C    3.982 --    71 C    1.746    73 C    1.157   184 H    0.955
    73   6 C    3.918 --    84 C    1.468    72 C    1.157    74 S    1.118
    74  16 S    2.591 --    75 C    1.145    73 C    1.118
    75   6 C    3.941 --    83 C    1.426    76 C    1.184    74 S    1.145
    76   6 C    3.932 --    77 C    1.428    75 C    1.184    87 S    1.148
    77   6 C    3.939 --    76 C    1.428    85 C    1.345    78 Ge   0.816
    78  32 Ge   3.530 --    81 C    0.837    79 C    0.835    83 C    0.822
                            77 C    0.816
    79   6 C    3.974 --    80 C    1.024   185 H    0.960   186 H    0.959
                            78 Ge   0.835
    80   6 C    3.993 --    79 C    1.024   189 H    0.984   187 H    0.982
                           188 H    0.980
    81   6 C    3.980 --    82 C    1.025   191 H    0.960   190 H    0.959
                            78 Ge   0.837
    82   6 C    3.995 --    81 C    1.025   192 H    0.983   193 H    0.983
                           194 H    0.981
    83   6 C    3.947 --    75 C    1.426    84 C    1.348    78 Ge   0.822
    84   6 C    3.976 --    73 C    1.468    83 C    1.348   195 H    0.960
    85   6 C    3.983 --    86 C    1.485    77 C    1.345   196 H    0.957
    86   6 C    3.914 --    85 C    1.485    87 S    1.124    88 C    1.119
    87  16 S    2.579 --    76 C    1.148    86 C    1.124
    88   6 C    3.984 --    93 C    1.357    89 C    1.349    86 C    1.119
    89   6 C    3.977 --    90 C    1.409    88 C    1.349   197 H    0.957
    90   6 C    3.959 --    89 C    1.409    91 C    1.303    97 N    1.073
    91   6 C    3.955 --    92 C    1.433    90 C    1.303    94 C    1.008
    92   6 C    3.988 --    93 C    1.438    91 C    1.433   198 H    0.965
    93   6 C    3.968 --    92 C    1.438    88 C    1.357   199 H    0.965
    94   6 C    3.991 --    91 C    1.008    95 C    0.947   200 H    0.937
                           100 C    0.929
    95   6 C    3.941 --    96 O    1.641    97 N    1.234    94 C    0.947
    96   8 O    1.953 --    95 C    1.641    97 N    0.167
    97   7 N    3.579 --    95 C    1.234    90 C    1.073    98 C    0.975
                            96 O    0.167
    98   6 C    3.960 --    99 C    1.008    97 N    0.975   202 H    0.970
                           201 H    0.961
    99   6 C    3.991 --    98 C    1.008   205 H    0.987   203 H    0.985
                           204 H    0.983
   100   6 C    3.989 --   109 C    1.005   101 C    0.956    94 C    0.929
                           206 H    0.926
   101   6 C    3.933 --   102 O    1.619   103 N    1.252   100 C    0.956
   102   8 O    1.960 --   101 C    1.619   103 N    0.166
   103   7 N    3.523 --   101 C    1.252   104 C    1.072   207 H    0.920
                           102 O    0.166
   104   6 C    3.953 --   105 C    1.412   109 C    1.309   103 N    1.072
   105   6 C    3.985 --   104 C    1.412   106 C    1.368   208 H    0.964
   106   6 C    3.986 --   107 C    1.405   105 C    1.368   110 C    1.051
   107   6 C    3.979 --   108 C    1.419   106 C    1.405   209 H    0.968
   108   6 C    3.987 --   109 C    1.443   107 C    1.419   210 H    0.966
   109   6 C    3.981 --   108 C    1.443   104 C    1.309   100 C    1.005
   110   6 C    3.986 --   111 C    1.876   106 C    1.051   211 H    0.956
   111   6 C    3.987 --   110 C    1.876   112 C    1.038   212 H    0.954
   112   6 C    3.987 --   117 C    1.407   113 C    1.377   111 C    1.038
   113   6 C    3.986 --   114 C    1.402   112 C    1.377   213 H    0.964
   114   6 C    3.960 --   113 C    1.402   115 C    1.305   121 N    1.078
   115   6 C    3.982 --   116 C    1.451   114 C    1.305   118 C    1.006
   116   6 C    3.989 --   115 C    1.451   117 C    1.416   214 H    0.967
   117   6 C    3.978 --   116 C    1.416   112 C    1.407   215 H    0.969
   118   6 C    3.991 --   115 C    1.006   119 C    0.946   124 C    0.940
                           216 H    0.935
   119   6 C    3.941 --   120 O    1.655   121 N    1.220   118 C    0.946
   120   8 O    1.965 --   119 C    1.655   121 N    0.165
   121   7 N    3.573 --   119 C    1.220   114 C    1.078   122 C    0.976
                           120 O    0.165
   122   6 C    3.960 --   123 C    1.007   121 N    0.976   218 H    0.969
                           217 H    0.967
   123   6 C    3.991 --   122 C    1.007   221 H    0.985   219 H    0.983
                           220 H    0.982
   124   6 C    3.991 --   133 C    1.005   125 C    0.953   118 C    0.940
                           222 H    0.918
   125   6 C    3.937 --   126 O    1.651   127 N    1.238   124 C    0.953
   126   8 O    1.962 --   125 C    1.651   127 N    0.169
   127   7 N    3.516 --   125 C    1.238   128 C    1.076   223 H    0.895
                           126 O    0.169
   128   6 C    3.952 --   129 C    1.411   133 C    1.305   127 N    1.076
   129   6 C    3.986 --   128 C    1.411   130 C    1.363   224 H    0.962
   130   6 C    3.987 --   131 C    1.384   129 C    1.363   134 C    1.087
   131   6 C    3.980 --   132 C    1.431   130 C    1.384   225 H    0.967
   132   6 C    3.988 --   133 C    1.438   131 C    1.431   226 H    0.966
   133   6 C    3.982 --   132 C    1.438   128 C    1.305   124 C    1.005
   134   6 C    3.989 --   135 C    1.906   130 C    1.087   227 H    0.962
   135   6 C    3.987 --   134 C    1.906   229 H    0.976   228 H    0.970
   136   1 H    0.997 --     1 C    0.969
   137   1 H    0.998 --     2 C    0.967
   138   1 H    0.997 --     5 C    0.965
   139   1 H    0.996 --     6 C    0.969
   140   1 H    0.995 --     7 C    0.931
   141   1 H    0.997 --    11 C    0.968
   142   1 H    0.997 --    11 C    0.965
   143   1 H    0.996 --    12 C    0.982
   144   1 H    0.997 --    12 C    0.985
   145   1 H    0.999 --    12 C    0.987
   146   1 H    0.990 --    13 C    0.920
   147   1 H    0.950 --    16 N    0.917
   148   1 H    0.996 --    18 C    0.963
   149   1 H    0.996 --    20 C    0.965
   150   1 H    0.997 --    21 C    0.967
   151   1 H    0.997 --    23 C    0.957
   152   1 H    0.997 --    24 C    0.959
   153   1 H    0.996 --    26 C    0.959
   154   1 H    0.997 --    29 C    0.967
   155   1 H    0.997 --    30 C    0.968
   156   1 H    0.993 --    31 C    0.943
   157   1 H    0.995 --    35 C    0.967
   158   1 H    0.995 --    35 C    0.969
   159   1 H    0.998 --    36 C    0.986
   160   1 H    0.995 --    36 C    0.982
   161   1 H    0.997 --    36 C    0.984
   162   1 H    0.992 --    37 C    0.941
   163   1 H    0.948 --    40 N    0.917
   164   1 H    0.997 --    42 C    0.965
   165   1 H    0.997 --    44 C    0.962
   166   1 H    0.997 --    45 C    0.966
   167   1 H    0.996 --    47 C    0.960
   168   1 H    0.995 --    48 C    0.951
   169   1 H    0.997 --    50 C    0.964
   170   1 H    0.998 --    53 C    0.966
   171   1 H    0.997 --    54 C    0.969
   172   1 H    0.992 --    55 C    0.925
   173   1 H    0.995 --    59 C    0.969
   174   1 H    0.995 --    59 C    0.966
   175   1 H    0.997 --    60 C    0.984
   176   1 H    0.995 --    60 C    0.982
   177   1 H    0.998 --    60 C    0.986
   178   1 H    0.992 --    61 C    0.928
   179   1 H    0.959 --    64 N    0.915
   180   1 H    0.997 --    66 C    0.963
   181   1 H    0.997 --    68 C    0.968
   182   1 H    0.997 --    69 C    0.966
   183   1 H    0.995 --    71 C    0.958
   184   1 H    0.995 --    72 C    0.955
   185   1 H    0.996 --    79 C    0.960
   186   1 H    0.996 --    79 C    0.959
   187   1 H    0.997 --    80 C    0.982
   188   1 H    0.993 --    80 C    0.980
   189   1 H    0.998 --    80 C    0.984
   190   1 H    0.995 --    81 C    0.959
   191   1 H    0.996 --    81 C    0.960
   192   1 H    0.998 --    82 C    0.983
   193   1 H    0.999 --    82 C    0.983
   194   1 H    0.993 --    82 C    0.981
   195   1 H    0.997 --    84 C    0.960
   196   1 H    0.997 --    85 C    0.957
   197   1 H    0.998 --    89 C    0.957
   198   1 H    0.995 --    92 C    0.965
   199   1 H    0.997 --    93 C    0.965
   200   1 H    0.991 --    94 C    0.937
   201   1 H    0.996 --    98 C    0.961
   202   1 H    0.996 --    98 C    0.970
   203   1 H    0.997 --    99 C    0.985
   204   1 H    0.996 --    99 C    0.983
   205   1 H    0.997 --    99 C    0.987
   206   1 H    0.991 --   100 C    0.926
   207   1 H    0.954 --   103 N    0.920
   208   1 H    0.997 --   105 C    0.964
   209   1 H    0.996 --   107 C    0.968
   210   1 H    0.996 --   108 C    0.966
   211   1 H    0.995 --   110 C    0.956
   212   1 H    0.995 --   111 C    0.954
   213   1 H    0.997 --   113 C    0.964
   214   1 H    0.996 --   116 C    0.967
   215   1 H    0.997 --   117 C    0.969
   216   1 H    0.992 --   118 C    0.935
   217   1 H    0.996 --   122 C    0.967
   218   1 H    0.995 --   122 C    0.969
   219   1 H    0.998 --   123 C    0.983
   220   1 H    0.995 --   123 C    0.982
   221   1 H    0.998 --   123 C    0.985
   222   1 H    0.991 --   124 C    0.918
   223   1 H    0.959 --   127 N    0.895
   224   1 H    0.998 --   129 C    0.962
   225   1 H    0.996 --   131 C    0.967
   226   1 H    0.996 --   132 C    0.966
   227   1 H    0.996 --   134 C    0.962
   228   1 H    0.998 --   135 C    0.970
   229   1 H    0.996 --   135 C    0.976
 ---------------------------------------------------------------------------

Topologies differ in bond orders
Writing corrected topology to xtbtopo.mol

molecular dipole:
                 x           y           z       tot (Debye)
 q only:        4.427      -0.147      -1.075
   full:        4.008      -0.088      -0.849      10.416
molecular quadrupole (traceless):
                xx          xy          yy          xz          yz          zz
 q only:      -75.091     -20.597     171.244      24.839      63.361     -96.153
  q+dip:      -65.697     -24.418     156.863      20.950      47.281     -91.167
   full:      -63.273     -19.993     158.983      27.236      52.756     -95.710


           -------------------------------------------------
          | TOTAL ENERGY             -366.543337385670 Eh   |
          | GRADIENT NORM               0.091511929735 Eh/α |
          | HOMO-LUMO GAP               1.747300745449 eV   |
           -------------------------------------------------

------------------------------------------------------------------------
 * finished run on 2022/03/03 at 05:34:50.973     
------------------------------------------------------------------------
 total:
 * wall-time:     0 d,  0 h,  0 min,  1.293 sec
 *  cpu-time:     0 d,  0 h,  0 min,  8.801 sec
 * ratio c/w:     6.809 speedup
 SCF:
 * wall-time:     0 d,  0 h,  0 min,  0.891 sec
 *  cpu-time:     0 d,  0 h,  0 min,  7.108 sec
 * ratio c/w:     7.982 speedup

