      -----------------------------------------------------------      
     |                   =====================                   |     
     |                           x T B                           |     
     |                   =====================                   |     
     |                         S. Grimme                         |     
     |          Mulliken Center for Theoretical Chemistry        |     
     |                    University of Bonn                     |     
      -----------------------------------------------------------      

   * xtb version 6.4.1 (unknown) compiled by 'oda6@login1.crc.pitt.edu' on 2021-06-25

   xtb is free software: you can redistribute it and/or modify it under
   the terms of the GNU Lesser General Public License as published by
   the Free Software Foundation, either version 3 of the License, or
   (at your option) any later version.
   
   xtb is distributed in the hope that it will be useful,
   but WITHOUT ANY WARRANTY; without even the implied warranty of
   MERCHANTABILITY or FITNESS FOR A PARTICULAR PURPOSE.  See the
   GNU Lesser General Public License for more details.
   
   Cite this work as:
   * C. Bannwarth, E. Caldeweyher, S. Ehlert, A. Hansen, P. Pracht,
     J. Seibert, S. Spicher, S. Grimme, WIREs Comput. Mol. Sci., 2020, 11,
     e01493. DOI: 10.1002/wcms.1493
   
   for GFN2-xTB:
   * C. Bannwarth, S. Ehlert and S. Grimme., J. Chem. Theory Comput., 2019,
     15, 1652-1671. DOI: 10.1021/acs.jctc.8b01176
   for GFN1-xTB:
   * S. Grimme, C. Bannwarth, P. Shushkov, J. Chem. Theory Comput., 2017,
     13, 1989-2009. DOI: 10.1021/acs.jctc.7b00118
   for GFN0-xTB:
   * P. Pracht, E. Caldeweyher, S. Ehlert, S. Grimme, ChemRxiv, 2019, preprint.
     DOI: 10.26434/chemrxiv.8326202.v1
   for GFN-FF:
   * S. Spicher and S. Grimme, Angew. Chem. Int. Ed., 2020, 59, 15665-15673.
     DOI: 10.1002/anie.202004239
   
   for DFT-D4:
   * E. Caldeweyher, C. Bannwarth and S. Grimme, J. Chem. Phys., 2017,
     147, 034112. DOI: 10.1063/1.4993215
   * E. Caldeweyher, S. Ehlert, A. Hansen, H. Neugebauer, S. Spicher,
     C. Bannwarth and S. Grimme, J. Chem. Phys., 2019, 150, 154122.
     DOI: 10.1063/1.5090222
   * E. Caldeweyher, J.-M. Mewes, S. Ehlert and S. Grimme, Phys. Chem. Chem. Phys.
     2020, 22, 8499-8512. DOI: 10.1039/D0CP00502A
   
   for sTDA-xTB:
   * S. Grimme and C. Bannwarth, J. Chem. Phys., 2016, 145, 054103.
     DOI: 10.1063/1.4959605
   
   in the mass-spec context:
   * V. Asgeirsson, C. Bauer and S. Grimme, Chem. Sci., 2017, 8, 4879.
     DOI: 10.1039/c7sc00601b
   * J. Koopman and S. Grimme, ACS Omega 2019, 4, 12, 15120-15133.
     DOI: 10.1021/acsomega.9b02011
   
   for metadynamics refer to:
   * S. Grimme, J. Chem. Theory Comput., 2019, 155, 2847-2862
     DOI: 10.1021/acs.jctc.9b00143
   
   for SPH calculations refer to:
   * S. Spicher and S. Grimme, J. Chem. Theory Comput., 2021, 17, 1701-1714
     DOI: 10.1021/acs.jctc.0c01306
   
   with help from (in alphabetical order)
   P. Atkinson, C. Bannwarth, F. Bohle, G. Brandenburg, E. Caldeweyher
   M. Checinski, S. Dohm, S. Ehlert, S. Ehrlich, I. Gerasimov, J. Koopman
   C. Lavigne, S. Lehtola, F. März, M. Müller, F. Musil, H. Neugebauer
   J. Pisarek, C. Plett, P. Pracht, J. Seibert, P. Shushkov, S. Spicher
   M. Stahn, M. Steiner, T. Strunk, J. Stückrath, T. Rose, and J. Unsleber
   
 * started run on 2022/02/28 at 19:02:08.606     

           -------------------------------------------------
          |                Calculation Setup                |
           -------------------------------------------------

          program call               : /ihome/ghutchison/oda6/xtb/xtb-641/bin/xtb ../../GFN2_output/22_814_101100.mol --sp --alpb water
          hostname                   : smp-n90
          coordinate file            : ../../GFN2_output/22_814_101100.mol
          omp threads                :                     8
          number of atoms            :                   125
          number of electrons        :                   452
          charge                     :                     0
          spin                       :                   0.0
          first test random number   :      0.78755078368905

   ID    Z sym.   atoms
    1    6 C      1, 3-5, 7, 8, 10-17, 21-25, 28, 29, 31, 32, 34-36, 38, 39,
                  41-46, 48-50, 52, 53, 55-62, 66-70, 73, 74, 76-79, 83-87,
                  90, 91, 93
    2   16 S      2, 6, 9, 19, 30, 33, 37, 40, 47, 51, 54, 64, 75, 81, 92
    3    7 N      18, 20, 63, 65, 80, 82
    4    8 O      26, 27, 71, 72, 88, 89
    5    1 H      94-125

           -------------------------------------------------
          |                 G F N 2 - x T B                 |
           -------------------------------------------------

        Reference                      10.1021/acs.jctc.8b01176
      * Hamiltonian:
        H0-scaling (s, p, d)           1.850000    2.230000    2.230000
        zeta-weighting                 0.500000
      * Dispersion:
        s8                             2.700000
        a1                             0.520000
        a2                             5.000000
        s9                             5.000000
      * Repulsion:
        kExp                           1.500000    1.000000
        rExp                           1.000000
      * Coulomb:
        alpha                          2.000000
        third order                    shell-resolved
        anisotropic                    true
        a3                             3.000000
        a5                             4.000000
        cn-shift                       1.200000
        cn-exp                         4.000000
        max-rad                        5.000000

      * Solvation model:               ALPB
        Solvent                        water
        Parameter file                 internal GFN2-xTB/ALPB
        Dielectric constant                8.0200E+01
        Reference state                gsolv [1 M gas/solution]
        Free energy shift                  1.0808E-03 Eh       6.7819E-01 kcal/mol
        Temperature                        2.9815E+02 K
        Density                            1.0000E+00 kg/L
        Solvent mass                       1.8000E+01 g/mol
        Interaction kernel             P16
        Born radius scaling (c1)           1.4744E+00
        Born radii integrator          GBOBC
        Born offset                        0.0000E+00 a0       0.0000E+00 AA
        H-bond correction              true
        Ion screening                  false
        Surface tension                    1.0000E-05 Eh       1.5569E+01 dyn/cm
        Grid points                               230 per atom

          ...................................................
          :                      SETUP                      :
          :.................................................:
          :  # basis functions                 494          :
          :  # atomic orbitals                 479          :
          :  # shells                          233          :
          :  # electrons                       452          :
          :  max. iterations                   250          :
          :  Hamiltonian                  GFN2-xTB          :
          :  restarted?                      false          :
          :  GBSA solvation                   true          :
          :  PC potential                    false          :
          :  electronic temp.          300.0000000     K    :
          :  accuracy                    1.0000000          :
          :  -> integral cutoff          0.2500000E+02      :
          :  -> integral neglect         0.1000000E-07      :
          :  -> SCF convergence          0.1000000E-05 Eh   :
          :  -> wf. convergence          0.1000000E-03 e    :
          :  Broyden damping             0.4000000          :
          ...................................................

 iter      E             dE          RMSdq      gap      omega  full diag
   1   -251.2932965 -0.251293E+03  0.458E+00    0.41       0.0  T
   2   -251.5202773 -0.226981E+00  0.264E+00    0.38       1.0  T
   3   -251.4817613  0.385160E-01  0.135E+00    0.51       1.0  T
   4   -251.5607497 -0.789884E-01  0.490E-01    0.42       1.0  T
   5   -251.5821695 -0.214198E-01  0.219E-01    0.44       1.0  T
   6   -251.5850241 -0.285455E-02  0.946E-02    0.43       1.0  T
   7   -251.5853252 -0.301182E-03  0.367E-02    0.42       1.0  T
   8   -251.5854037 -0.784337E-04  0.187E-02    0.43       1.0  T
   9   -251.5854167 -0.130015E-04  0.105E-02    0.42       1.0  T
  10   -251.5854195 -0.286881E-05  0.566E-03    0.42       1.6  T
  11   -251.5854207 -0.119861E-05  0.295E-03    0.42       3.0  T
  12   -251.5854209 -0.142721E-06  0.153E-03    0.42       5.8  T
  13   -251.5854210 -0.793563E-07  0.761E-04    0.42      11.8  T
  14   -251.5854210 -0.205831E-07  0.380E-04    0.42      23.5  T

   *** convergence criteria satisfied after 14 iterations ***

         #    Occupation            Energy/Eh            Energy/eV
      -------------------------------------------------------------
         1        2.0000           -0.7759107             -21.1136
       ...           ...                  ...                  ...
       220        2.0000           -0.3872757             -10.5383
       221        2.0000           -0.3781782             -10.2908
       222        2.0000           -0.3717121             -10.1148
       223        2.0000           -0.3693761             -10.0512
       224        2.0000           -0.3687326             -10.0337
       225        2.0000           -0.3655890              -9.9482
       226        1.9994           -0.3587625              -9.7624 (HOMO)
       227        0.0005           -0.3432012              -9.3390 (LUMO)
       228        0.0000           -0.3401097              -9.2549
       229        0.0000           -0.3395970              -9.2409
       230                         -0.3303270              -8.9887
       231                         -0.3289033              -8.9499
       ...                                ...                  ...
       479                          0.7303207              19.8730
      -------------------------------------------------------------
                  HL-Gap            0.0155613 Eh            0.4234 eV
             Fermi-level           -0.3510096 Eh           -9.5515 eV

 SCC (total)                   0 d,  0 h,  0 min,  0.405 sec
 SCC setup                      ...        0 min,  0.003 sec (  0.822%)
 Dispersion                     ...        0 min,  0.004 sec (  1.043%)
 classical contributions        ...        0 min,  0.000 sec (  0.040%)
 integral evaluation            ...        0 min,  0.022 sec (  5.427%)
 iterations                     ...        0 min,  0.323 sec ( 79.706%)
 molecular gradient             ...        0 min,  0.051 sec ( 12.499%)
 printout                       ...        0 min,  0.002 sec (  0.443%)

         :::::::::::::::::::::::::::::::::::::::::::::::::::::
         ::                     SUMMARY                     ::
         :::::::::::::::::::::::::::::::::::::::::::::::::::::
         :: total energy            -248.311143467863 Eh    ::
         :: total w/o Gsasa/hb      -248.322586632012 Eh    ::
         :: gradient norm              0.046796376791 Eh/a0 ::
         :: HOMO-LUMO gap              0.423444513474 eV    ::
         ::.................................................::
         :: SCC energy              -251.585420989698 Eh    ::
         :: -> isotropic ES            0.258466885214 Eh    ::
         :: -> anisotropic ES         -0.005629505316 Eh    ::
         :: -> anisotropic XC          0.091499624461 Eh    ::
         :: -> dispersion             -0.212971820568 Eh    ::
         :: -> Gsolv                  -0.034966182595 Eh    ::
         ::    -> Gelec               -0.046409346743 Eh    ::
         ::    -> Gsasa                0.017540915789 Eh    ::
         ::    -> Ghb                 -0.007178511338 Eh    ::
         ::    -> Gshift               0.001080759698 Eh    ::
         :: repulsion energy           3.276132752124 Eh    ::
         :: add. restraining           0.000000000000 Eh    ::
         :: total charge              -0.000000000000 e     ::
         :::::::::::::::::::::::::::::::::::::::::::::::::::::

           -------------------------------------------------
          |                Property Printout                |
           -------------------------------------------------

    * Orbital Energies and Occupations

         #    Occupation            Energy/Eh            Energy/eV
      -------------------------------------------------------------
         1        2.0000           -0.7759107             -21.1136
       ...           ...                  ...                  ...
       214        2.0000           -0.4141046             -11.2684
       215        2.0000           -0.4090960             -11.1321
       216        2.0000           -0.4081621             -11.1067
       217        2.0000           -0.4074269             -11.0867
       218        2.0000           -0.3973155             -10.8115
       219        2.0000           -0.3922616             -10.6740
       220        2.0000           -0.3872757             -10.5383
       221        2.0000           -0.3781782             -10.2908
       222        2.0000           -0.3717121             -10.1148
       223        2.0000           -0.3693761             -10.0512
       224        2.0000           -0.3687326             -10.0337
       225        2.0000           -0.3655890              -9.9482
       226        1.9994           -0.3587625              -9.7624 (HOMO)
       227        0.0005           -0.3432012              -9.3390 (LUMO)
       228        0.0000           -0.3401097              -9.2549
       229        0.0000           -0.3395970              -9.2409
       230                         -0.3303270              -8.9887
       231                         -0.3289033              -8.9499
       232                         -0.3231607              -8.7937
       233                         -0.2957728              -8.0484
       234                         -0.2946504              -8.0178
       235                         -0.2932610              -7.9800
       236                         -0.2904605              -7.9038
       237                         -0.2859639              -7.7815
       ...                                ...                  ...
       479                          0.7303207              19.8730
      -------------------------------------------------------------
                  HL-Gap            0.0155613 Eh            0.4234 eV
             Fermi-level           -0.3510096 Eh           -9.5515 eV

     #   Z          covCN         q      C6AA      α(0)
     1   6 C        2.953    -0.032    28.795     8.801
     2  16 S        2.244     0.058   138.716    19.823
     3   6 C        3.062    -0.034    28.792     8.799
     4   6 C        3.294    -0.028    26.982     8.330
     5   6 C        3.016     0.096    25.843     8.339
     6  16 S        1.039    -0.292   151.705    20.831
     7   6 C        3.089     0.013    27.612     8.613
     8   6 C        3.082     0.012    27.659     8.622
     9  16 S        2.277     0.047   139.147    19.854
    10   6 C        3.283    -0.025    27.076     8.366
    11   6 C        3.053    -0.036    28.843     8.808
    12   6 C        2.998     0.027    27.397     8.586
    13   6 C        2.941    -0.037    28.922     8.820
    14   6 C        2.904    -0.037    28.927     8.819
    15   6 C        2.989    -0.005    28.148     8.703
    16   6 C        3.333     0.067    24.222     7.802
    17   6 C        3.345     0.065    24.018     7.738
    18   7 N        1.924    -0.289    28.332     7.892
    19  16 S        2.649     0.398   125.887    18.884
    20   7 N        1.855    -0.282    28.158     7.865
    21   6 C        2.998    -0.011    28.282     8.724
    22   6 C        3.122    -0.003    27.920     8.653
    23   6 C        3.069    -0.035    28.801     8.800
    24   6 C        2.985    -0.014    28.356     8.735
    25   6 C        2.748     0.361    20.870     7.480
    26   8 O        0.857    -0.478    23.299     6.472
    27   8 O        1.707    -0.274    18.543     5.814
    28   6 C        3.699     0.072    19.538     6.322
    29   6 C        3.750    -0.126    22.988     6.838
    30  16 S        2.270    -0.006   141.321    20.008
    31   6 C        3.013     0.022    27.490     8.601
    32   6 C        3.001     0.019    27.576     8.614
    33  16 S        2.333     0.050   139.022    19.845
    34   6 C        3.052    -0.037    28.868     8.812
    35   6 C        3.276    -0.025    27.206     8.400
    36   6 C        3.014     0.097    25.839     8.338
    37  16 S        1.038    -0.293   151.737    20.833
    38   6 C        3.084     0.012    27.658     8.621
    39   6 C        3.091     0.017    27.522     8.599
    40  16 S        2.255     0.038   139.524    19.880
    41   6 C        3.273    -0.024    27.226     8.409
    42   6 C        3.058    -0.040    28.936     8.821
    43   6 C        2.991     0.029    27.345     8.578
    44   6 C        2.917    -0.041    29.030     8.835
    45   6 C        2.923    -0.040    28.989     8.829
    46   6 C        2.997     0.028    27.365     8.581
    47  16 S        2.266     0.054   138.865    19.833
    48   6 C        3.062    -0.036    28.839     8.806
    49   6 C        3.289    -0.024    26.968     8.338
    50   6 C        3.013     0.098    25.811     8.334
    51  16 S        1.039    -0.293   151.725    20.833
    52   6 C        3.082     0.013    27.636     8.618
    53   6 C        3.081     0.015    27.586     8.611
    54  16 S        2.270     0.059   138.665    19.819
    55   6 C        3.284    -0.024    27.045     8.360
    56   6 C        3.053    -0.036    28.835     8.807
    57   6 C        2.999     0.027    27.393     8.585
    58   6 C        2.934    -0.034    28.857     8.810
    59   6 C        2.906    -0.037    28.921     8.818
    60   6 C        2.985    -0.001    28.047     8.687
    61   6 C        3.340     0.067    24.081     7.760
    62   6 C        3.353     0.069    23.777     7.675
    63   7 N        1.851    -0.301    28.652     7.933
    64  16 S        2.673     0.407   125.557    18.859
    65   7 N        1.853    -0.280    28.122     7.860
    66   6 C        2.965    -0.006    28.159     8.704
    67   6 C        3.130     0.001    27.797     8.632
    68   6 C        3.063    -0.035    28.795     8.800
    69   6 C        2.986    -0.010    28.257     8.720
    70   6 C        2.758     0.363    20.851     7.478
    71   8 O        0.857    -0.468    23.092     6.443
    72   8 O        1.705    -0.281    18.671     5.834
    73   6 C        3.701     0.071    19.534     6.320
    74   6 C        3.750    -0.125    22.969     6.835
    75  16 S        2.275    -0.002   141.126    19.994
    76   6 C        3.011     0.023    27.481     8.599
    77   6 C        2.987    -0.003    28.090     8.694
    78   6 C        3.361     0.073    23.538     7.615
    79   6 C        3.349     0.068    23.882     7.704
    80   7 N        1.851    -0.290    28.380     7.896
    81  16 S        2.689     0.427   124.852    18.806
    82   7 N        1.851    -0.297    28.548     7.919
    83   6 C        2.906    -0.052    29.284     8.873
    84   6 C        3.121     0.012    27.567     8.599
    85   6 C        3.052    -0.038    28.885     8.814
    86   6 C        2.985    -0.004    28.115     8.698
    87   6 C        2.757     0.363    20.849     7.477
    88   8 O        0.857    -0.472    23.166     6.453
    89   8 O        1.705    -0.275    18.554     5.816
    90   6 C        3.701     0.070    19.555     6.324
    91   6 C        3.750    -0.128    23.014     6.842
    92  16 S        2.254    -0.027   142.177    20.069
    93   6 C        3.004     0.028    27.366     8.581
    94   1 H        0.926     0.084     1.937     2.176
    95   1 H        0.926     0.072     2.068     2.249
    96   1 H        0.926     0.072     2.065     2.247
    97   1 H        0.926     0.084     1.935     2.175
    98   1 H        0.925     0.062     2.173     2.305
    99   1 H        0.926     0.069     2.101     2.267
   100   1 H        0.924     0.083     1.950     2.184
   101   1 H        0.924     0.059     2.214     2.327
   102   1 H        0.925     0.051     2.309     2.376
   103   1 H        0.925     0.073     2.048     2.238
   104   1 H        0.925     0.066     2.128     2.281
   105   1 H        0.926     0.065     2.141     2.288
   106   1 H        0.926     0.076     2.016     2.221
   107   1 H        0.925     0.080     1.976     2.198
   108   1 H        0.925     0.080     1.981     2.201
   109   1 H        0.926     0.067     2.119     2.276
   110   1 H        0.926     0.072     2.063     2.246
   111   1 H        0.926     0.088     1.900     2.156
   112   1 H        0.925     0.063     2.161     2.299
   113   1 H        0.926     0.071     2.079     2.255
   114   1 H        0.924     0.083     1.948     2.183
   115   1 H        0.924     0.063     2.167     2.302
   116   1 H        0.925     0.053     2.287     2.365
   117   1 H        0.925     0.059     2.206     2.323
   118   1 H        0.925     0.075     2.027     2.226
   119   1 H        0.926     0.087     1.907     2.159
   120   1 H        0.926     0.094     1.838     2.120
   121   1 H        0.924     0.059     2.208     2.324
   122   1 H        0.924     0.086     1.922     2.168
   123   1 H        0.925     0.067     2.116     2.275
   124   1 H        0.925     0.074     2.042     2.235
   125   1 H        0.925     0.052     2.296     2.370

 Mol. C6AA /au·bohr⁶  :     386279.177142
 Mol. C8AA /au·bohr⁸  :   12220951.235023
 Mol. α(0) /au        :       1003.635629


Wiberg/Mayer (AO) data.
largest (>0.10) Wiberg bond orders for each atom

 ---------------------------------------------------------------------------
     #   Z sym  total        # sym  WBO       # sym  WBO       # sym  WBO
 ---------------------------------------------------------------------------
     1   6 C    3.893 --     3 C    1.615     2 S    1.169    94 H    0.965
     2  16 S    2.621 --     7 C    1.210     1 C    1.169
     3   6 C    3.987 --     1 C    1.615     4 C    1.264    95 H    0.959
     4   6 C    3.946 --     7 C    1.342     3 C    1.264     5 C    1.130
     5   6 C    3.960 --     6 S    1.628     4 C    1.130    10 C    1.090
     6  16 S    1.868 --     5 C    1.628
     7   6 C    3.952 --     4 C    1.342     2 S    1.210     8 C    1.161
     8   6 C    3.912 --    10 C    1.318     9 S    1.214     7 C    1.161
     9  16 S    2.589 --     8 C    1.214    12 C    1.105
    10   6 C    3.968 --    11 C    1.349     8 C    1.318     5 C    1.090
    11   6 C    3.953 --    12 C    1.424    10 C    1.349    96 H    0.956
    12   6 C    3.916 --    11 C    1.424    13 C    1.224     9 S    1.105
    13   6 C    3.922 --    14 C    1.609    12 C    1.224    97 H    0.947
    14   6 C    3.959 --    13 C    1.609    15 C    1.199    98 H    0.950
    15   6 C    3.929 --    31 C    1.338    14 C    1.199    16 C    1.190
    16   6 C    3.961 --    20 N    1.388    15 C    1.190    17 C    1.162
    17   6 C    3.969 --    18 N    1.376    21 C    1.212    16 C    1.162
    18   7 N    3.097 --    19 S    1.413    17 C    1.376    20 N    0.153
    19  16 S    3.152 --    20 N    1.425    18 N    1.413
    20   7 N    3.076 --    19 S    1.425    16 C    1.388    18 N    0.153
    21   6 C    3.913 --    22 C    1.277    17 C    1.212    32 C    1.189
    22   6 C    3.969 --    21 C    1.277    31 C    1.243    23 C    1.232
    23   6 C    3.980 --    24 C    1.569    22 C    1.232    99 H    0.953
                            30 S    0.107
    24   6 C    3.922 --    23 C    1.569    30 S    1.107    25 C    1.043
    25   6 C    3.915 --    26 O    1.663    27 O    1.137    24 C    1.043
    26   8 O    1.972 --    25 C    1.663    27 O    0.166
    27   8 O    2.308 --    25 C    1.137    28 C    0.923    26 O    0.166
    28   6 C    3.908 --    29 C    1.011   101 H    0.969   100 H    0.968
                            27 O    0.923
    29   6 C    3.986 --    28 C    1.011   102 H    0.986   104 H    0.985
                           103 H    0.980
    30  16 S    2.563 --    31 C    1.122    24 C    1.107    23 C    0.107
    31   6 C    3.925 --    15 C    1.338    22 C    1.243    30 S    1.122
    32   6 C    3.913 --    34 C    1.430    21 C    1.189    33 S    1.106
    33  16 S    2.645 --    38 C    1.214    32 C    1.106
    34   6 C    3.946 --    32 C    1.430    35 C    1.348   105 H    0.954
    35   6 C    3.952 --    34 C    1.348    38 C    1.297    36 C    1.102
    36   6 C    3.958 --    37 S    1.628    41 C    1.117    35 C    1.102
    37  16 S    1.864 --    36 C    1.628
    38   6 C    3.905 --    35 C    1.297    33 S    1.214    39 C    1.180
    39   6 C    3.939 --    41 C    1.310    40 S    1.208    38 C    1.180
    40  16 S    2.606 --    39 C    1.208    43 C    1.098
    41   6 C    3.943 --    42 C    1.313    39 C    1.310    36 C    1.117
    42   6 C    3.968 --    43 C    1.476    41 C    1.313   106 H    0.958
    43   6 C    3.896 --    42 C    1.476    44 C    1.168    40 S    1.098
    44   6 C    3.958 --    45 C    1.689    43 C    1.168   107 H    0.949
    45   6 C    3.951 --    44 C    1.689    46 C    1.153   108 H    0.954
    46   6 C    3.901 --    48 C    1.471    45 C    1.153    47 S    1.111
    47  16 S    2.586 --    52 C    1.203    46 C    1.111
    48   6 C    3.982 --    46 C    1.471    49 C    1.318   109 H    0.957
    49   6 C    3.951 --    48 C    1.318    52 C    1.314    50 C    1.112
    50   6 C    3.960 --    51 S    1.630    49 C    1.112    55 C    1.107
    51  16 S    1.870 --    50 C    1.630
    52   6 C    3.937 --    49 C    1.314    47 S    1.203    53 C    1.179
    53   6 C    3.921 --    55 C    1.300    54 S    1.216    52 C    1.179
    54  16 S    2.585 --    53 C    1.216    57 C    1.102
    55   6 C    3.955 --    56 C    1.345    53 C    1.300    50 C    1.107
    56   6 C    3.955 --    57 C    1.432    55 C    1.345   110 H    0.956
    57   6 C    3.908 --    56 C    1.432    58 C    1.218    54 S    1.102
    58   6 C    3.935 --    59 C    1.622    57 C    1.218   111 H    0.948
    59   6 C    3.955 --    58 C    1.622    60 C    1.188   112 H    0.949
    60   6 C    3.964 --    76 C    1.351    61 C    1.197    59 C    1.188
    61   6 C    3.961 --    65 N    1.391    60 C    1.197    62 C    1.151
    62   6 C    3.974 --    63 N    1.359    66 C    1.250    61 C    1.151
    63   7 N    3.053 --    64 S    1.443    62 C    1.359    65 N    0.161
    64  16 S    3.175 --    63 N    1.443    65 N    1.424
    65   7 N    3.080 --    64 S    1.424    61 C    1.391    63 N    0.161
    66   6 C    3.905 --    67 C    1.332    62 C    1.250    77 C    1.059
    67   6 C    3.981 --    66 C    1.332    76 C    1.229    68 C    1.210
    68   6 C    3.981 --    69 C    1.587    67 C    1.210   113 H    0.956
                            75 S    0.113
    69   6 C    3.932 --    68 C    1.587    75 S    1.106    70 C    1.038
    70   6 C    3.919 --    71 O    1.675    72 O    1.135    69 C    1.038
    71   8 O    1.982 --    70 C    1.675    72 O    0.167
    72   8 O    2.297 --    70 C    1.135    73 C    0.922    71 O    0.167
    73   6 C    3.906 --    74 C    1.012   115 H    0.968   114 H    0.968
                            72 O    0.922
    74   6 C    3.988 --    73 C    1.012   116 H    0.986   117 H    0.985
                           118 H    0.980
    75  16 S    2.562 --    76 C    1.121    69 C    1.106    68 C    0.113
    76   6 C    3.923 --    60 C    1.351    67 C    1.229    75 S    1.121
    77   6 C    3.986 --    93 C    1.419    78 C    1.231    66 C    1.059
                            83 C    0.109
    78   6 C    3.964 --    82 N    1.369    77 C    1.231    79 C    1.143
    79   6 C    3.974 --    80 N    1.344    83 C    1.306    78 C    1.143
    80   7 N    3.057 --    81 S    1.458    79 C    1.344    82 N    0.168
    81  16 S    3.204 --    80 N    1.458    82 N    1.443
    82   7 N    3.076 --    81 S    1.443    78 C    1.369    80 N    0.168
    83   6 C    3.959 --    84 C    1.412    79 C    1.306   119 H    0.959
                            77 C    0.109
    84   6 C    3.986 --    83 C    1.412    85 C    1.200    93 C    1.196
    85   6 C    3.979 --    86 C    1.597    84 C    1.200   120 H    0.954
                            92 S    0.114
    86   6 C    3.932 --    85 C    1.597    92 S    1.099    87 C    1.035
    87   6 C    3.920 --    88 O    1.673    89 O    1.140    86 C    1.035
    88   8 O    1.981 --    87 C    1.673    89 O    0.168
    89   8 O    2.305 --    87 C    1.140    90 C    0.922    88 O    0.168
    90   6 C    3.906 --    91 C    1.011   121 H    0.969   122 H    0.968
                            89 O    0.922
    91   6 C    3.987 --    90 C    1.011   125 H    0.986   123 H    0.984
                           124 H    0.980
    92  16 S    2.545 --    93 C    1.111    86 C    1.099    85 C    0.114
    93   6 C    3.938 --    77 C    1.419    84 C    1.196    92 S    1.111
    94   1 H    0.992 --     1 C    0.965
    95   1 H    0.994 --     3 C    0.959
    96   1 H    0.994 --    11 C    0.956
    97   1 H    0.992 --    13 C    0.947
    98   1 H    0.995 --    14 C    0.950
    99   1 H    0.995 --    23 C    0.953
   100   1 H    0.992 --    28 C    0.968
   101   1 H    0.996 --    28 C    0.969
   102   1 H    0.997 --    29 C    0.986
   103   1 H    0.994 --    29 C    0.980
   104   1 H    0.996 --    29 C    0.985
   105   1 H    0.995 --    34 C    0.954
   106   1 H    0.994 --    42 C    0.958
   107   1 H    0.991 --    44 C    0.949
   108   1 H    0.990 --    45 C    0.954
   109   1 H    0.995 --    48 C    0.957
   110   1 H    0.994 --    56 C    0.956
   111   1 H    0.991 --    58 C    0.948
   112   1 H    0.995 --    59 C    0.949
   113   1 H    0.994 --    68 C    0.956
   114   1 H    0.992 --    73 C    0.968
   115   1 H    0.996 --    73 C    0.968
   116   1 H    0.997 --    74 C    0.986
   117   1 H    0.996 --    74 C    0.985
   118   1 H    0.994 --    74 C    0.980
   119   1 H    0.992 --    83 C    0.959
   120   1 H    0.990 --    85 C    0.954
   121   1 H    0.996 --    90 C    0.969
   122   1 H    0.992 --    90 C    0.968
   123   1 H    0.995 --    91 C    0.984
   124   1 H    0.994 --    91 C    0.980
   125   1 H    0.997 --    91 C    0.986
 ---------------------------------------------------------------------------

Topologies differ in bond orders
Writing corrected topology to xtbtopo.mol

molecular dipole:
                 x           y           z       tot (Debye)
 q only:       -0.962       5.325      -4.274
   full:       -0.278       4.223      -4.286      15.311
molecular quadrupole (traceless):
                xx          xy          yy          xz          yz          zz
 q only:       71.157     -61.471     -12.367     -80.296      40.451     -58.790
  q+dip:       50.198     -45.224     -35.676     -69.792      27.011     -14.522
   full:       50.480     -39.366     -31.807     -62.404      35.046     -18.673


           -------------------------------------------------
          | TOTAL ENERGY             -248.311143467863 Eh   |
          | GRADIENT NORM               0.046796376791 Eh/α |
          | HOMO-LUMO GAP               0.423444513474 eV   |
           -------------------------------------------------

------------------------------------------------------------------------
 * finished run on 2022/02/28 at 19:02:09.248     
------------------------------------------------------------------------
 total:
 * wall-time:     0 d,  0 h,  0 min,  0.642 sec
 *  cpu-time:     0 d,  0 h,  0 min,  4.723 sec
 * ratio c/w:     7.352 speedup
 SCF:
 * wall-time:     0 d,  0 h,  0 min,  0.407 sec
 *  cpu-time:     0 d,  0 h,  0 min,  3.239 sec
 * ratio c/w:     7.950 speedup

