      -----------------------------------------------------------      
     |                   =====================                   |     
     |                           x T B                           |     
     |                   =====================                   |     
     |                         S. Grimme                         |     
     |          Mulliken Center for Theoretical Chemistry        |     
     |                    University of Bonn                     |     
      -----------------------------------------------------------      

   * xtb version 6.4.1 (unknown) compiled by 'oda6@login1.crc.pitt.edu' on 2021-06-25

   xtb is free software: you can redistribute it and/or modify it under
   the terms of the GNU Lesser General Public License as published by
   the Free Software Foundation, either version 3 of the License, or
   (at your option) any later version.
   
   xtb is distributed in the hope that it will be useful,
   but WITHOUT ANY WARRANTY; without even the implied warranty of
   MERCHANTABILITY or FITNESS FOR A PARTICULAR PURPOSE.  See the
   GNU Lesser General Public License for more details.
   
   Cite this work as:
   * C. Bannwarth, E. Caldeweyher, S. Ehlert, A. Hansen, P. Pracht,
     J. Seibert, S. Spicher, S. Grimme, WIREs Comput. Mol. Sci., 2020, 11,
     e01493. DOI: 10.1002/wcms.1493
   
   for GFN2-xTB:
   * C. Bannwarth, S. Ehlert and S. Grimme., J. Chem. Theory Comput., 2019,
     15, 1652-1671. DOI: 10.1021/acs.jctc.8b01176
   for GFN1-xTB:
   * S. Grimme, C. Bannwarth, P. Shushkov, J. Chem. Theory Comput., 2017,
     13, 1989-2009. DOI: 10.1021/acs.jctc.7b00118
   for GFN0-xTB:
   * P. Pracht, E. Caldeweyher, S. Ehlert, S. Grimme, ChemRxiv, 2019, preprint.
     DOI: 10.26434/chemrxiv.8326202.v1
   for GFN-FF:
   * S. Spicher and S. Grimme, Angew. Chem. Int. Ed., 2020, 59, 15665-15673.
     DOI: 10.1002/anie.202004239
   
   for DFT-D4:
   * E. Caldeweyher, C. Bannwarth and S. Grimme, J. Chem. Phys., 2017,
     147, 034112. DOI: 10.1063/1.4993215
   * E. Caldeweyher, S. Ehlert, A. Hansen, H. Neugebauer, S. Spicher,
     C. Bannwarth and S. Grimme, J. Chem. Phys., 2019, 150, 154122.
     DOI: 10.1063/1.5090222
   * E. Caldeweyher, J.-M. Mewes, S. Ehlert and S. Grimme, Phys. Chem. Chem. Phys.
     2020, 22, 8499-8512. DOI: 10.1039/D0CP00502A
   
   for sTDA-xTB:
   * S. Grimme and C. Bannwarth, J. Chem. Phys., 2016, 145, 054103.
     DOI: 10.1063/1.4959605
   
   in the mass-spec context:
   * V. Asgeirsson, C. Bauer and S. Grimme, Chem. Sci., 2017, 8, 4879.
     DOI: 10.1039/c7sc00601b
   * J. Koopman and S. Grimme, ACS Omega 2019, 4, 12, 15120-15133.
     DOI: 10.1021/acsomega.9b02011
   
   for metadynamics refer to:
   * S. Grimme, J. Chem. Theory Comput., 2019, 155, 2847-2862
     DOI: 10.1021/acs.jctc.9b00143
   
   for SPH calculations refer to:
   * S. Spicher and S. Grimme, J. Chem. Theory Comput., 2021, 17, 1701-1714
     DOI: 10.1021/acs.jctc.0c01306
   
   with help from (in alphabetical order)
   P. Atkinson, C. Bannwarth, F. Bohle, G. Brandenburg, E. Caldeweyher
   M. Checinski, S. Dohm, S. Ehlert, S. Ehrlich, I. Gerasimov, J. Koopman
   C. Lavigne, S. Lehtola, F. März, M. Müller, F. Musil, H. Neugebauer
   J. Pisarek, C. Plett, P. Pracht, J. Seibert, P. Shushkov, S. Spicher
   M. Stahn, M. Steiner, T. Strunk, J. Stückrath, T. Rose, and J. Unsleber
   
 * started run on 2022/03/08 at 03:09:53.328     

           -------------------------------------------------
          |                Calculation Setup                |
           -------------------------------------------------

          program call               : /ihome/ghutchison/oda6/xtb/xtb-641/bin/xtb ../../GFN2_output/260_99_000001.mol --sp --alpb water
          hostname                   : smp-n44
          coordinate file            : ../../GFN2_output/260_99_000001.mol
          omp threads                :                     8
          number of atoms            :                   177
          number of electrons        :                   542
          charge                     :                     0
          spin                       :                   0.0
          first test random number   :      0.89631972563787

   ID    Z sym.   atoms
    1    6 C      1, 3-5, 7, 8, 10-16, 18-20, 22, 23, 25-31, 33-35, 37, 38,
                  40-46, 48-50, 52, 53, 55-61, 63-65, 67, 68, 70-83, 85-87,
                  89-96, 98-101, 103, 105, 106
    2   16 S      2, 17, 32, 47, 62, 84, 97, 104, 107
    3    8 O      6, 9, 21, 24, 36, 39, 51, 54, 66, 69
    4    9 F      88, 102
    5    1 H      108-177

           -------------------------------------------------
          |                 G F N 2 - x T B                 |
           -------------------------------------------------

        Reference                      10.1021/acs.jctc.8b01176
      * Hamiltonian:
        H0-scaling (s, p, d)           1.850000    2.230000    2.230000
        zeta-weighting                 0.500000
      * Dispersion:
        s8                             2.700000
        a1                             0.520000
        a2                             5.000000
        s9                             5.000000
      * Repulsion:
        kExp                           1.500000    1.000000
        rExp                           1.000000
      * Coulomb:
        alpha                          2.000000
        third order                    shell-resolved
        anisotropic                    true
        a3                             3.000000
        a5                             4.000000
        cn-shift                       1.200000
        cn-exp                         4.000000
        max-rad                        5.000000

      * Solvation model:               ALPB
        Solvent                        water
        Parameter file                 internal GFN2-xTB/ALPB
        Dielectric constant                8.0200E+01
        Reference state                gsolv [1 M gas/solution]
        Free energy shift                  1.0808E-03 Eh       6.7819E-01 kcal/mol
        Temperature                        2.9815E+02 K
        Density                            1.0000E+00 kg/L
        Solvent mass                       1.8000E+01 g/mol
        Interaction kernel             P16
        Born radius scaling (c1)           1.4744E+00
        Born radii integrator          GBOBC
        Born offset                        0.0000E+00 a0       0.0000E+00 AA
        H-bond correction              true
        Ion screening                  false
        Surface tension                    1.0000E-05 Eh       1.5569E+01 dyn/cm
        Grid points                               230 per atom

          ...................................................
          :                      SETUP                      :
          :.................................................:
          :  # basis functions                 552          :
          :  # atomic orbitals                 543          :
          :  # shells                          293          :
          :  # electrons                       542          :
          :  max. iterations                   250          :
          :  Hamiltonian                  GFN2-xTB          :
          :  restarted?                      false          :
          :  GBSA solvation                   true          :
          :  PC potential                    false          :
          :  electronic temp.          300.0000000     K    :
          :  accuracy                    1.0000000          :
          :  -> integral cutoff          0.2500000E+02      :
          :  -> integral neglect         0.1000000E-07      :
          :  -> SCF convergence          0.1000000E-05 Eh   :
          :  -> wf. convergence          0.1000000E-03 e    :
          :  Broyden damping             0.4000000          :
          ...................................................

 iter      E             dE          RMSdq      gap      omega  full diag
   1   -303.1756296 -0.303176E+03  0.451E+00    0.41       0.0  T
   2   -303.3592078 -0.183578E+00  0.249E+00    0.43       1.0  T
   3   -303.3135949  0.456129E-01  0.878E-01    0.48       1.0  T
   4   -303.3755570 -0.619621E-01  0.369E-01    0.45       1.0  T
   5   -303.3827925 -0.723549E-02  0.187E-01    0.45       1.0  T
   6   -303.3853444 -0.255191E-02  0.946E-02    0.45       1.0  T
   7   -303.3858654 -0.521048E-03  0.419E-02    0.45       1.0  T
   8   -303.3860082 -0.142756E-03  0.199E-02    0.45       1.0  T
   9   -303.3860198 -0.116080E-04  0.117E-02    0.45       1.0  T
  10   -303.3860266 -0.684989E-05  0.558E-03    0.45       1.3  T
  11   -303.3860283 -0.161548E-05  0.319E-03    0.45       2.4  T
  12   -303.3860286 -0.323634E-06  0.214E-03    0.45       3.5  T
  13   -303.3860288 -0.235688E-06  0.998E-04    0.45       7.5  T
  14   -303.3860289 -0.709010E-07  0.553E-04    0.45      13.6  T

   *** convergence criteria satisfied after 14 iterations ***

         #    Occupation            Energy/Eh            Energy/eV
      -------------------------------------------------------------
         1        2.0000           -0.8345799             -22.7101
       ...           ...                  ...                  ...
       265        2.0000           -0.3696311             -10.0582
       266        2.0000           -0.3670650              -9.9883
       267        2.0000           -0.3632376              -9.8842
       268        2.0000           -0.3586409              -9.7591
       269        2.0000           -0.3522071              -9.5840
       270        2.0000           -0.3397901              -9.2462
       271        1.9996           -0.3244696              -8.8293 (HOMO)
       272        0.0004           -0.3080540              -8.3826 (LUMO)
       273                         -0.2937389              -7.9930
       274                         -0.2820786              -7.6757
       275                         -0.2738940              -7.4530
       276                         -0.2648248              -7.2063
       ...                                ...                  ...
       543                          0.7364105              20.0387
      -------------------------------------------------------------
                  HL-Gap            0.0164157 Eh            0.4467 eV
             Fermi-level           -0.3162618 Eh           -8.6059 eV

 SCC (total)                   0 d,  0 h,  0 min,  0.560 sec
 SCC setup                      ...        0 min,  0.006 sec (  0.987%)
 Dispersion                     ...        0 min,  0.007 sec (  1.232%)
 classical contributions        ...        0 min,  0.000 sec (  0.059%)
 integral evaluation            ...        0 min,  0.027 sec (  4.873%)
 iterations                     ...        0 min,  0.421 sec ( 75.119%)
 molecular gradient             ...        0 min,  0.097 sec ( 17.309%)
 printout                       ...        0 min,  0.002 sec (  0.405%)

         :::::::::::::::::::::::::::::::::::::::::::::::::::::
         ::                     SUMMARY                     ::
         :::::::::::::::::::::::::::::::::::::::::::::::::::::
         :: total energy            -299.205346146390 Eh    ::
         :: total w/o Gsasa/hb      -299.201552159026 Eh    ::
         :: gradient norm              0.027359151079 Eh/a0 ::
         :: HOMO-LUMO gap              0.446692823451 eV    ::
         ::.................................................::
         :: SCC energy              -303.386028883944 Eh    ::
         :: -> isotropic ES            0.205719614337 Eh    ::
         :: -> anisotropic ES          0.021038680607 Eh    ::
         :: -> anisotropic XC          0.084128343980 Eh    ::
         :: -> dispersion             -0.277500251299 Eh    ::
         :: -> Gsolv                  -0.032934504459 Eh    ::
         ::    -> Gelec               -0.029140517095 Eh    ::
         ::    -> Gsasa                0.003064695194 Eh    ::
         ::    -> Ghb                 -0.007939442256 Eh    ::
         ::    -> Gshift               0.001080759698 Eh    ::
         :: repulsion energy           4.175767785696 Eh    ::
         :: add. restraining           0.000000000000 Eh    ::
         :: total charge              -0.000000000066 e     ::
         :::::::::::::::::::::::::::::::::::::::::::::::::::::

           -------------------------------------------------
          |                Property Printout                |
           -------------------------------------------------

    * Orbital Energies and Occupations

         #    Occupation            Energy/Eh            Energy/eV
      -------------------------------------------------------------
         1        2.0000           -0.8345799             -22.7101
       ...           ...                  ...                  ...
       259        2.0000           -0.3767552             -10.2520
       260        2.0000           -0.3759587             -10.2304
       261        2.0000           -0.3746663             -10.1952
       262        2.0000           -0.3744096             -10.1882
       263        2.0000           -0.3727965             -10.1443
       264        2.0000           -0.3717813             -10.1167
       265        2.0000           -0.3696311             -10.0582
       266        2.0000           -0.3670650              -9.9883
       267        2.0000           -0.3632376              -9.8842
       268        2.0000           -0.3586409              -9.7591
       269        2.0000           -0.3522071              -9.5840
       270        2.0000           -0.3397901              -9.2462
       271        1.9996           -0.3244696              -8.8293 (HOMO)
       272        0.0004           -0.3080540              -8.3826 (LUMO)
       273                         -0.2937389              -7.9930
       274                         -0.2820786              -7.6757
       275                         -0.2738940              -7.4530
       276                         -0.2648248              -7.2063
       277                         -0.2578509              -7.0165
       278                         -0.2525511              -6.8723
       279                         -0.2480112              -6.7487
       280                         -0.2422980              -6.5933
       281                         -0.2394617              -6.5161
       282                         -0.2337054              -6.3594
       ...                                ...                  ...
       543                          0.7364105              20.0387
      -------------------------------------------------------------
                  HL-Gap            0.0164157 Eh            0.4467 eV
             Fermi-level           -0.3162618 Eh           -8.6059 eV

     #   Z          covCN         q      C6AA      α(0)
     1   6 C        2.929    -0.041    29.028     8.836
     2  16 S        2.442    -0.001   141.103    19.993
     3   6 C        3.159    -0.005    27.832     8.625
     4   6 C        2.914    -0.077    29.926     8.970
     5   6 C        2.848     0.123    25.302     8.244
     6   8 O        1.707    -0.295    18.912     5.872
     7   6 C        3.635     0.026    20.526     6.520
     8   6 C        2.856     0.114    25.494     8.276
     9   8 O        1.704    -0.292    18.849     5.862
    10   6 C        3.642     0.023    20.538     6.516
    11   6 C        2.910    -0.080    30.007     8.982
    12   6 C        3.169    -0.016    28.039     8.652
    13   6 C        2.967     0.013    27.725     8.637
    14   6 C        2.914    -0.048    29.180     8.858
    15   6 C        2.917    -0.051    29.260     8.870
    16   6 C        2.965     0.021    27.538     8.608
    17  16 S        2.456    -0.036   142.541    20.094
    18   6 C        3.151    -0.012    28.020     8.658
    19   6 C        2.916    -0.070    29.755     8.945
    20   6 C        2.850     0.123    25.298     8.244
    21   8 O        1.707    -0.292    18.850     5.862
    22   6 C        3.635     0.025    20.538     6.521
    23   6 C        2.857     0.115    25.466     8.271
    24   8 O        1.704    -0.290    18.818     5.857
    25   6 C        3.643     0.022    20.551     6.517
    26   6 C        2.911    -0.080    30.012     8.983
    27   6 C        3.142    -0.014    28.116     8.676
    28   6 C        2.976     0.020    27.562     8.612
    29   6 C        2.936    -0.046    29.136     8.853
    30   6 C        2.934    -0.047    29.167     8.857
    31   6 C        2.973     0.023    27.487     8.600
    32  16 S        2.426    -0.042   142.774    20.111
    33   6 C        3.139    -0.013    28.090     8.674
    34   6 C        2.912    -0.079    29.967     8.977
    35   6 C        2.857     0.115    25.471     8.272
    36   8 O        1.704    -0.292    18.846     5.861
    37   6 C        3.642     0.021    20.567     6.520
    38   6 C        2.850     0.124    25.280     8.241
    39   8 O        1.707    -0.289    18.802     5.854
    40   6 C        3.635     0.023    20.562     6.525
    41   6 C        2.917    -0.072    29.806     8.953
    42   6 C        3.144    -0.011    28.028     8.662
    43   6 C        2.965     0.018    27.605     8.618
    44   6 C        2.916    -0.051    29.278     8.873
    45   6 C        2.917    -0.052    29.296     8.876
    46   6 C        2.965     0.021    27.546     8.609
    47  16 S        2.429    -0.055   143.340    20.151
    48   6 C        3.145    -0.014    28.101     8.673
    49   6 C        2.910    -0.082    30.040     8.987
    50   6 C        2.864     0.123    25.292     8.243
    51   8 O        1.705    -0.282    18.679     5.835
    52   6 C        3.646     0.022    20.545     6.514
    53   6 C        2.865     0.124    25.271     8.240
    54   8 O        1.705    -0.281    18.669     5.834
    55   6 C        3.647     0.021    20.551     6.514
    56   6 C        2.910    -0.082    30.044     8.988
    57   6 C        3.139    -0.012    28.087     8.674
    58   6 C        2.975     0.018    27.614     8.620
    59   6 C        2.935    -0.044    29.103     8.847
    60   6 C        2.935    -0.048    29.204     8.863
    61   6 C        2.974     0.024    27.475     8.598
    62  16 S        2.360    -0.061   143.571    20.167
    63   6 C        3.153    -0.013    28.053     8.662
    64   6 C        2.909    -0.080    29.991     8.980
    65   6 C        2.867     0.125    25.257     8.238
    66   8 O        1.706    -0.272    18.518     5.810
    67   6 C        3.648     0.040    20.216     6.460
    68   6 C        2.865     0.125    25.254     8.237
    69   8 O        1.705    -0.278    18.605     5.824
    70   6 C        3.647     0.033    20.350     6.482
    71   6 C        2.933    -0.074    29.853     8.961
    72   6 C        3.146    -0.009    27.979     8.654
    73   6 C        2.970     0.015    27.678     8.630
    74   6 C        2.951    -0.042    29.050     8.840
    75   6 C        2.912    -0.056    29.381     8.888
    76   6 C        2.972     0.034    27.245     8.562
    77   6 C        3.081    -0.067    29.574     8.915
    78   6 C        3.131    -0.005    27.949     8.655
    79   6 C        2.992    -0.010    28.268     8.722
    80   6 C        2.978     0.017    27.621     8.621
    81   6 C        2.922    -0.038    28.945     8.823
    82   6 C        2.978    -0.040    28.990     8.832
    83   6 C        2.960     0.032    27.286     8.568
    84  16 S        2.046    -0.197   149.423    20.574
    85   6 C        3.793    -0.004    20.659     6.473
    86   6 C        3.779    -0.108    22.595     6.772
    87   6 C        2.804     0.158    24.562     8.119
    88   9 F        0.787    -0.257    11.843     4.065
    89   6 C        2.924    -0.057    29.408     8.893
    90   6 C        3.006     0.022    27.501     8.602
    91   6 C        3.144    -0.008    27.960     8.652
    92   6 C        2.993    -0.008    28.199     8.711
    93   6 C        2.977     0.013    27.713     8.635
    94   6 C        2.922    -0.038    28.943     8.822
    95   6 C        2.987    -0.035    28.865     8.813
    96   6 C        2.959     0.034    27.237     8.560
    97  16 S        2.053    -0.163   147.937    20.471
    98   6 C        3.793    -0.000    20.597     6.463
    99   6 C        3.774    -0.104    22.513     6.761
   100   6 C        2.803     0.157    24.597     8.125
   101   6 C        2.927    -0.057    29.411     8.894
   102   9 F        0.787    -0.259    11.864     4.069
   103   6 C        3.009     0.019    27.558     8.611
   104  16 S        2.296    -0.092   144.894    20.259
   105   6 C        3.071    -0.052    29.210     8.862
   106   6 C        2.933    -0.016    28.406     8.741
   107  16 S        2.250    -0.075   144.174    20.209
   108   1 H        0.926     0.061     2.190     2.314
   109   1 H        0.926     0.055     2.255     2.348
   110   1 H        0.924     0.075     2.031     2.228
   111   1 H        0.924     0.058     2.222     2.331
   112   1 H        0.924     0.054     2.266     2.354
   113   1 H        0.925     0.082     1.962     2.191
   114   1 H        0.924     0.051     2.304     2.374
   115   1 H        0.924     0.054     2.274     2.358
   116   1 H        0.926     0.050     2.324     2.384
   117   1 H        0.925     0.047     2.361     2.403
   118   1 H        0.925     0.045     2.380     2.413
   119   1 H        0.926     0.049     2.330     2.387
   120   1 H        0.924     0.054     2.268     2.355
   121   1 H        0.924     0.075     2.035     2.231
   122   1 H        0.924     0.060     2.195     2.317
   123   1 H        0.924     0.052     2.296     2.369
   124   1 H        0.924     0.055     2.262     2.352
   125   1 H        0.925     0.081     1.966     2.193
   126   1 H        0.926     0.057     2.237     2.339
   127   1 H        0.925     0.056     2.249     2.345
   128   1 H        0.925     0.058     2.227     2.334
   129   1 H        0.926     0.057     2.235     2.338
   130   1 H        0.924     0.054     2.265     2.354
   131   1 H        0.924     0.054     2.270     2.356
   132   1 H        0.925     0.082     1.963     2.191
   133   1 H        0.925     0.076     2.016     2.220
   134   1 H        0.924     0.060     2.199     2.319
   135   1 H        0.924     0.057     2.238     2.340
   136   1 H        0.926     0.055     2.263     2.352
   137   1 H        0.925     0.051     2.313     2.378
   138   1 H        0.925     0.049     2.336     2.390
   139   1 H        0.926     0.051     2.302     2.373
   140   1 H        0.925     0.083     1.947     2.182
   141   1 H        0.924     0.055     2.255     2.348
   142   1 H        0.924     0.055     2.264     2.353
   143   1 H        0.924     0.055     2.254     2.348
   144   1 H        0.924     0.056     2.252     2.347
   145   1 H        0.925     0.083     1.947     2.182
   146   1 H        0.926     0.053     2.283     2.363
   147   1 H        0.925     0.051     2.302     2.373
   148   1 H        0.925     0.054     2.276     2.359
   149   1 H        0.926     0.056     2.250     2.346
   150   1 H        0.924     0.050     2.315     2.380
   151   1 H        0.924     0.045     2.380     2.412
   152   1 H        0.925     0.069     2.102     2.267
   153   1 H        0.924     0.056     2.247     2.344
   154   1 H        0.924     0.043     2.406     2.426
   155   1 H        0.925     0.073     2.056     2.242
   156   1 H        0.926     0.050     2.314     2.379
   157   1 H        0.925     0.051     2.301     2.372
   158   1 H        0.925     0.048     2.350     2.397
   159   1 H        0.926     0.040     2.454     2.450
   160   1 H        0.926     0.066     2.126     2.280
   161   1 H        0.926     0.074     2.038     2.232
   162   1 H        0.925     0.058     2.218     2.329
   163   1 H        0.925     0.065     2.138     2.287
   164   1 H        0.925     0.057     2.230     2.336
   165   1 H        0.925     0.057     2.231     2.336
   166   1 H        0.925     0.039     2.457     2.451
   167   1 H        0.926     0.067     2.120     2.277
   168   1 H        0.926     0.061     2.184     2.311
   169   1 H        0.926     0.060     2.197     2.318
   170   1 H        0.925     0.058     2.227     2.333
   171   1 H        0.925     0.056     2.244     2.342
   172   1 H        0.925     0.037     2.483     2.464
   173   1 H        0.925     0.062     2.178     2.308
   174   1 H        0.925     0.053     2.284     2.364
   175   1 H        0.926     0.065     2.138     2.287
   176   1 H        0.926     0.049     2.334     2.389
   177   1 H        0.926     0.062     2.170     2.304

 Mol. C6AA /au·bohr⁶  :     498726.649391
 Mol. C8AA /au·bohr⁸  :   13900488.825036
 Mol. α(0) /au        :       1128.108625


Wiberg/Mayer (AO) data.
largest (>0.10) Wiberg bond orders for each atom

 ---------------------------------------------------------------------------
     #   Z sym  total        # sym  WBO       # sym  WBO       # sym  WBO
 ---------------------------------------------------------------------------
     1   6 C    3.865 --     3 C    1.423     2 S    1.235   108 H    0.967
     2  16 S    2.696 --     1 C    1.235    13 C    1.141
     3   6 C    3.986 --     1 C    1.423     4 C    1.234    12 C    1.178
     4   6 C    3.962 --     5 C    1.512     3 C    1.234   109 H    0.965
     5   6 C    3.933 --     4 C    1.512     8 C    1.174     6 O    1.058
     6   8 O    2.206 --     5 C    1.058     7 C    0.969
     7   6 C    3.929 --   112 H    0.978   110 H    0.977   111 H    0.976
                             6 O    0.969
     8   6 C    3.900 --    11 C    1.494     5 C    1.174     9 O    1.050
     9   8 O    2.198 --     8 C    1.050    10 C    0.975
    10   6 C    3.932 --   113 H    0.976     9 O    0.975   114 H    0.975
                           115 H    0.974
    11   6 C    3.975 --     8 C    1.494    12 C    1.271   116 H    0.956
    12   6 C    3.950 --    13 C    1.303    11 C    1.271     3 C    1.178
    13   6 C    3.935 --    12 C    1.303    14 C    1.256     2 S    1.141
    14   6 C    3.911 --    15 C    1.550    13 C    1.256   117 H    0.951
    15   6 C    3.963 --    14 C    1.550    16 C    1.269   118 H    0.951
    16   6 C    3.877 --    15 C    1.269    18 C    1.265    17 S    1.138
    17  16 S    2.591 --    16 C    1.138    28 C    1.114
    18   6 C    3.963 --    19 C    1.286    16 C    1.265    27 C    1.214
    19   6 C    3.966 --    20 C    1.471    18 C    1.286   119 H    0.960
    20   6 C    3.912 --    19 C    1.471    23 C    1.196    21 O    1.062
    21   8 O    2.203 --    20 C    1.062    22 C    0.968
    22   6 C    3.928 --   120 H    0.979   121 H    0.977   122 H    0.975
                            21 O    0.968
    23   6 C    3.908 --    26 C    1.478    20 C    1.196    24 O    1.052
    24   8 O    2.202 --    23 C    1.052    25 C    0.974
    25   6 C    3.931 --   125 H    0.976   123 H    0.975   124 H    0.974
                            24 O    0.974
    26   6 C    3.968 --    23 C    1.478    27 C    1.279   126 H    0.958
    27   6 C    3.952 --    26 C    1.279    28 C    1.263    18 C    1.214
    28   6 C    3.906 --    29 C    1.311    27 C    1.263    17 S    1.114
    29   6 C    3.919 --    30 C    1.494    28 C    1.311   127 H    0.949
    30   6 C    3.935 --    29 C    1.494    31 C    1.317   128 H    0.945
    31   6 C    3.891 --    30 C    1.317    33 C    1.253    32 S    1.116
    32  16 S    2.570 --    43 C    1.122    31 C    1.116
    33   6 C    3.956 --    34 C    1.283    31 C    1.253    42 C    1.223
    34   6 C    3.966 --    35 C    1.474    33 C    1.283   129 H    0.957
    35   6 C    3.910 --    34 C    1.474    38 C    1.201    36 O    1.051
    36   8 O    2.201 --    35 C    1.051    37 C    0.974
    37   6 C    3.931 --   132 H    0.976   130 H    0.975   131 H    0.975
                            36 O    0.974
    38   6 C    3.910 --    41 C    1.461    35 C    1.201    39 O    1.066
    39   8 O    2.209 --    38 C    1.066    40 C    0.968
    40   6 C    3.927 --   135 H    0.977   133 H    0.977   134 H    0.976
                            39 O    0.968
    41   6 C    3.964 --    38 C    1.461    42 C    1.297   136 H    0.961
    42   6 C    3.958 --    41 C    1.297    43 C    1.247    33 C    1.223
    43   6 C    3.883 --    44 C    1.306    42 C    1.247    32 S    1.122
    44   6 C    3.921 --    45 C    1.494    43 C    1.306   137 H    0.948
    45   6 C    3.925 --    44 C    1.494    46 C    1.315   138 H    0.951
    46   6 C    3.894 --    45 C    1.315    48 C    1.249    47 S    1.124
    47  16 S    2.568 --    46 C    1.124    58 C    1.110
    48   6 C    3.954 --    49 C    1.272    46 C    1.249    57 C    1.232
    49   6 C    3.968 --    50 C    1.489    48 C    1.272   139 H    0.956
    50   6 C    3.907 --    49 C    1.489    53 C    1.172    51 O    1.067
    51   8 O    2.218 --    50 C    1.067    52 C    0.974
    52   6 C    3.928 --   140 H    0.976   142 H    0.975   141 H    0.974
                            51 O    0.974
    53   6 C    3.912 --    56 C    1.493    50 C    1.172    54 O    1.069
    54   8 O    2.220 --    53 C    1.069    55 C    0.973
    55   6 C    3.928 --   145 H    0.977   143 H    0.975   144 H    0.975
                            54 O    0.973
    56   6 C    3.966 --    53 C    1.493    57 C    1.265   146 H    0.959
    57   6 C    3.956 --    58 C    1.266    56 C    1.265    48 C    1.232
    58   6 C    3.887 --    59 C    1.303    57 C    1.266    47 S    1.110
    59   6 C    3.939 --    60 C    1.516    58 C    1.303   147 H    0.947
    60   6 C    3.914 --    59 C    1.516    61 C    1.288   148 H    0.948
    61   6 C    3.917 --    60 C    1.288    63 C    1.286    62 S    1.126
    62  16 S    2.533 --    61 C    1.126    73 C    1.111
    63   6 C    3.949 --    61 C    1.286    64 C    1.264    72 C    1.206
    64   6 C    3.967 --    65 C    1.494    63 C    1.264   149 H    0.958
    65   6 C    3.902 --    64 C    1.494    68 C    1.166    66 O    1.068
    66   8 O    2.227 --    65 C    1.068    67 C    0.975
    67   6 C    3.933 --    66 O    0.975   150 H    0.974   151 H    0.974
                           152 H    0.973
    68   6 C    3.921 --    71 C    1.498    65 C    1.166    69 O    1.065
    69   8 O    2.220 --    68 C    1.065    70 C    0.977
    70   6 C    3.934 --   155 H    0.978    69 O    0.977   154 H    0.975
                           153 H    0.974
    71   6 C    3.971 --    68 C    1.498    72 C    1.237   156 H    0.960
    72   6 C    3.979 --    73 C    1.324    71 C    1.237    63 C    1.206
    73   6 C    3.872 --    72 C    1.324    74 C    1.219    62 S    1.111
    74   6 C    3.950 --    75 C    1.617    73 C    1.219   157 H    0.956
    75   6 C    3.931 --    74 C    1.617    76 C    1.201   158 H    0.957
    76   6 C    3.934 --    77 C    1.498    75 C    1.201   104 S    1.083
    77   6 C    3.920 --    76 C    1.498    78 C    1.244   159 H    0.960
    78   6 C    3.979 --    79 C    1.281    77 C    1.244   103 C    1.238
    79   6 C    3.949 --    90 C    1.380    78 C    1.281    80 C    1.044
    80   6 C    3.984 --    89 C    1.382    81 C    1.374    79 C    1.044
    81   6 C    3.982 --    82 C    1.464    80 C    1.374   160 H    0.963
    82   6 C    3.985 --    81 C    1.464    83 C    1.379   161 H    0.964
                            89 C    0.101
    83   6 C    3.962 --    82 C    1.379    87 C    1.353    84 S    1.040
    84  16 S    2.204 --    83 C    1.040    85 C    0.970
    85   6 C    3.966 --    86 C    1.028   162 H    0.973    84 S    0.970
                           163 H    0.968
    86   6 C    3.993 --    85 C    1.028   165 H    0.985   166 H    0.985
                           164 H    0.977
    87   6 C    3.868 --    89 C    1.415    83 C    1.353    88 F    0.931
    88   9 F    1.057 --    87 C    0.931
    89   6 C    3.982 --    87 C    1.415    80 C    1.382   167 H    0.962
                            82 C    0.101
    90   6 C    3.950 --    79 C    1.380    91 C    1.263   107 S    1.095
    91   6 C    3.962 --    92 C    1.293    90 C    1.263   105 C    1.193
    92   6 C    3.978 --   103 C    1.376    91 C    1.293    93 C    1.052
    93   6 C    3.985 --   101 C    1.376    94 C    1.368    92 C    1.052
    94   6 C    3.984 --    95 C    1.470    93 C    1.368   168 H    0.961
    95   6 C    3.986 --    94 C    1.470    96 C    1.368   169 H    0.965
                           101 C    0.100
    96   6 C    3.963 --    95 C    1.368   100 C    1.347    97 S    1.060
    97  16 S    2.266 --    96 C    1.060    98 C    0.972
    98   6 C    3.969 --    99 C    1.027   171 H    0.974    97 S    0.972
                           170 H    0.964
    99   6 C    3.991 --    98 C    1.027   172 H    0.985   173 H    0.979
                           174 H    0.977
   100   6 C    3.867 --   101 C    1.418    96 C    1.347   102 F    0.928
   101   6 C    3.983 --   100 C    1.418    93 C    1.376   175 H    0.962
                            95 C    0.100
   102   9 F    1.053 --   100 C    0.928
   103   6 C    3.942 --    92 C    1.376    78 C    1.238   104 S    1.104
   104  16 S    2.547 --   103 C    1.104    76 C    1.083
   105   6 C    3.981 --   106 C    1.683    91 C    1.193   176 H    0.960
   106   6 C    3.924 --   105 C    1.683   107 S    1.142   177 H    0.967
   107  16 S    2.518 --   106 C    1.142    90 C    1.095
   108   1 H    0.995 --     1 C    0.967
   109   1 H    0.996 --     4 C    0.965
   110   1 H    0.994 --     7 C    0.977
   111   1 H    0.995 --     7 C    0.976
   112   1 H    0.996 --     7 C    0.978
   113   1 H    0.993 --    10 C    0.976
   114   1 H    0.996 --    10 C    0.975
   115   1 H    0.996 --    10 C    0.974
   116   1 H    0.997 --    11 C    0.956
   117   1 H    0.997 --    14 C    0.951
   118   1 H    0.995 --    15 C    0.951
   119   1 H    0.996 --    19 C    0.960
   120   1 H    0.996 --    22 C    0.979
   121   1 H    0.994 --    22 C    0.977
   122   1 H    0.995 --    22 C    0.975
   123   1 H    0.996 --    25 C    0.975
   124   1 H    0.996 --    25 C    0.974
   125   1 H    0.993 --    25 C    0.976
   126   1 H    0.996 --    26 C    0.958
   127   1 H    0.996 --    29 C    0.949
   128   1 H    0.996 --    30 C    0.945
   129   1 H    0.996 --    34 C    0.957
   130   1 H    0.996 --    37 C    0.975
   131   1 H    0.996 --    37 C    0.975
   132   1 H    0.993 --    37 C    0.976
   133   1 H    0.993 --    40 C    0.977
   134   1 H    0.995 --    40 C    0.976
   135   1 H    0.995 --    40 C    0.977
   136   1 H    0.996 --    41 C    0.961
   137   1 H    0.994 --    44 C    0.948
   138   1 H    0.997 --    45 C    0.951
   139   1 H    0.996 --    49 C    0.956
   140   1 H    0.993 --    52 C    0.976
   141   1 H    0.996 --    52 C    0.974
   142   1 H    0.996 --    52 C    0.975
   143   1 H    0.996 --    55 C    0.975
   144   1 H    0.996 --    55 C    0.975
   145   1 H    0.993 --    55 C    0.977
   146   1 H    0.996 --    56 C    0.959
   147   1 H    0.996 --    59 C    0.947
   148   1 H    0.997 --    60 C    0.948
   149   1 H    0.996 --    64 C    0.958
   150   1 H    0.996 --    67 C    0.974
   151   1 H    0.997 --    67 C    0.974
   152   1 H    0.995 --    67 C    0.973
   153   1 H    0.996 --    70 C    0.974
   154   1 H    0.998 --    70 C    0.975
   155   1 H    0.994 --    70 C    0.978
   156   1 H    0.996 --    71 C    0.960
   157   1 H    0.993 --    74 C    0.956
   158   1 H    0.997 --    75 C    0.957
   159   1 H    0.998 --    77 C    0.960
   160   1 H    0.995 --    81 C    0.963
   161   1 H    0.994 --    82 C    0.964
   162   1 H    0.996 --    85 C    0.973
   163   1 H    0.995 --    85 C    0.968
   164   1 H    0.996 --    86 C    0.977
   165   1 H    0.997 --    86 C    0.985
   166   1 H    0.998 --    86 C    0.985
   167   1 H    0.995 --    89 C    0.962
   168   1 H    0.996 --    94 C    0.961
   169   1 H    0.996 --    95 C    0.965
   170   1 H    0.996 --    98 C    0.964
   171   1 H    0.996 --    98 C    0.974
   172   1 H    0.999 --    99 C    0.985
   173   1 H    0.996 --    99 C    0.979
   174   1 H    0.997 --    99 C    0.977
   175   1 H    0.996 --   101 C    0.962
   176   1 H    0.997 --   105 C    0.960
   177   1 H    0.995 --   106 C    0.967
 ---------------------------------------------------------------------------

Topologies differ in bond orders
Writing corrected topology to xtbtopo.mol

molecular dipole:
                 x           y           z       tot (Debye)
 q only:       -0.001      -0.489       2.912
   full:       -0.534       0.124       3.109       8.024
molecular quadrupole (traceless):
                xx          xy          yy          xz          yz          zz
 q only:       13.339      18.361      16.101      13.344       5.239     -29.441
  q+dip:       10.207      12.693      26.096      24.922       7.738     -36.303
   full:       13.634      10.375      22.055      25.197       6.297     -35.689


           -------------------------------------------------
          | TOTAL ENERGY             -299.205346146390 Eh   |
          | GRADIENT NORM               0.027359151079 Eh/α |
          | HOMO-LUMO GAP               0.446692823451 eV   |
           -------------------------------------------------

------------------------------------------------------------------------
 * finished run on 2022/03/08 at 03:09:53.972     
------------------------------------------------------------------------
 total:
 * wall-time:     0 d,  0 h,  0 min,  0.644 sec
 *  cpu-time:     0 d,  0 h,  0 min,  5.058 sec
 * ratio c/w:     7.850 speedup
 SCF:
 * wall-time:     0 d,  0 h,  0 min,  0.562 sec
 *  cpu-time:     0 d,  0 h,  0 min,  4.482 sec
 * ratio c/w:     7.970 speedup

