      -----------------------------------------------------------      
     |                   =====================                   |     
     |                           x T B                           |     
     |                   =====================                   |     
     |                         S. Grimme                         |     
     |          Mulliken Center for Theoretical Chemistry        |     
     |                    University of Bonn                     |     
      -----------------------------------------------------------      

   * xtb version 6.4.1 (unknown) compiled by 'oda6@login1.crc.pitt.edu' on 2021-06-25

   xtb is free software: you can redistribute it and/or modify it under
   the terms of the GNU Lesser General Public License as published by
   the Free Software Foundation, either version 3 of the License, or
   (at your option) any later version.
   
   xtb is distributed in the hope that it will be useful,
   but WITHOUT ANY WARRANTY; without even the implied warranty of
   MERCHANTABILITY or FITNESS FOR A PARTICULAR PURPOSE.  See the
   GNU Lesser General Public License for more details.
   
   Cite this work as:
   * C. Bannwarth, E. Caldeweyher, S. Ehlert, A. Hansen, P. Pracht,
     J. Seibert, S. Spicher, S. Grimme, WIREs Comput. Mol. Sci., 2020, 11,
     e01493. DOI: 10.1002/wcms.1493
   
   for GFN2-xTB:
   * C. Bannwarth, S. Ehlert and S. Grimme., J. Chem. Theory Comput., 2019,
     15, 1652-1671. DOI: 10.1021/acs.jctc.8b01176
   for GFN1-xTB:
   * S. Grimme, C. Bannwarth, P. Shushkov, J. Chem. Theory Comput., 2017,
     13, 1989-2009. DOI: 10.1021/acs.jctc.7b00118
   for GFN0-xTB:
   * P. Pracht, E. Caldeweyher, S. Ehlert, S. Grimme, ChemRxiv, 2019, preprint.
     DOI: 10.26434/chemrxiv.8326202.v1
   for GFN-FF:
   * S. Spicher and S. Grimme, Angew. Chem. Int. Ed., 2020, 59, 15665-15673.
     DOI: 10.1002/anie.202004239
   
   for DFT-D4:
   * E. Caldeweyher, C. Bannwarth and S. Grimme, J. Chem. Phys., 2017,
     147, 034112. DOI: 10.1063/1.4993215
   * E. Caldeweyher, S. Ehlert, A. Hansen, H. Neugebauer, S. Spicher,
     C. Bannwarth and S. Grimme, J. Chem. Phys., 2019, 150, 154122.
     DOI: 10.1063/1.5090222
   * E. Caldeweyher, J.-M. Mewes, S. Ehlert and S. Grimme, Phys. Chem. Chem. Phys.
     2020, 22, 8499-8512. DOI: 10.1039/D0CP00502A
   
   for sTDA-xTB:
   * S. Grimme and C. Bannwarth, J. Chem. Phys., 2016, 145, 054103.
     DOI: 10.1063/1.4959605
   
   in the mass-spec context:
   * V. Asgeirsson, C. Bauer and S. Grimme, Chem. Sci., 2017, 8, 4879.
     DOI: 10.1039/c7sc00601b
   * J. Koopman and S. Grimme, ACS Omega 2019, 4, 12, 15120-15133.
     DOI: 10.1021/acsomega.9b02011
   
   for metadynamics refer to:
   * S. Grimme, J. Chem. Theory Comput., 2019, 155, 2847-2862
     DOI: 10.1021/acs.jctc.9b00143
   
   for SPH calculations refer to:
   * S. Spicher and S. Grimme, J. Chem. Theory Comput., 2021, 17, 1701-1714
     DOI: 10.1021/acs.jctc.0c01306
   
   with help from (in alphabetical order)
   P. Atkinson, C. Bannwarth, F. Bohle, G. Brandenburg, E. Caldeweyher
   M. Checinski, S. Dohm, S. Ehlert, S. Ehrlich, I. Gerasimov, J. Koopman
   C. Lavigne, S. Lehtola, F. März, M. Müller, F. Musil, H. Neugebauer
   J. Pisarek, C. Plett, P. Pracht, J. Seibert, P. Shushkov, S. Spicher
   M. Stahn, M. Steiner, T. Strunk, J. Stückrath, T. Rose, and J. Unsleber
   
 * started run on 2022/02/28 at 17:01:15.794     

           -------------------------------------------------
          |                Calculation Setup                |
           -------------------------------------------------

          program call               : /ihome/ghutchison/oda6/xtb/xtb-641/bin/xtb ../../GFN2_output/410_161_101111.mol --sp --alpb water
          hostname                   : smp-n90
          coordinate file            : ../../GFN2_output/410_161_101111.mol
          omp threads                :                     8
          number of atoms            :                   226
          number of electrons        :                   690
          charge                     :                     0
          spin                       :                   0.0
          first test random number   :      0.23279400253086

   ID    Z sym.   atoms
    1    6 C      1-10, 12-20, 22, 24, 25, 27, 29-35, 37-46, 48-56, 58, 60,
                  61, 63-72, 74-82, 84, 86, 87, 89-98, 100-108, 110, 112,
                  113, 115-124, 126-134, 136, 138, 139
    2   16 S      11, 21, 23, 26, 28, 47, 57, 59, 62, 73, 83, 85, 88, 99,
                  109, 111, 114, 125, 135, 137, 140
    3    8 O      36
    4    1 H      141-226

           -------------------------------------------------
          |                 G F N 2 - x T B                 |
           -------------------------------------------------

        Reference                      10.1021/acs.jctc.8b01176
      * Hamiltonian:
        H0-scaling (s, p, d)           1.850000    2.230000    2.230000
        zeta-weighting                 0.500000
      * Dispersion:
        s8                             2.700000
        a1                             0.520000
        a2                             5.000000
        s9                             5.000000
      * Repulsion:
        kExp                           1.500000    1.000000
        rExp                           1.000000
      * Coulomb:
        alpha                          2.000000
        third order                    shell-resolved
        anisotropic                    true
        a3                             3.000000
        a5                             4.000000
        cn-shift                       1.200000
        cn-exp                         4.000000
        max-rad                        5.000000

      * Solvation model:               ALPB
        Solvent                        water
        Parameter file                 internal GFN2-xTB/ALPB
        Dielectric constant                8.0200E+01
        Reference state                gsolv [1 M gas/solution]
        Free energy shift                  1.0808E-03 Eh       6.7819E-01 kcal/mol
        Temperature                        2.9815E+02 K
        Density                            1.0000E+00 kg/L
        Solvent mass                       1.8000E+01 g/mol
        Interaction kernel             P16
        Born radius scaling (c1)           1.4744E+00
        Born radii integrator          GBOBC
        Born offset                        0.0000E+00 a0       0.0000E+00 AA
        H-bond correction              true
        Ion screening                  false
        Surface tension                    1.0000E-05 Eh       1.5569E+01 dyn/cm
        Grid points                               230 per atom

          ...................................................
          :                      SETUP                      :
          :.................................................:
          :  # basis functions                 772          :
          :  # atomic orbitals                 751          :
          :  # shells                          387          :
          :  # electrons                       690          :
          :  max. iterations                   250          :
          :  Hamiltonian                  GFN2-xTB          :
          :  restarted?                      false          :
          :  GBSA solvation                   true          :
          :  PC potential                    false          :
          :  electronic temp.          300.0000000     K    :
          :  accuracy                    1.0000000          :
          :  -> integral cutoff          0.2500000E+02      :
          :  -> integral neglect         0.1000000E-07      :
          :  -> SCF convergence          0.1000000E-05 Eh   :
          :  -> wf. convergence          0.1000000E-03 e    :
          :  Broyden damping             0.4000000          :
          ...................................................

 iter      E             dE          RMSdq      gap      omega  full diag
   1   -374.4936522 -0.374494E+03  0.386E+00    1.37       0.0  T
   2   -374.6576340 -0.163982E+00  0.217E+00    1.34       1.0  T
   3   -374.5218198  0.135814E+00  0.114E+00    1.38       1.0  T
   4   -374.7140843 -0.192264E+00  0.341E-01    1.33       1.0  T
   5   -374.7200493 -0.596503E-02  0.153E-01    1.34       1.0  T
   6   -374.7217682 -0.171888E-02  0.618E-02    1.34       1.0  T
   7   -374.7220308 -0.262660E-03  0.314E-02    1.34       1.0  T
   8   -374.7221302 -0.993253E-04  0.166E-02    1.34       1.0  T
   9   -374.7221420 -0.118296E-04  0.102E-02    1.34       1.0  T
  10   -374.7221480 -0.603409E-05  0.526E-03    1.34       1.3  T
  11   -374.7221498 -0.179631E-05  0.335E-03    1.34       2.0  T
  12   -374.7221504 -0.572946E-06  0.183E-03    1.34       3.6  T
  13   -374.7221506 -0.251407E-06  0.863E-04    1.34       7.7  T
  14   -374.7221507 -0.411397E-07  0.544E-04    1.34      12.2  T

   *** convergence criteria satisfied after 14 iterations ***

         #    Occupation            Energy/Eh            Energy/eV
      -------------------------------------------------------------
         1        2.0000           -0.7415902             -20.1797
       ...           ...                  ...                  ...
       339        2.0000           -0.3780105             -10.2862
       340        2.0000           -0.3631871              -9.8828
       341        2.0000           -0.3619728              -9.8498
       342        2.0000           -0.3591605              -9.7733
       343        2.0000           -0.3567674              -9.7081
       344        2.0000           -0.3558575              -9.6834
       345        2.0000           -0.3532782              -9.6132 (HOMO)
       346                         -0.3038948              -8.2694 (LUMO)
       347                         -0.2937109              -7.9923
       348                         -0.2889732              -7.8634
       349                         -0.2823742              -7.6838
       350                         -0.2771288              -7.5411
       ...                                ...                  ...
       751                          0.7233912              19.6845
      -------------------------------------------------------------
                  HL-Gap            0.0493833 Eh            1.3438 eV
             Fermi-level           -0.3285465 Eh           -8.9402 eV

 SCC (total)                   0 d,  0 h,  0 min,  0.983 sec
 SCC setup                      ...        0 min,  0.010 sec (  0.987%)
 Dispersion                     ...        0 min,  0.011 sec (  1.139%)
 classical contributions        ...        0 min,  0.000 sec (  0.041%)
 integral evaluation            ...        0 min,  0.052 sec (  5.327%)
 iterations                     ...        0 min,  0.751 sec ( 76.449%)
 molecular gradient             ...        0 min,  0.152 sec ( 15.438%)
 printout                       ...        0 min,  0.006 sec (  0.610%)

         :::::::::::::::::::::::::::::::::::::::::::::::::::::
         ::                     SUMMARY                     ::
         :::::::::::::::::::::::::::::::::::::::::::::::::::::
         :: total energy            -369.025427421305 Eh    ::
         :: total w/o Gsasa/hb      -369.020807931828 Eh    ::
         :: gradient norm              0.014457270993 Eh/a0 ::
         :: HOMO-LUMO gap              1.343789274198 eV    ::
         ::.................................................::
         :: SCC energy              -374.722150680205 Eh    ::
         :: -> isotropic ES            0.065487747496 Eh    ::
         :: -> anisotropic ES          0.016563536092 Eh    ::
         :: -> anisotropic XC          0.154365455507 Eh    ::
         :: -> dispersion             -0.438050438074 Eh    ::
         :: -> Gsolv                  -0.022666109555 Eh    ::
         ::    -> Gelec               -0.018046620078 Eh    ::
         ::    -> Gsasa                0.005660282527 Eh    ::
         ::    -> Ghb                 -0.011360531703 Eh    ::
         ::    -> Gshift               0.001080759698 Eh    ::
         :: repulsion energy           5.683538368929 Eh    ::
         :: add. restraining           0.000000000000 Eh    ::
         :: total charge               0.000000000001 e     ::
         :::::::::::::::::::::::::::::::::::::::::::::::::::::

           -------------------------------------------------
          |                Property Printout                |
           -------------------------------------------------

    * Orbital Energies and Occupations

         #    Occupation            Energy/Eh            Energy/eV
      -------------------------------------------------------------
         1        2.0000           -0.7415902             -20.1797
       ...           ...                  ...                  ...
       333        2.0000           -0.3871895             -10.5360
       334        2.0000           -0.3852951             -10.4844
       335        2.0000           -0.3852296             -10.4826
       336        2.0000           -0.3825651             -10.4101
       337        2.0000           -0.3818025             -10.3894
       338        2.0000           -0.3807141             -10.3598
       339        2.0000           -0.3780105             -10.2862
       340        2.0000           -0.3631871              -9.8828
       341        2.0000           -0.3619728              -9.8498
       342        2.0000           -0.3591605              -9.7733
       343        2.0000           -0.3567674              -9.7081
       344        2.0000           -0.3558575              -9.6834
       345        2.0000           -0.3532782              -9.6132 (HOMO)
       346                         -0.3038948              -8.2694 (LUMO)
       347                         -0.2937109              -7.9923
       348                         -0.2889732              -7.8634
       349                         -0.2823742              -7.6838
       350                         -0.2771288              -7.5411
       351                         -0.2742106              -7.4616
       352                         -0.2648006              -7.2056
       353                         -0.2641291              -7.1873
       354                         -0.2625724              -7.1450
       355                         -0.2563732              -6.9763
       356                         -0.2490742              -6.7777
       ...                                ...                  ...
       751                          0.7233912              19.6845
      -------------------------------------------------------------
                  HL-Gap            0.0493833 Eh            1.3438 eV
             Fermi-level           -0.3285465 Eh           -8.9402 eV

     #   Z          covCN         q      C6AA      α(0)
     1   6 C        2.932    -0.009    28.253     8.717
     2   6 C        3.082    -0.051    29.180     8.856
     3   6 C        3.137    -0.009    28.021     8.664
     4   6 C        3.009    -0.013    28.323     8.730
     5   6 C        2.988     0.010    27.782     8.646
     6   6 C        3.119    -0.051    29.090     8.834
     7   6 C        3.124    -0.061    29.331     8.869
     8   6 C        2.984     0.028    27.364     8.581
     9   6 C        3.824    -0.061    21.654     6.622
    10   6 C        3.754    -0.107    22.594     6.778
    11  16 S        2.380    -0.062   143.611    20.170
    12   6 C        3.002     0.016    27.643     8.624
    13   6 C        3.142    -0.007    27.951     8.651
    14   6 C        3.019    -0.011    28.277     8.723
    15   6 C        2.993     0.016    27.645     8.625
    16   6 C        3.110    -0.053    29.163     8.847
    17   6 C        3.115    -0.062    29.366     8.877
    18   6 C        2.988     0.030    27.313     8.573
    19   6 C        3.828    -0.058    21.595     6.612
    20   6 C        3.754    -0.108    22.631     6.783
    21  16 S        2.429    -0.060   143.558    20.166
    22   6 C        3.012     0.020    27.543     8.609
    23  16 S        2.320    -0.072   144.061    20.201
    24   6 C        3.076    -0.058    29.359     8.884
    25   6 C        3.023     0.029    27.326     8.575
    26  16 S        2.292    -0.096   145.076    20.272
    27   6 C        3.005    -0.002    28.059     8.689
    28  16 S        2.348     0.017   140.368    19.941
    29   6 C        2.924    -0.029    28.720     8.788
    30   6 C        3.184    -0.014    27.898     8.620
    31   6 C        3.166    -0.009    27.881     8.629
    32   6 C        2.986    -0.009    28.244     8.718
    33   6 C        2.920    -0.036    28.890     8.814
    34   6 C        2.913    -0.084    30.094     8.996
    35   6 C        2.836     0.145    24.843     8.168
    36   8 O        1.659    -0.441    21.665     6.283
    37   6 C        2.991     0.031    27.299     8.571
    38   6 C        3.081    -0.060    29.396     8.888
    39   6 C        3.133    -0.007    27.977     8.658
    40   6 C        3.004    -0.014    28.358     8.735
    41   6 C        2.986     0.015    27.668     8.628
    42   6 C        3.128    -0.051    29.070     8.828
    43   6 C        3.117    -0.058    29.256     8.859
    44   6 C        2.985     0.029    27.342     8.577
    45   6 C        3.829    -0.060    21.625     6.617
    46   6 C        3.753    -0.114    22.740     6.800
    47  16 S        2.374    -0.082   144.459    20.229
    48   6 C        3.012     0.018    27.588     8.616
    49   6 C        3.143    -0.008    27.973     8.654
    50   6 C        3.012    -0.011    28.271     8.722
    51   6 C        2.991     0.015    27.673     8.629
    52   6 C        3.112    -0.053    29.142     8.844
    53   6 C        3.111    -0.060    29.338     8.873
    54   6 C        2.989     0.031    27.309     8.572
    55   6 C        3.826    -0.060    21.628     6.618
    56   6 C        3.754    -0.111    22.689     6.792
    57  16 S        2.488    -0.054   143.302    20.148
    58   6 C        3.011     0.018    27.580     8.615
    59  16 S        2.411    -0.076   144.227    20.213
    60   6 C        3.072    -0.054    29.264     8.870
    61   6 C        3.023     0.025    27.419     8.589
    62  16 S        2.286    -0.092   144.899    20.260
    63   6 C        3.022     0.026    27.409     8.588
    64   6 C        3.072    -0.052    29.201     8.860
    65   6 C        3.136    -0.004    27.898     8.645
    66   6 C        3.009    -0.010    28.243     8.718
    67   6 C        2.991     0.015    27.669     8.629
    68   6 C        3.114    -0.052    29.124     8.840
    69   6 C        3.117    -0.061    29.343     8.873
    70   6 C        2.987     0.028    27.359     8.580
    71   6 C        3.826    -0.059    21.618     6.616
    72   6 C        3.754    -0.110    22.670     6.789
    73  16 S        2.361    -0.059   143.513    20.163
    74   6 C        3.008     0.020    27.544     8.609
    75   6 C        3.133    -0.004    27.913     8.649
    76   6 C        3.009    -0.009    28.233     8.716
    77   6 C        2.989     0.014    27.697     8.633
    78   6 C        3.115    -0.053    29.150     8.844
    79   6 C        3.117    -0.061    29.348     8.873
    80   6 C        2.985     0.028    27.374     8.582
    81   6 C        3.824    -0.060    21.634     6.619
    82   6 C        3.753    -0.110    22.656     6.788
    83  16 S        2.363    -0.057   143.428    20.157
    84   6 C        3.008     0.020    27.537     8.608
    85  16 S        2.281    -0.077   144.259    20.215
    86   6 C        3.077    -0.058    29.343     8.881
    87   6 C        3.010     0.029    27.346     8.578
    88  16 S        2.284    -0.077   144.266    20.216
    89   6 C        3.010     0.029    27.339     8.577
    90   6 C        3.076    -0.058    29.343     8.881
    91   6 C        3.137    -0.004    27.887     8.643
    92   6 C        3.010    -0.009    28.232     8.716
    93   6 C        2.990     0.014    27.687     8.631
    94   6 C        3.114    -0.053    29.160     8.846
    95   6 C        3.116    -0.062    29.371     8.877
    96   6 C        2.986     0.028    27.371     8.582
    97   6 C        3.826    -0.060    21.637     6.619
    98   6 C        3.753    -0.109    22.650     6.786
    99  16 S        2.362    -0.057   143.417    20.156
   100   6 C        3.008     0.021    27.513     8.604
   101   6 C        3.133    -0.005    27.921     8.650
   102   6 C        3.009    -0.009    28.232     8.716
   103   6 C        2.991     0.015    27.660     8.627
   104   6 C        3.113    -0.053    29.154     8.845
   105   6 C        3.116    -0.061    29.352     8.874
   106   6 C        2.987     0.028    27.380     8.583
   107   6 C        3.825    -0.062    21.670     6.624
   108   6 C        3.753    -0.110    22.665     6.789
   109  16 S        2.359    -0.061   143.569    20.167
   110   6 C        3.008     0.021    27.522     8.606
   111  16 S        2.286    -0.076   144.231    20.213
   112   6 C        3.070    -0.054    29.271     8.871
   113   6 C        3.016     0.027    27.373     8.582
   114  16 S        2.281    -0.083   144.524    20.234
   115   6 C        3.019     0.027    27.387     8.584
   116   6 C        3.069    -0.055    29.291     8.874
   117   6 C        3.137    -0.007    27.954     8.653
   118   6 C        3.012    -0.009    28.234     8.716
   119   6 C        2.992     0.015    27.666     8.628
   120   6 C        3.111    -0.054    29.183     8.850
   121   6 C        3.114    -0.063    29.395     8.881
   122   6 C        2.987     0.028    27.378     8.583
   123   6 C        3.825    -0.063    21.683     6.626
   124   6 C        3.754    -0.111    22.679     6.791
   125  16 S        2.395    -0.055   143.350    20.151
   126   6 C        3.008     0.020    27.548     8.610
   127   6 C        3.144    -0.006    27.906     8.643
   128   6 C        3.010    -0.009    28.233     8.716
   129   6 C        2.992     0.015    27.660     8.627
   130   6 C        3.113    -0.054    29.178     8.849
   131   6 C        3.116    -0.062    29.365     8.876
   132   6 C        2.986     0.026    27.417     8.589
   133   6 C        3.825    -0.062    21.669     6.624
   134   6 C        3.753    -0.111    22.681     6.791
   135  16 S        2.360    -0.059   143.512    20.163
   136   6 C        3.007     0.021    27.522     8.606
   137  16 S        2.275    -0.085   144.593    20.238
   138   6 C        3.075    -0.052    29.198     8.859
   139   6 C        2.934    -0.014    28.369     8.735
   140  16 S        2.294    -0.064   143.705    20.176
   141   1 H        0.926     0.040     2.454     2.450
   142   1 H        0.926     0.050     2.318     2.381
   143   1 H        0.926     0.040     2.446     2.446
   144   1 H        0.926     0.044     2.396     2.421
   145   1 H        0.924     0.059     2.212     2.326
   146   1 H        0.924     0.065     2.136     2.286
   147   1 H        0.925     0.040     2.453     2.449
   148   1 H        0.925     0.053     2.283     2.363
   149   1 H        0.925     0.043     2.414     2.430
   150   1 H        0.926     0.040     2.450     2.448
   151   1 H        0.926     0.048     2.351     2.398
   152   1 H        0.924     0.052     2.301     2.372
   153   1 H        0.924     0.058     2.224     2.332
   154   1 H        0.925     0.041     2.439     2.442
   155   1 H        0.925     0.044     2.398     2.422
   156   1 H        0.925     0.053     2.279     2.361
   157   1 H        0.926     0.052     2.298     2.370
   158   1 H        0.927     0.081     1.963     2.191
   159   1 H        0.926     0.048     2.348     2.396
   160   1 H        0.925     0.054     2.273     2.358
   161   1 H        0.805     0.382     0.519     1.132
   162   1 H        0.926     0.046     2.366     2.405
   163   1 H        0.926     0.038     2.481     2.463
   164   1 H        0.926     0.049     2.331     2.387
   165   1 H        0.924     0.057     2.240     2.341
   166   1 H        0.924     0.058     2.223     2.332
   167   1 H        0.925     0.053     2.280     2.361
   168   1 H        0.925     0.046     2.366     2.405
   169   1 H        0.925     0.046     2.374     2.409
   170   1 H        0.926     0.037     2.483     2.464
   171   1 H        0.926     0.049     2.329     2.386
   172   1 H        0.924     0.058     2.224     2.332
   173   1 H        0.924     0.053     2.287     2.365
   174   1 H        0.925     0.044     2.399     2.422
   175   1 H        0.925     0.045     2.389     2.417
   176   1 H        0.925     0.053     2.280     2.361
   177   1 H        0.926     0.054     2.272     2.357
   178   1 H        0.926     0.052     2.299     2.371
   179   1 H        0.926     0.038     2.474     2.460
   180   1 H        0.926     0.046     2.370     2.407
   181   1 H        0.924     0.055     2.255     2.348
   182   1 H        0.924     0.056     2.245     2.343
   183   1 H        0.925     0.042     2.417     2.431
   184   1 H        0.925     0.053     2.283     2.363
   185   1 H        0.925     0.044     2.395     2.420
   186   1 H        0.926     0.044     2.392     2.419
   187   1 H        0.926     0.046     2.366     2.405
   188   1 H        0.924     0.056     2.251     2.346
   189   1 H        0.924     0.057     2.238     2.339
   190   1 H        0.925     0.051     2.305     2.374
   191   1 H        0.925     0.047     2.353     2.399
   192   1 H        0.925     0.044     2.400     2.423
   193   1 H        0.926     0.062     2.179     2.309
   194   1 H        0.926     0.061     2.186     2.312
   195   1 H        0.926     0.042     2.428     2.437
   196   1 H        0.926     0.046     2.372     2.409
   197   1 H        0.924     0.058     2.224     2.332
   198   1 H        0.924     0.055     2.253     2.348
   199   1 H        0.925     0.042     2.427     2.436
   200   1 H        0.925     0.045     2.378     2.412
   201   1 H        0.925     0.052     2.299     2.371
   202   1 H        0.926     0.042     2.423     2.434
   203   1 H        0.926     0.046     2.373     2.409
   204   1 H        0.924     0.055     2.261     2.351
   205   1 H        0.924     0.057     2.239     2.340
   206   1 H        0.925     0.043     2.412     2.429
   207   1 H        0.925     0.045     2.389     2.417
   208   1 H        0.925     0.052     2.296     2.370
   209   1 H        0.926     0.057     2.240     2.340
   210   1 H        0.926     0.052     2.291     2.367
   211   1 H        0.926     0.038     2.475     2.460
   212   1 H        0.926     0.045     2.381     2.413
   213   1 H        0.924     0.055     2.261     2.351
   214   1 H        0.924     0.057     2.238     2.339
   215   1 H        0.925     0.043     2.410     2.427
   216   1 H        0.925     0.052     2.298     2.371
   217   1 H        0.925     0.045     2.379     2.412
   218   1 H        0.926     0.041     2.429     2.437
   219   1 H        0.926     0.044     2.390     2.417
   220   1 H        0.924     0.055     2.253     2.347
   221   1 H        0.924     0.053     2.277     2.360
   222   1 H        0.925     0.043     2.403     2.424
   223   1 H        0.925     0.051     2.307     2.375
   224   1 H        0.925     0.046     2.369     2.407
   225   1 H        0.926     0.059     2.208     2.324
   226   1 H        0.926     0.068     2.103     2.267

 Mol. C6AA /au·bohr⁶  :    1000665.389300
 Mol. C8AA /au·bohr⁸  :   30644990.316468
 Mol. α(0) /au        :       1621.333034


Wiberg/Mayer (AO) data.
largest (>0.10) Wiberg bond orders for each atom

 ---------------------------------------------------------------------------
     #   Z sym  total        # sym  WBO       # sym  WBO       # sym  WBO
 ---------------------------------------------------------------------------
     1   6 C    3.930 --     2 C    1.679    23 S    1.144   141 H    0.969
     2   6 C    3.981 --     1 C    1.679     3 C    1.195   142 H    0.953
     3   6 C    3.976 --    22 C    1.277     4 C    1.273     2 C    1.195
     4   6 C    3.959 --    12 C    1.347     3 C    1.273     5 C    1.111
     5   6 C    3.947 --     6 C    1.527    11 S    1.120     4 C    1.111
                             8 C    0.100
     6   6 C    3.959 --     5 C    1.527     7 C    1.296   143 H    0.955
     7   6 C    3.980 --     8 C    1.568     6 C    1.296   144 H    0.964
     8   6 C    3.930 --     7 C    1.568    11 S    1.167     9 C    1.025
                             5 C    0.100
     9   6 C    3.993 --     8 C    1.025    10 C    1.018   145 H    0.960
                           146 H    0.952
    10   6 C    3.994 --     9 C    1.018   148 H    0.985   147 H    0.983
                           149 H    0.982
    11  16 S    2.610 --     8 C    1.167     5 C    1.120
    12   6 C    3.947 --     4 C    1.347    13 C    1.266    26 S    1.098
    13   6 C    3.982 --    14 C    1.279    12 C    1.266    24 C    1.206
    14   6 C    3.944 --    22 C    1.354    13 C    1.279    15 C    1.089
    15   6 C    3.946 --    16 C    1.547    21 S    1.124    14 C    1.089
                            18 C    0.103
    16   6 C    3.966 --    15 C    1.547    17 C    1.284   150 H    0.962
    17   6 C    3.980 --    18 C    1.579    16 C    1.284   151 H    0.963
    18   6 C    3.932 --    17 C    1.579    21 S    1.162    19 C    1.025
                            15 C    0.103
    19   6 C    3.994 --    18 C    1.025    20 C    0.997   153 H    0.969
                           152 H    0.968
    20   6 C    3.991 --    19 C    0.997   155 H    0.988   154 H    0.987
                           156 H    0.984
    21  16 S    2.597 --    18 C    1.162    15 C    1.124
    22   6 C    3.951 --    14 C    1.354     3 C    1.277    23 S    1.097
    23  16 S    2.540 --     1 C    1.144    22 C    1.097
    24   6 C    3.974 --    25 C    1.600    13 C    1.206   157 H    0.954
    25   6 C    3.935 --    24 C    1.600    27 C    1.096    26 S    1.072
    26  16 S    2.513 --    12 C    1.098    25 C    1.072
    27   6 C    3.938 --    31 C    1.412    28 S    1.162    25 C    1.096
                            29 C    0.137
    28  16 S    2.707 --    29 C    1.252    27 C    1.162
    29   6 C    3.931 --    30 C    1.465    28 S    1.252   158 H    0.963
                            27 C    0.137
    30   6 C    3.985 --    29 C    1.465    31 C    1.169    35 C    1.165
    31   6 C    3.974 --    27 C    1.412    32 C    1.172    30 C    1.169
    32   6 C    3.983 --    33 C    1.529    31 C    1.172    37 C    1.062
    33   6 C    3.975 --    32 C    1.529    34 C    1.293   159 H    0.968
    34   6 C    3.978 --    35 C    1.504    33 C    1.293   160 H    0.964
    35   6 C    3.928 --    34 C    1.504    30 C    1.165    36 O    1.091
    36   8 O    2.094 --    35 C    1.091   161 H    0.834
    37   6 C    3.920 --    38 C    1.597    59 S    1.093    32 C    1.062
    38   6 C    3.979 --    37 C    1.597    39 C    1.215   162 H    0.951
    39   6 C    3.971 --    40 C    1.270    58 C    1.260    38 C    1.215
    40   6 C    3.961 --    48 C    1.348    39 C    1.270    41 C    1.105
    41   6 C    3.946 --    42 C    1.535    47 S    1.118    40 C    1.105
                            44 C    0.101
    42   6 C    3.971 --    41 C    1.535    43 C    1.284   163 H    0.958
    43   6 C    3.981 --    44 C    1.584    42 C    1.284   164 H    0.961
    44   6 C    3.929 --    43 C    1.584    47 S    1.148    45 C    1.025
                            41 C    0.101
    45   6 C    3.993 --    44 C    1.025    46 C    1.014   166 H    0.962
                           165 H    0.952
    46   6 C    3.993 --    45 C    1.014   169 H    0.987   168 H    0.985
                           167 H    0.985
    47  16 S    2.576 --    44 C    1.148    41 C    1.118
    48   6 C    3.942 --    40 C    1.348    49 C    1.263    62 S    1.095
    49   6 C    3.976 --    48 C    1.263    50 C    1.254    60 C    1.230
    50   6 C    3.952 --    58 C    1.361    49 C    1.254    51 C    1.108
    51   6 C    3.946 --    52 C    1.526    57 S    1.127    50 C    1.108
    52   6 C    3.973 --    51 C    1.526    53 C    1.294   170 H    0.963
    53   6 C    3.980 --    54 C    1.569    52 C    1.294   171 H    0.963
    54   6 C    3.926 --    53 C    1.569    57 S    1.162    55 C    1.025
    55   6 C    3.993 --    54 C    1.025    56 C    0.996   172 H    0.968
                           173 H    0.967
    56   6 C    3.990 --    55 C    0.996   174 H    0.988   175 H    0.987
                           176 H    0.984
    57  16 S    2.610 --    54 C    1.162    51 C    1.127
    58   6 C    3.948 --    50 C    1.361    39 C    1.260    59 S    1.098
    59  16 S    2.532 --    58 C    1.098    37 C    1.093
    60   6 C    3.957 --    61 C    1.541    49 C    1.230   177 H    0.951
    61   6 C    3.933 --    60 C    1.541    63 C    1.160    62 S    1.078
    62  16 S    2.507 --    48 C    1.095    61 C    1.078
    63   6 C    3.931 --    64 C    1.544    61 C    1.160    85 S    1.079
    64   6 C    3.954 --    63 C    1.544    65 C    1.229   178 H    0.950
    65   6 C    3.971 --    66 C    1.268    84 C    1.254    64 C    1.229
    66   6 C    3.940 --    74 C    1.360    65 C    1.268    67 C    1.095
    67   6 C    3.946 --    68 C    1.542    73 S    1.124    66 C    1.095
                            70 C    0.102
    68   6 C    3.973 --    67 C    1.542    69 C    1.286   179 H    0.960
    69   6 C    3.982 --    70 C    1.583    68 C    1.286   180 H    0.963
    70   6 C    3.932 --    69 C    1.583    73 S    1.159    71 C    1.026
                            67 C    0.102
    71   6 C    3.994 --    70 C    1.026    72 C    0.998   181 H    0.969
                           182 H    0.966
    72   6 C    3.992 --    71 C    0.998   183 H    0.988   185 H    0.987
                           184 H    0.984
    73  16 S    2.580 --    70 C    1.159    67 C    1.124
    74   6 C    3.943 --    66 C    1.360    75 C    1.254    88 S    1.099
    75   6 C    3.972 --    76 C    1.260    74 C    1.254    86 C    1.240
    76   6 C    3.953 --    84 C    1.361    75 C    1.260    77 C    1.104
    77   6 C    3.947 --    78 C    1.537    83 S    1.119    76 C    1.104
                            80 C    0.101
    78   6 C    3.959 --    77 C    1.537    79 C    1.288   186 H    0.956
    79   6 C    3.981 --    80 C    1.580    78 C    1.288   187 H    0.963
    80   6 C    3.931 --    79 C    1.580    83 S    1.159    81 C    1.026
                            77 C    0.101
    81   6 C    3.994 --    80 C    1.026    82 C    1.006   189 H    0.969
                           188 H    0.956
    82   6 C    3.992 --    81 C    1.006   192 H    0.988   190 H    0.985
                           191 H    0.984
    83  16 S    2.584 --    80 C    1.159    77 C    1.119
    84   6 C    3.944 --    76 C    1.361    65 C    1.254    85 S    1.097
    85  16 S    2.500 --    84 C    1.097    63 C    1.079
    86   6 C    3.954 --    87 C    1.531    75 C    1.240   193 H    0.949
    87   6 C    3.929 --    86 C    1.531    89 C    1.155    88 S    1.094
    88  16 S    2.505 --    74 C    1.099    87 C    1.094
    89   6 C    3.931 --    90 C    1.532    87 C    1.155   111 S    1.094
    90   6 C    3.953 --    89 C    1.532    91 C    1.238   194 H    0.950
    91   6 C    3.973 --    92 C    1.263   110 C    1.254    90 C    1.238
    92   6 C    3.942 --   100 C    1.363    91 C    1.263    93 C    1.097
    93   6 C    3.947 --    94 C    1.542    99 S    1.121    92 C    1.097
                            96 C    0.101
    94   6 C    3.961 --    93 C    1.542    95 C    1.286   195 H    0.958
    95   6 C    3.981 --    96 C    1.583    94 C    1.286   196 H    0.963
    96   6 C    3.932 --    95 C    1.583    99 S    1.159    97 C    1.026
                            93 C    0.101
    97   6 C    3.993 --    96 C    1.026    98 C    1.001   198 H    0.970
                           197 H    0.961
    98   6 C    3.992 --    97 C    1.001   199 H    0.988   200 H    0.986
                           201 H    0.985
    99  16 S    2.582 --    96 C    1.159    93 C    1.121
   100   6 C    3.945 --    92 C    1.363   101 C    1.255   114 S    1.097
   101   6 C    3.971 --   102 C    1.269   100 C    1.255   112 C    1.230
   102   6 C    3.943 --   110 C    1.359   101 C    1.269   103 C    1.096
   103   6 C    3.946 --   104 C    1.542   109 S    1.122   102 C    1.096
                           106 C    0.102
   104   6 C    3.962 --   103 C    1.542   105 C    1.286   202 H    0.959
   105   6 C    3.982 --   106 C    1.583   104 C    1.286   203 H    0.963
   106   6 C    3.932 --   105 C    1.583   109 S    1.158   107 C    1.026
                           103 C    0.102
   107   6 C    3.994 --   106 C    1.026   108 C    0.998   204 H    0.969
                           205 H    0.966
   108   6 C    3.992 --   107 C    0.998   206 H    0.988   207 H    0.987
                           208 H    0.985
   109  16 S    2.578 --   106 C    1.158   103 C    1.122
   110   6 C    3.943 --   102 C    1.359    91 C    1.254   111 S    1.100
   111  16 S    2.507 --   110 C    1.100    89 C    1.094
   112   6 C    3.956 --   113 C    1.548   101 C    1.230   209 H    0.951
   113   6 C    3.931 --   112 C    1.548   115 C    1.156   114 S    1.079
   114  16 S    2.496 --   100 C    1.097   113 C    1.079
   115   6 C    3.938 --   116 C    1.552   113 C    1.156   137 S    1.079
   116   6 C    3.955 --   115 C    1.552   117 C    1.225   210 H    0.954
   117   6 C    3.982 --   118 C    1.272   136 C    1.258   116 C    1.225
   118   6 C    3.944 --   126 C    1.360   117 C    1.272   119 C    1.090
   119   6 C    3.946 --   120 C    1.546   125 S    1.125   118 C    1.090
                           122 C    0.103
   120   6 C    3.977 --   119 C    1.546   121 C    1.285   211 H    0.963
   121   6 C    3.981 --   122 C    1.583   120 C    1.285   212 H    0.963
   122   6 C    3.933 --   121 C    1.583   125 S    1.159   123 C    1.026
                           119 C    0.103
   123   6 C    3.994 --   122 C    1.026   124 C    0.998   213 H    0.969
                           214 H    0.966
   124   6 C    3.992 --   123 C    0.998   215 H    0.988   217 H    0.987
                           216 H    0.985
   125  16 S    2.586 --   122 C    1.159   119 C    1.125
   126   6 C    3.953 --   118 C    1.360   127 C    1.268   140 S    1.104
   127   6 C    3.972 --   128 C    1.282   126 C    1.268   138 C    1.197
   128   6 C    3.971 --   136 C    1.359   127 C    1.282   129 C    1.089
   129   6 C    3.947 --   130 C    1.549   135 S    1.123   128 C    1.089
                           132 C    0.103
   130   6 C    3.965 --   129 C    1.549   131 C    1.282   218 H    0.959
   131   6 C    3.982 --   132 C    1.587   130 C    1.282   219 H    0.963
   132   6 C    3.935 --   131 C    1.587   135 S    1.157   133 C    1.026
                           129 C    0.103
   133   6 C    3.994 --   132 C    1.026   134 C    0.999   221 H    0.970
                           220 H    0.965
   134   6 C    3.992 --   133 C    0.999   222 H    0.988   224 H    0.986
                           223 H    0.985
   135  16 S    2.578 --   132 C    1.157   129 C    1.123
   136   6 C    3.944 --   128 C    1.359   117 C    1.258   137 S    1.095
   137  16 S    2.493 --   136 C    1.095   115 C    1.079
   138   6 C    3.980 --   139 C    1.679   127 C    1.197   225 H    0.955
   139   6 C    3.926 --   138 C    1.679   140 S    1.147   226 H    0.966
   140  16 S    2.544 --   139 C    1.147   126 C    1.104
   141   1 H    0.997 --     1 C    0.969
   142   1 H    0.997 --     2 C    0.953
   143   1 H    0.998 --     6 C    0.955
   144   1 H    0.997 --     7 C    0.964
   145   1 H    0.995 --     9 C    0.960
   146   1 H    0.993 --     9 C    0.952
   147   1 H    0.998 --    10 C    0.983
   148   1 H    0.997 --    10 C    0.985
   149   1 H    0.998 --    10 C    0.982
   150   1 H    0.998 --    16 C    0.962
   151   1 H    0.997 --    17 C    0.963
   152   1 H    0.996 --    19 C    0.968
   153   1 H    0.996 --    19 C    0.969
   154   1 H    0.998 --    20 C    0.987
   155   1 H    0.998 --    20 C    0.988
   156   1 H    0.996 --    20 C    0.984
   157   1 H    0.997 --    24 C    0.954
   158   1 H    0.992 --    29 C    0.963
   159   1 H    0.996 --    33 C    0.968
   160   1 H    0.995 --    34 C    0.964
   161   1 H    0.854 --    36 O    0.834
   162   1 H    0.997 --    38 C    0.951
   163   1 H    0.998 --    42 C    0.958
   164   1 H    0.997 --    43 C    0.961
   165   1 H    0.995 --    45 C    0.952
   166   1 H    0.995 --    45 C    0.962
   167   1 H    0.997 --    46 C    0.985
   168   1 H    0.998 --    46 C    0.985
   169   1 H    0.998 --    46 C    0.987
   170   1 H    0.998 --    52 C    0.963
   171   1 H    0.997 --    53 C    0.963
   172   1 H    0.996 --    55 C    0.968
   173   1 H    0.996 --    55 C    0.967
   174   1 H    0.998 --    56 C    0.988
   175   1 H    0.998 --    56 C    0.987
   176   1 H    0.996 --    56 C    0.984
   177   1 H    0.996 --    60 C    0.951
   178   1 H    0.997 --    64 C    0.950
   179   1 H    0.998 --    68 C    0.960
   180   1 H    0.997 --    69 C    0.963
   181   1 H    0.996 --    71 C    0.969
   182   1 H    0.996 --    71 C    0.966
   183   1 H    0.998 --    72 C    0.988
   184   1 H    0.996 --    72 C    0.984
   185   1 H    0.998 --    72 C    0.987
   186   1 H    0.998 --    78 C    0.956
   187   1 H    0.997 --    79 C    0.963
   188   1 H    0.995 --    81 C    0.956
   189   1 H    0.996 --    81 C    0.969
   190   1 H    0.997 --    82 C    0.985
   191   1 H    0.998 --    82 C    0.984
   192   1 H    0.998 --    82 C    0.988
   193   1 H    0.996 --    86 C    0.949
   194   1 H    0.996 --    90 C    0.950
   195   1 H    0.998 --    94 C    0.958
   196   1 H    0.997 --    95 C    0.963
   197   1 H    0.995 --    97 C    0.961
   198   1 H    0.997 --    97 C    0.970
   199   1 H    0.998 --    98 C    0.988
   200   1 H    0.998 --    98 C    0.986
   201   1 H    0.997 --    98 C    0.985
   202   1 H    0.998 --   104 C    0.959
   203   1 H    0.997 --   105 C    0.963
   204   1 H    0.996 --   107 C    0.969
   205   1 H    0.996 --   107 C    0.966
   206   1 H    0.998 --   108 C    0.988
   207   1 H    0.998 --   108 C    0.987
   208   1 H    0.996 --   108 C    0.985
   209   1 H    0.996 --   112 C    0.951
   210   1 H    0.997 --   116 C    0.954
   211   1 H    0.998 --   120 C    0.963
   212   1 H    0.997 --   121 C    0.963
   213   1 H    0.996 --   123 C    0.969
   214   1 H    0.996 --   123 C    0.966
   215   1 H    0.998 --   124 C    0.988
   216   1 H    0.996 --   124 C    0.985
   217   1 H    0.998 --   124 C    0.987
   218   1 H    0.998 --   130 C    0.959
   219   1 H    0.998 --   131 C    0.963
   220   1 H    0.996 --   133 C    0.965
   221   1 H    0.997 --   133 C    0.970
   222   1 H    0.998 --   134 C    0.988
   223   1 H    0.997 --   134 C    0.985
   224   1 H    0.998 --   134 C    0.986
   225   1 H    0.996 --   138 C    0.955
   226   1 H    0.994 --   139 C    0.966
 ---------------------------------------------------------------------------

Topologies differ in bond orders
Writing corrected topology to xtbtopo.mol

molecular dipole:
                 x           y           z       tot (Debye)
 q only:       -0.343      -1.446       0.202
   full:       -1.076      -1.260      -0.035       4.211
molecular quadrupole (traceless):
                xx          xy          yy          xz          yz          zz
 q only:      -11.311      55.697      21.145     -59.503      72.301      -9.835
  q+dip:      -27.664      56.848      23.362     -47.252      74.323       4.302
   full:      -25.290      52.659      23.500     -42.911      67.663       1.790


           -------------------------------------------------
          | TOTAL ENERGY             -369.025427421305 Eh   |
          | GRADIENT NORM               0.014457270993 Eh/α |
          | HOMO-LUMO GAP               1.343789274198 eV   |
           -------------------------------------------------

------------------------------------------------------------------------
 * finished run on 2022/02/28 at 17:01:16.938     
------------------------------------------------------------------------
 total:
 * wall-time:     0 d,  0 h,  0 min,  1.144 sec
 *  cpu-time:     0 d,  0 h,  0 min,  8.978 sec
 * ratio c/w:     7.849 speedup
 SCF:
 * wall-time:     0 d,  0 h,  0 min,  0.985 sec
 *  cpu-time:     0 d,  0 h,  0 min,  7.856 sec
 * ratio c/w:     7.974 speedup

