      -----------------------------------------------------------      
     |                   =====================                   |     
     |                           x T B                           |     
     |                   =====================                   |     
     |                         S. Grimme                         |     
     |          Mulliken Center for Theoretical Chemistry        |     
     |                    University of Bonn                     |     
      -----------------------------------------------------------      

   * xtb version 6.4.1 (unknown) compiled by 'oda6@login1.crc.pitt.edu' on 2021-06-25

   xtb is free software: you can redistribute it and/or modify it under
   the terms of the GNU Lesser General Public License as published by
   the Free Software Foundation, either version 3 of the License, or
   (at your option) any later version.
   
   xtb is distributed in the hope that it will be useful,
   but WITHOUT ANY WARRANTY; without even the implied warranty of
   MERCHANTABILITY or FITNESS FOR A PARTICULAR PURPOSE.  See the
   GNU Lesser General Public License for more details.
   
   Cite this work as:
   * C. Bannwarth, E. Caldeweyher, S. Ehlert, A. Hansen, P. Pracht,
     J. Seibert, S. Spicher, S. Grimme, WIREs Comput. Mol. Sci., 2020, 11,
     e01493. DOI: 10.1002/wcms.1493
   
   for GFN2-xTB:
   * C. Bannwarth, S. Ehlert and S. Grimme., J. Chem. Theory Comput., 2019,
     15, 1652-1671. DOI: 10.1021/acs.jctc.8b01176
   for GFN1-xTB:
   * S. Grimme, C. Bannwarth, P. Shushkov, J. Chem. Theory Comput., 2017,
     13, 1989-2009. DOI: 10.1021/acs.jctc.7b00118
   for GFN0-xTB:
   * P. Pracht, E. Caldeweyher, S. Ehlert, S. Grimme, ChemRxiv, 2019, preprint.
     DOI: 10.26434/chemrxiv.8326202.v1
   for GFN-FF:
   * S. Spicher and S. Grimme, Angew. Chem. Int. Ed., 2020, 59, 15665-15673.
     DOI: 10.1002/anie.202004239
   
   for DFT-D4:
   * E. Caldeweyher, C. Bannwarth and S. Grimme, J. Chem. Phys., 2017,
     147, 034112. DOI: 10.1063/1.4993215
   * E. Caldeweyher, S. Ehlert, A. Hansen, H. Neugebauer, S. Spicher,
     C. Bannwarth and S. Grimme, J. Chem. Phys., 2019, 150, 154122.
     DOI: 10.1063/1.5090222
   * E. Caldeweyher, J.-M. Mewes, S. Ehlert and S. Grimme, Phys. Chem. Chem. Phys.
     2020, 22, 8499-8512. DOI: 10.1039/D0CP00502A
   
   for sTDA-xTB:
   * S. Grimme and C. Bannwarth, J. Chem. Phys., 2016, 145, 054103.
     DOI: 10.1063/1.4959605
   
   in the mass-spec context:
   * V. Asgeirsson, C. Bauer and S. Grimme, Chem. Sci., 2017, 8, 4879.
     DOI: 10.1039/c7sc00601b
   * J. Koopman and S. Grimme, ACS Omega 2019, 4, 12, 15120-15133.
     DOI: 10.1021/acsomega.9b02011
   
   for metadynamics refer to:
   * S. Grimme, J. Chem. Theory Comput., 2019, 155, 2847-2862
     DOI: 10.1021/acs.jctc.9b00143
   
   for SPH calculations refer to:
   * S. Spicher and S. Grimme, J. Chem. Theory Comput., 2021, 17, 1701-1714
     DOI: 10.1021/acs.jctc.0c01306
   
   with help from (in alphabetical order)
   P. Atkinson, C. Bannwarth, F. Bohle, G. Brandenburg, E. Caldeweyher
   M. Checinski, S. Dohm, S. Ehlert, S. Ehrlich, I. Gerasimov, J. Koopman
   C. Lavigne, S. Lehtola, F. März, M. Müller, F. Musil, H. Neugebauer
   J. Pisarek, C. Plett, P. Pracht, J. Seibert, P. Shushkov, S. Spicher
   M. Stahn, M. Steiner, T. Strunk, J. Stückrath, T. Rose, and J. Unsleber
   
 * started run on 2022/03/08 at 06:02:15.820     

           -------------------------------------------------
          |                Calculation Setup                |
           -------------------------------------------------

          program call               : /ihome/ghutchison/oda6/xtb/xtb-641/bin/xtb ../../GFN2_output/517_99_001110.mol --sp --alpb water
          hostname                   : smp-n44
          coordinate file            : ../../GFN2_output/517_99_001110.mol
          omp threads                :                     8
          number of atoms            :                   215
          number of electrons        :                   674
          charge                     :                     0
          spin                       :                   0.0
          first test random number   :      0.05044739893080

   ID    Z sym.   atoms
    1    6 C      1, 3-7, 9-14, 16-20, 22-34, 36-38, 40-47, 49-52, 54, 56,
                  57, 59-66, 68-70, 72-79, 81-84, 86, 88, 89, 91-98, 100-102,
                  104-111, 113-116, 118, 120, 121, 123, 125-129, 131-135
    2   16 S      2, 15, 35, 48, 55, 58, 67, 80, 87, 90, 99, 112, 119, 122,
                  124
    3    8 O      8, 21, 130
    4    9 F      39, 53, 71, 85, 103, 117
    5    1 H      136-215

           -------------------------------------------------
          |                 G F N 2 - x T B                 |
           -------------------------------------------------

        Reference                      10.1021/acs.jctc.8b01176
      * Hamiltonian:
        H0-scaling (s, p, d)           1.850000    2.230000    2.230000
        zeta-weighting                 0.500000
      * Dispersion:
        s8                             2.700000
        a1                             0.520000
        a2                             5.000000
        s9                             5.000000
      * Repulsion:
        kExp                           1.500000    1.000000
        rExp                           1.000000
      * Coulomb:
        alpha                          2.000000
        third order                    shell-resolved
        anisotropic                    true
        a3                             3.000000
        a5                             4.000000
        cn-shift                       1.200000
        cn-exp                         4.000000
        max-rad                        5.000000

      * Solvation model:               ALPB
        Solvent                        water
        Parameter file                 internal GFN2-xTB/ALPB
        Dielectric constant                8.0200E+01
        Reference state                gsolv [1 M gas/solution]
        Free energy shift                  1.0808E-03 Eh       6.7819E-01 kcal/mol
        Temperature                        2.9815E+02 K
        Density                            1.0000E+00 kg/L
        Solvent mass                       1.8000E+01 g/mol
        Interaction kernel             P16
        Born radius scaling (c1)           1.4744E+00
        Born radii integrator          GBOBC
        Born offset                        0.0000E+00 a0       0.0000E+00 AA
        H-bond correction              true
        Ion screening                  false
        Surface tension                    1.0000E-05 Eh       1.5569E+01 dyn/cm
        Grid points                               230 per atom

          ...................................................
          :                      SETUP                      :
          :.................................................:
          :  # basis functions                 710          :
          :  # atomic orbitals                 695          :
          :  # shells                          365          :
          :  # electrons                       674          :
          :  max. iterations                   250          :
          :  Hamiltonian                  GFN2-xTB          :
          :  restarted?                      false          :
          :  GBSA solvation                   true          :
          :  PC potential                    false          :
          :  electronic temp.          300.0000000     K    :
          :  accuracy                    1.0000000          :
          :  -> integral cutoff          0.2500000E+02      :
          :  -> integral neglect         0.1000000E-07      :
          :  -> SCF convergence          0.1000000E-05 Eh   :
          :  -> wf. convergence          0.1000000E-03 e    :
          :  Broyden damping             0.4000000          :
          ...................................................

 iter      E             dE          RMSdq      gap      omega  full diag
   1   -372.9815871 -0.372982E+03  0.449E+00    0.98       0.0  T
   2   -373.1950171 -0.213430E+00  0.253E+00    0.94       1.0  T
   3   -373.0866814  0.108336E+00  0.112E+00    0.98       1.0  T
   4   -373.2257801 -0.139099E+00  0.451E-01    0.89       1.0  T
   5   -373.2414724 -0.156923E-01  0.237E-01    0.92       1.0  T
   6   -373.2467559 -0.528347E-02  0.941E-02    0.91       1.0  T
   7   -373.2474552 -0.699307E-03  0.439E-02    0.91       1.0  T
   8   -373.2476270 -0.171834E-03  0.246E-02    0.91       1.0  T
   9   -373.2476595 -0.325139E-04  0.144E-02    0.91       1.0  T
  10   -373.2476702 -0.106916E-04  0.649E-03    0.91       1.1  T
  11   -373.2476728 -0.260970E-05  0.308E-03    0.91       2.2  T
  12   -373.2476732 -0.378686E-06  0.176E-03    0.91       3.9  T
  13   -373.2476733 -0.115900E-06  0.729E-04    0.91       9.4  T
  14   -373.2476733 -0.365118E-07  0.345E-04    0.91      19.8  T

   *** convergence criteria satisfied after 14 iterations ***

         #    Occupation            Energy/Eh            Energy/eV
      -------------------------------------------------------------
         1        2.0000           -0.8351972             -22.7269
       ...           ...                  ...                  ...
       331        2.0000           -0.3683589             -10.0236
       332        2.0000           -0.3681445             -10.0177
       333        2.0000           -0.3650446              -9.9334
       334        2.0000           -0.3638599              -9.9011
       335        2.0000           -0.3613357              -9.8324
       336        2.0000           -0.3525996              -9.5947
       337        2.0000           -0.3400333              -9.2528 (HOMO)
       338                         -0.3065637              -8.3420 (LUMO)
       339                         -0.3014466              -8.2028
       340                         -0.2947061              -8.0194
       341                         -0.2835222              -7.7150
       342                         -0.2739647              -7.4550
       ...                                ...                  ...
       695                          0.7352208              20.0064
      -------------------------------------------------------------
                  HL-Gap            0.0334697 Eh            0.9108 eV
             Fermi-level           -0.3233007 Eh           -8.7975 eV

 SCC (total)                   0 d,  0 h,  0 min,  0.839 sec
 SCC setup                      ...        0 min,  0.008 sec (  0.924%)
 Dispersion                     ...        0 min,  0.010 sec (  1.169%)
 classical contributions        ...        0 min,  0.000 sec (  0.044%)
 integral evaluation            ...        0 min,  0.043 sec (  5.156%)
 iterations                     ...        0 min,  0.641 sec ( 76.371%)
 molecular gradient             ...        0 min,  0.133 sec ( 15.852%)
 printout                       ...        0 min,  0.004 sec (  0.472%)

         :::::::::::::::::::::::::::::::::::::::::::::::::::::
         ::                     SUMMARY                     ::
         :::::::::::::::::::::::::::::::::::::::::::::::::::::
         :: total energy            -367.875575556750 Eh    ::
         :: total w/o Gsasa/hb      -367.879408687160 Eh    ::
         :: gradient norm              0.031198600537 Eh/a0 ::
         :: HOMO-LUMO gap              0.910755952287 eV    ::
         ::.................................................::
         :: SCC energy              -373.247673344367 Eh    ::
         :: -> isotropic ES            0.166841062750 Eh    ::
         :: -> anisotropic ES          0.010259442648 Eh    ::
         :: -> anisotropic XC          0.132835222305 Eh    ::
         :: -> dispersion             -0.349833835759 Eh    ::
         :: -> Gsolv                  -0.027273697631 Eh    ::
         ::    -> Gelec               -0.031106828041 Eh    ::
         ::    -> Gsasa                0.012836122129 Eh    ::
         ::    -> Ghb                 -0.010083751417 Eh    ::
         ::    -> Gshift               0.001080759698 Eh    ::
         :: repulsion energy           5.369565620847 Eh    ::
         :: add. restraining           0.000000000000 Eh    ::
         :: total charge              -0.000000000205 e     ::
         :::::::::::::::::::::::::::::::::::::::::::::::::::::

           -------------------------------------------------
          |                Property Printout                |
           -------------------------------------------------

    * Orbital Energies and Occupations

         #    Occupation            Energy/Eh            Energy/eV
      -------------------------------------------------------------
         1        2.0000           -0.8351972             -22.7269
       ...           ...                  ...                  ...
       325        2.0000           -0.3857807             -10.4976
       326        2.0000           -0.3771474             -10.2627
       327        2.0000           -0.3756609             -10.2223
       328        2.0000           -0.3728846             -10.1467
       329        2.0000           -0.3694652             -10.0537
       330        2.0000           -0.3686530             -10.0316
       331        2.0000           -0.3683589             -10.0236
       332        2.0000           -0.3681445             -10.0177
       333        2.0000           -0.3650446              -9.9334
       334        2.0000           -0.3638599              -9.9011
       335        2.0000           -0.3613357              -9.8324
       336        2.0000           -0.3525996              -9.5947
       337        2.0000           -0.3400333              -9.2528 (HOMO)
       338                         -0.3065637              -8.3420 (LUMO)
       339                         -0.3014466              -8.2028
       340                         -0.2947061              -8.0194
       341                         -0.2835222              -7.7150
       342                         -0.2739647              -7.4550
       343                         -0.2706311              -7.3642
       344                         -0.2651735              -7.2157
       345                         -0.2638628              -7.1801
       346                         -0.2594295              -7.0594
       347                         -0.2514285              -6.8417
       348                         -0.2499914              -6.8026
       ...                                ...                  ...
       695                          0.7352208              20.0064
      -------------------------------------------------------------
                  HL-Gap            0.0334697 Eh            0.9108 eV
             Fermi-level           -0.3233007 Eh           -8.7975 eV

     #   Z          covCN         q      C6AA      α(0)
     1   6 C        2.924    -0.043    29.059     8.840
     2  16 S        2.342    -0.007   141.363    20.011
     3   6 C        2.975     0.018    27.607     8.619
     4   6 C        3.155    -0.012    28.002     8.653
     5   6 C        3.169     0.001    27.624     8.587
     6   6 C        2.912    -0.075    29.878     8.963
     7   6 C        2.859     0.140    24.955     8.188
     8   8 O        1.706    -0.303    19.048     5.893
     9   6 C        3.642     0.028    20.459     6.503
    10   6 C        2.915    -0.066    29.640     8.928
    11   6 C        2.910    -0.033    28.811     8.801
    12   6 C        2.948    -0.044    29.101     8.848
    13   6 C        2.966    -0.046    29.132     8.853
    14   6 C        2.970     0.014    27.699     8.633
    15  16 S        2.381    -0.030   142.301    20.077
    16   6 C        2.970     0.018    27.610     8.619
    17   6 C        3.167    -0.011    27.920     8.634
    18   6 C        3.137    -0.003    27.863     8.640
    19   6 C        2.913    -0.067    29.666     8.931
    20   6 C        2.861     0.141    24.917     8.182
    21   8 O        1.706    -0.295    18.897     5.869
    22   6 C        3.642     0.025    20.509     6.511
    23   6 C        2.914    -0.064    29.592     8.920
    24   6 C        2.912    -0.035    28.875     8.811
    25   6 C        2.930    -0.040    28.998     8.831
    26   6 C        2.927    -0.046    29.141     8.853
    27   6 C        2.981     0.040    27.088     8.537
    28   6 C        3.071    -0.057    29.332     8.880
    29   6 C        3.140    -0.003    27.867     8.639
    30   6 C        2.992    -0.006    28.162     8.705
    31   6 C        2.977     0.013    27.727     8.637
    32   6 C        2.923    -0.035    28.859     8.810
    33   6 C        3.007    -0.041    28.999     8.834
    34   6 C        2.958     0.030    27.338     8.576
    35  16 S        2.089    -0.156   147.641    20.451
    36   6 C        3.793     0.001    20.570     6.459
    37   6 C        3.802    -0.112    22.635     6.774
    38   6 C        2.796     0.153    24.669     8.136
    39   9 F        0.787    -0.259    11.857     4.068
    40   6 C        2.924    -0.055    29.355     8.885
    41   6 C        3.007     0.025    27.427     8.591
    42   6 C        3.136    -0.004    27.894     8.645
    43   6 C        2.990    -0.006    28.154     8.704
    44   6 C        2.978     0.017    27.635     8.623
    45   6 C        2.923    -0.039    28.958     8.825
    46   6 C        2.980    -0.040    28.994     8.833
    47   6 C        2.960     0.033    27.268     8.565
    48  16 S        2.048    -0.192   149.193    20.558
    49   6 C        3.793    -0.005    20.668     6.474
    50   6 C        3.779    -0.107    22.563     6.767
    51   6 C        2.803     0.160    24.529     8.114
    52   6 C        2.923    -0.055    29.363     8.886
    53   9 F        0.787    -0.254    11.813     4.060
    54   6 C        3.004     0.024    27.444     8.593
    55  16 S        2.279    -0.085   144.587    20.238
    56   6 C        3.064    -0.055    29.285     8.874
    57   6 C        3.019     0.028    27.347     8.578
    58  16 S        2.272    -0.079   144.328    20.220
    59   6 C        3.020     0.030    27.313     8.573
    60   6 C        3.067    -0.055    29.297     8.876
    61   6 C        3.136    -0.002    27.852     8.638
    62   6 C        2.994    -0.004    28.114     8.698
    63   6 C        2.978     0.014    27.695     8.632
    64   6 C        2.924    -0.041    29.015     8.833
    65   6 C        2.947    -0.042    29.050     8.840
    66   6 C        2.961     0.033    27.255     8.563
    67  16 S        2.046    -0.178   148.578    20.515
    68   6 C        3.793    -0.008    20.730     6.484
    69   6 C        3.778    -0.108    22.583     6.770
    70   6 C        2.833     0.161    24.517     8.114
    71   9 F        0.787    -0.255    11.816     4.060
    72   6 C        2.922    -0.055    29.356     8.885
    73   6 C        3.005     0.026    27.403     8.587
    74   6 C        3.134    -0.001    27.840     8.637
    75   6 C        2.993    -0.004    28.116     8.698
    76   6 C        2.979     0.015    27.668     8.628
    77   6 C        2.921    -0.038    28.953     8.824
    78   6 C        2.982    -0.041    29.020     8.837
    79   6 C        2.959     0.033    27.254     8.563
    80  16 S        2.046    -0.186   148.950    20.541
    81   6 C        3.793    -0.005    20.671     6.475
    82   6 C        3.776    -0.103    22.493     6.757
    83   6 C        2.802     0.160    24.538     8.115
    84   6 C        2.926    -0.055    29.376     8.888
    85   9 F        0.787    -0.253    11.799     4.057
    86   6 C        3.009     0.026    27.415     8.589
    87  16 S        2.272    -0.077   144.238    20.214
    88   6 C        3.062    -0.055    29.291     8.875
    89   6 C        3.016     0.030    27.310     8.572
    90  16 S        2.274    -0.075   144.193    20.210
    91   6 C        3.021     0.028    27.349     8.578
    92   6 C        3.064    -0.054    29.280     8.873
    93   6 C        3.135    -0.004    27.910     8.647
    94   6 C        2.994    -0.006    28.170     8.706
    95   6 C        2.978     0.017    27.619     8.621
    96   6 C        2.922    -0.038    28.956     8.824
    97   6 C        2.975    -0.040    28.986     8.831
    98   6 C        2.960     0.033    27.253     8.563
    99  16 S        2.045    -0.197   149.416    20.573
   100   6 C        3.793    -0.004    20.660     6.473
   101   6 C        3.779    -0.108    22.580     6.770
   102   6 C        2.805     0.161    24.519     8.112
   103   9 F        0.787    -0.253    11.792     4.056
   104   6 C        2.924    -0.055    29.374     8.888
   105   6 C        3.008     0.023    27.469     8.597
   106   6 C        3.133    -0.002    27.853     8.639
   107   6 C        2.993    -0.008    28.204     8.712
   108   6 C        2.978     0.012    27.748     8.641
   109   6 C        2.924    -0.041    29.027     8.835
   110   6 C        2.942    -0.046    29.146     8.854
   111   6 C        2.960     0.032    27.278     8.567
   112  16 S        2.054    -0.170   148.242    20.492
   113   6 C        3.793    -0.010    20.757     6.488
   114   6 C        3.778    -0.117    22.759     6.797
   115   6 C        2.846     0.159    24.564     8.123
   116   6 C        2.922    -0.055    29.364     8.886
   117   9 F        0.788    -0.258    11.851     4.067
   118   6 C        3.005     0.026    27.419     8.590
   119  16 S        2.268    -0.082   144.480    20.230
   120   6 C        3.076    -0.065    29.536     8.910
   121   6 C        3.027     0.032    27.257     8.564
   122  16 S        2.276    -0.095   145.019    20.268
   123   6 C        2.998    -0.001    28.044     8.687
   124  16 S        2.382    -0.022   141.958    20.053
   125   6 C        2.973     0.024    27.470     8.597
   126   6 C        3.157    -0.009    27.937     8.642
   127   6 C        3.150    -0.002    27.795     8.623
   128   6 C        2.909    -0.081    30.031     8.986
   129   6 C        2.864     0.146    24.829     8.168
   130   8 O        1.706    -0.286    18.748     5.846
   131   6 C        3.645     0.024    20.513     6.509
   132   6 C        2.916    -0.055    29.373     8.887
   133   6 C        2.909    -0.035    28.871     8.811
   134   6 C        2.942    -0.034    28.843     8.808
   135   6 C        2.839    -0.096    30.414     9.038
   136   1 H        0.926     0.056     2.246     2.344
   137   1 H        0.926     0.043     2.411     2.428
   138   1 H        0.924     0.050     2.321     2.383
   139   1 H        0.924     0.050     2.316     2.380
   140   1 H        0.925     0.076     2.017     2.221
   141   1 H        0.926     0.045     2.380     2.413
   142   1 H        0.926     0.044     2.398     2.422
   143   1 H        0.926     0.049     2.337     2.390
   144   1 H        0.925     0.050     2.325     2.384
   145   1 H        0.926     0.049     2.328     2.386
   146   1 H        0.925     0.079     1.986     2.204
   147   1 H        0.924     0.052     2.301     2.372
   148   1 H        0.924     0.052     2.289     2.366
   149   1 H        0.926     0.050     2.318     2.381
   150   1 H        0.926     0.041     2.442     2.444
   151   1 H        0.925     0.064     2.154     2.295
   152   1 H        0.925     0.059     2.211     2.325
   153   1 H        0.926     0.046     2.370     2.407
   154   1 H        0.926     0.054     2.274     2.358
   155   1 H        0.926     0.064     2.154     2.295
   156   1 H        0.925     0.055     2.261     2.351
   157   1 H        0.925     0.059     2.215     2.327
   158   1 H        0.925     0.062     2.180     2.309
   159   1 H        0.925     0.056     2.247     2.344
   160   1 H        0.925     0.045     2.386     2.415
   161   1 H        0.926     0.071     2.079     2.255
   162   1 H        0.926     0.066     2.132     2.283
   163   1 H        0.926     0.072     2.060     2.245
   164   1 H        0.925     0.066     2.125     2.280
   165   1 H        0.925     0.059     2.205     2.322
   166   1 H        0.925     0.040     2.454     2.450
   167   1 H        0.925     0.054     2.266     2.354
   168   1 H        0.925     0.058     2.217     2.328
   169   1 H        0.926     0.069     2.097     2.264
   170   1 H        0.926     0.055     2.257     2.349
   171   1 H        0.926     0.056     2.248     2.345
   172   1 H        0.926     0.066     2.129     2.282
   173   1 H        0.926     0.069     2.091     2.261
   174   1 H        0.925     0.063     2.169     2.303
   175   1 H        0.925     0.071     2.069     2.250
   176   1 H        0.925     0.054     2.275     2.359
   177   1 H        0.925     0.045     2.377     2.411
   178   1 H        0.925     0.055     2.263     2.353
   179   1 H        0.926     0.068     2.103     2.268
   180   1 H        0.926     0.065     2.138     2.286
   181   1 H        0.926     0.073     2.050     2.239
   182   1 H        0.925     0.067     2.120     2.277
   183   1 H        0.925     0.062     2.181     2.309
   184   1 H        0.925     0.041     2.441     2.443
   185   1 H        0.925     0.056     2.249     2.345
   186   1 H        0.925     0.054     2.267     2.354
   187   1 H        0.926     0.070     2.085     2.258
   188   1 H        0.926     0.056     2.249     2.345
   189   1 H        0.926     0.055     2.255     2.348
   190   1 H        0.926     0.066     2.135     2.285
   191   1 H        0.926     0.074     2.043     2.235
   192   1 H        0.925     0.060     2.200     2.320
   193   1 H        0.925     0.065     2.144     2.290
   194   1 H        0.925     0.055     2.253     2.347
   195   1 H        0.925     0.039     2.464     2.455
   196   1 H        0.925     0.057     2.236     2.338
   197   1 H        0.926     0.070     2.088     2.259
   198   1 H        0.926     0.065     2.147     2.291
   199   1 H        0.926     0.072     2.064     2.246
   200   1 H        0.925     0.066     2.127     2.281
   201   1 H        0.925     0.072     2.068     2.249
   202   1 H        0.925     0.062     2.177     2.307
   203   1 H        0.925     0.055     2.263     2.353
   204   1 H        0.925     0.052     2.300     2.372
   205   1 H        0.926     0.064     2.152     2.294
   206   1 H        0.926     0.050     2.317     2.380
   207   1 H        0.926     0.051     2.303     2.373
   208   1 H        0.924     0.052     2.300     2.372
   209   1 H        0.924     0.053     2.282     2.362
   210   1 H        0.925     0.081     1.964     2.191
   211   1 H        0.926     0.061     2.188     2.313
   212   1 H        0.926     0.059     2.208     2.323
   213   1 H        0.925     0.057     2.233     2.337
   214   1 H        0.926     0.061     2.192     2.315
   215   1 H        0.926     0.056     2.247     2.344

 Mol. C6AA /au·bohr⁶  :     827310.622932
 Mol. C8AA /au·bohr⁸  :   24227102.355748
 Mol. α(0) /au        :       1465.062555


Wiberg/Mayer (AO) data.
largest (>0.10) Wiberg bond orders for each atom

 ---------------------------------------------------------------------------
     #   Z sym  total        # sym  WBO       # sym  WBO       # sym  WBO
 ---------------------------------------------------------------------------
     1   6 C    3.874 --     5 C    1.424     2 S    1.236   136 H    0.968
                             3 C    0.113
     2  16 S    2.660 --     1 C    1.236     3 C    1.153
     3   6 C    3.943 --     4 C    1.323    12 C    1.231     2 S    1.153
                             1 C    0.113
     4   6 C    3.957 --     3 C    1.323    11 C    1.265     5 C    1.170
     5   6 C    3.986 --     1 C    1.424     6 C    1.244     4 C    1.170
     6   6 C    3.964 --     7 C    1.487     5 C    1.244   137 H    0.966
                            11 C    0.112
     7   6 C    3.926 --     6 C    1.487    10 C    1.238     8 O    1.051
     8   8 O    2.202 --     7 C    1.051     9 C    0.976
     9   6 C    3.934 --   140 H    0.977   139 H    0.976     8 O    0.976
                           138 H    0.976
    10   6 C    3.969 --    11 C    1.572     7 C    1.238   141 H    0.965
    11   6 C    3.990 --    10 C    1.572     4 C    1.265   142 H    0.962
                             6 C    0.112
    12   6 C    3.956 --    13 C    1.575     3 C    1.231   143 H    0.950
    13   6 C    3.978 --    12 C    1.575    14 C    1.250   144 H    0.954
    14   6 C    3.931 --    18 C    1.292    13 C    1.250    15 S    1.139
    15  16 S    2.620 --    16 C    1.171    14 C    1.139
    16   6 C    3.898 --    17 C    1.333    15 S    1.171    25 C    1.147
    17   6 C    3.983 --    16 C    1.333    24 C    1.255    18 C    1.187
    18   6 C    3.962 --    14 C    1.292    19 C    1.292    17 C    1.187
    19   6 C    3.977 --    20 C    1.454    18 C    1.292   145 H    0.955
                            24 C    0.111
    20   6 C    3.919 --    19 C    1.454    23 C    1.249    21 O    1.060
    21   8 O    2.211 --    20 C    1.060    22 C    0.975
    22   6 C    3.932 --   146 H    0.977   147 H    0.976   148 H    0.976
                            21 O    0.975
    23   6 C    3.983 --    24 C    1.574    20 C    1.249   149 H    0.964
    24   6 C    3.978 --    23 C    1.574    17 C    1.255   150 H    0.966
                            19 C    0.111
    25   6 C    3.956 --    26 C    1.700    16 C    1.147   151 H    0.952
    26   6 C    3.954 --    25 C    1.700    27 C    1.151   152 H    0.959
    27   6 C    3.930 --    28 C    1.550    26 C    1.151    55 S    1.083
    28   6 C    3.969 --    27 C    1.550    29 C    1.231   153 H    0.955
    29   6 C    3.971 --    30 C    1.283    54 C    1.244    28 C    1.231
    30   6 C    3.964 --    41 C    1.386    29 C    1.283    31 C    1.047
    31   6 C    3.987 --    40 C    1.389    32 C    1.358    30 C    1.047
    32   6 C    3.984 --    33 C    1.484    31 C    1.358   154 H    0.963
    33   6 C    3.985 --    32 C    1.484    34 C    1.352   155 H    0.960
                            40 C    0.100
    34   6 C    3.962 --    33 C    1.352    38 C    1.351    35 S    1.074
    35  16 S    2.282 --    34 C    1.074    36 C    0.973
    36   6 C    3.968 --    37 C    1.024   156 H    0.976   157 H    0.975
                            35 S    0.973
    37   6 C    3.991 --    36 C    1.024   159 H    0.985   160 H    0.982
                           158 H    0.977
    38   6 C    3.867 --    40 C    1.407    34 C    1.351    39 F    0.928
    39   9 F    1.051 --    38 C    0.928
    40   6 C    3.980 --    38 C    1.407    31 C    1.389   161 H    0.960
                            33 C    0.100
    41   6 C    3.944 --    30 C    1.386    42 C    1.248    58 S    1.094
    42   6 C    3.970 --    43 C    1.283    41 C    1.248    56 C    1.225
    43   6 C    3.961 --    54 C    1.388    42 C    1.283    44 C    1.044
    44   6 C    3.985 --    52 C    1.387    45 C    1.369    43 C    1.044
    45   6 C    3.985 --    46 C    1.469    44 C    1.369   162 H    0.964
    46   6 C    3.985 --    45 C    1.469    47 C    1.375   163 H    0.964
                            52 C    0.101
    47   6 C    3.961 --    46 C    1.375    51 C    1.354    48 S    1.044
    48  16 S    2.215 --    47 C    1.044    49 C    0.971
    49   6 C    3.966 --    50 C    1.028   165 H    0.973    48 S    0.971
                           164 H    0.967
    50   6 C    3.993 --    49 C    1.028   166 H    0.985   167 H    0.985
                           168 H    0.976
    51   6 C    3.869 --    52 C    1.411    47 C    1.354    53 F    0.933
    52   6 C    3.981 --    51 C    1.411    44 C    1.387   169 H    0.961
                            46 C    0.101
    53   9 F    1.061 --    51 C    0.933
    54   6 C    3.948 --    43 C    1.388    29 C    1.244    55 S    1.101
    55  16 S    2.482 --    54 C    1.101    27 C    1.083
    56   6 C    3.955 --    57 C    1.552    42 C    1.225   170 H    0.954
    57   6 C    3.933 --    56 C    1.552    59 C    1.155    58 S    1.079
    58  16 S    2.487 --    41 C    1.094    57 C    1.079
    59   6 C    3.933 --    60 C    1.551    57 C    1.155    87 S    1.081
    60   6 C    3.954 --    59 C    1.551    61 C    1.226   171 H    0.953
    61   6 C    3.970 --    62 C    1.281    86 C    1.250    60 C    1.226
    62   6 C    3.962 --    73 C    1.388    61 C    1.281    63 C    1.048
    63   6 C    3.986 --    72 C    1.375    64 C    1.374    62 C    1.048
    64   6 C    3.985 --    65 C    1.460    63 C    1.374   172 H    0.964
    65   6 C    3.985 --    64 C    1.460    66 C    1.378   173 H    0.960
    66   6 C    3.960 --    65 C    1.378    70 C    1.339    67 S    1.056
    67  16 S    2.247 --    66 C    1.056    68 C    0.975
    68   6 C    3.966 --    69 C    1.027    67 S    0.975   174 H    0.969
                           175 H    0.967
    69   6 C    3.992 --    68 C    1.027   176 H    0.986   177 H    0.983
                           178 H    0.976
    70   6 C    3.867 --    72 C    1.424    66 C    1.339    71 F    0.935
    71   9 F    1.064 --    70 C    0.935
    72   6 C    3.980 --    70 C    1.424    63 C    1.375   179 H    0.961
    73   6 C    3.944 --    62 C    1.388    74 C    1.245    90 S    1.098
    74   6 C    3.970 --    75 C    1.288    73 C    1.245    88 C    1.226
    75   6 C    3.960 --    86 C    1.383    74 C    1.288    76 C    1.045
    76   6 C    3.985 --    84 C    1.381    77 C    1.371    75 C    1.045
    77   6 C    3.984 --    78 C    1.469    76 C    1.371   180 H    0.965
    78   6 C    3.985 --    77 C    1.469    79 C    1.372   181 H    0.964
                            84 C    0.101
    79   6 C    3.962 --    78 C    1.372    83 C    1.350    80 S    1.052
    80  16 S    2.232 --    79 C    1.052    81 C    0.971
    81   6 C    3.965 --    82 C    1.027   183 H    0.973    80 S    0.971
                           182 H    0.967
    82   6 C    3.993 --    81 C    1.027   186 H    0.986   184 H    0.985
                           185 H    0.976
    83   6 C    3.869 --    84 C    1.414    79 C    1.350    85 F    0.934
    84   6 C    3.981 --    83 C    1.414    76 C    1.381   187 H    0.960
                            78 C    0.101
    85   9 F    1.062 --    83 C    0.934
    86   6 C    3.945 --    75 C    1.383    61 C    1.250    87 S    1.095
    87  16 S    2.492 --    86 C    1.095    59 C    1.081
    88   6 C    3.952 --    89 C    1.549    74 C    1.226   188 H    0.956
    89   6 C    3.934 --    88 C    1.549    91 C    1.158    90 S    1.080
    90  16 S    2.489 --    73 C    1.098    89 C    1.080
    91   6 C    3.930 --    92 C    1.545    89 C    1.158   119 S    1.080
    92   6 C    3.953 --    91 C    1.545    93 C    1.230   189 H    0.955
    93   6 C    3.964 --    94 C    1.278   118 C    1.247    92 C    1.230
    94   6 C    3.960 --   105 C    1.394    93 C    1.278    95 C    1.045
    95   6 C    3.984 --   104 C    1.382    96 C    1.374    94 C    1.045
    96   6 C    3.985 --    97 C    1.465    95 C    1.374   190 H    0.964
    97   6 C    3.985 --    96 C    1.465    98 C    1.380   191 H    0.964
                           104 C    0.101
    98   6 C    3.963 --    97 C    1.380   102 C    1.354    99 S    1.038
    99  16 S    2.197 --    98 C    1.038   100 C    0.969
   100   6 C    3.966 --   101 C    1.028   192 H    0.973    99 S    0.969
                           193 H    0.968
   101   6 C    3.993 --   100 C    1.028   194 H    0.985   195 H    0.985
                           196 H    0.977
   102   6 C    3.870 --   104 C    1.414    98 C    1.354   103 F    0.935
   103   9 F    1.063 --   102 C    0.935
   104   6 C    3.981 --   102 C    1.414    95 C    1.382   197 H    0.960
                            97 C    0.101
   105   6 C    3.939 --    94 C    1.394   106 C    1.241   122 S    1.085
   106   6 C    3.969 --   107 C    1.277   120 C    1.242   105 C    1.241
   107   6 C    3.953 --   118 C    1.387   106 C    1.277   108 C    1.047
   108   6 C    3.986 --   109 C    1.381   116 C    1.368   107 C    1.047
   109   6 C    3.984 --   110 C    1.454   108 C    1.381   198 H    0.965
   110   6 C    3.985 --   109 C    1.454   111 C    1.378   199 H    0.959
   111   6 C    3.961 --   110 C    1.378   115 C    1.329   112 S    1.066
   112  16 S    2.279 --   111 C    1.066   113 C    0.979
   113   6 C    3.966 --   114 C    1.026   112 S    0.979   200 H    0.967
                           201 H    0.966
   114   6 C    3.990 --   113 C    1.026   203 H    0.986   204 H    0.983
                           202 H    0.976
   115   6 C    3.864 --   116 C    1.431   111 C    1.329   117 F    0.931
   116   6 C    3.980 --   115 C    1.431   108 C    1.368   205 H    0.962
   117   9 F    1.061 --   115 C    0.931
   118   6 C    3.943 --   107 C    1.387    93 C    1.247   119 S    1.095
   119  16 S    2.485 --   118 C    1.095    91 C    1.080
   120   6 C    3.939 --   121 C    1.508   106 C    1.242   206 H    0.954
   121   6 C    3.933 --   120 C    1.508   123 C    1.202   122 S    1.074
   122  16 S    2.493 --   105 C    1.085   121 C    1.074
   123   6 C    3.936 --   127 C    1.329   121 C    1.202   124 S    1.135
   124  16 S    2.643 --   125 C    1.175   123 C    1.135
   125   6 C    3.918 --   126 C    1.358   124 S    1.175   134 C    1.145
   126   6 C    3.985 --   125 C    1.358   133 C    1.232   127 C    1.185
   127   6 C    3.973 --   123 C    1.329   128 C    1.262   126 C    1.185
   128   6 C    3.974 --   129 C    1.484   127 C    1.262   207 H    0.947
                           133 C    0.100
   129   6 C    3.912 --   128 C    1.484   132 C    1.213   130 O    1.071
   130   8 O    2.221 --   129 C    1.071   131 C    0.973
   131   6 C    3.932 --   210 H    0.977   208 H    0.975   209 H    0.975
                           130 O    0.973
   132   6 C    3.983 --   133 C    1.615   129 C    1.213   211 H    0.966
   133   6 C    3.981 --   132 C    1.615   126 C    1.232   212 H    0.961
                           128 C    0.100
   134   6 C    3.987 --   135 C    1.844   125 C    1.145   213 H    0.958
   135   6 C    3.951 --   134 C    1.844   214 H    0.975   215 H    0.971
   136   1 H    0.996 --     1 C    0.968
   137   1 H    0.998 --     6 C    0.966
   138   1 H    0.997 --     9 C    0.976
   139   1 H    0.997 --     9 C    0.976
   140   1 H    0.994 --     9 C    0.977
   141   1 H    0.997 --    10 C    0.965
   142   1 H    0.998 --    11 C    0.962
   143   1 H    0.996 --    12 C    0.950
   144   1 H    0.997 --    13 C    0.954
   145   1 H    0.997 --    19 C    0.955
   146   1 H    0.993 --    22 C    0.977
   147   1 H    0.996 --    22 C    0.976
   148   1 H    0.996 --    22 C    0.976
   149   1 H    0.996 --    23 C    0.964
   150   1 H    0.998 --    24 C    0.966
   151   1 H    0.990 --    25 C    0.952
   152   1 H    0.994 --    26 C    0.959
   153   1 H    0.997 --    28 C    0.955
   154   1 H    0.997 --    32 C    0.963
   155   1 H    0.995 --    33 C    0.960
   156   1 H    0.996 --    36 C    0.976
   157   1 H    0.996 --    36 C    0.975
   158   1 H    0.996 --    37 C    0.977
   159   1 H    0.997 --    37 C    0.985
   160   1 H    0.998 --    37 C    0.982
   161   1 H    0.995 --    40 C    0.960
   162   1 H    0.995 --    45 C    0.964
   163   1 H    0.994 --    46 C    0.964
   164   1 H    0.995 --    49 C    0.967
   165   1 H    0.996 --    49 C    0.973
   166   1 H    0.998 --    50 C    0.985
   167   1 H    0.997 --    50 C    0.985
   168   1 H    0.996 --    50 C    0.976
   169   1 H    0.995 --    52 C    0.961
   170   1 H    0.996 --    56 C    0.954
   171   1 H    0.996 --    60 C    0.953
   172   1 H    0.996 --    64 C    0.964
   173   1 H    0.994 --    65 C    0.960
   174   1 H    0.996 --    68 C    0.969
   175   1 H    0.995 --    68 C    0.967
   176   1 H    0.997 --    69 C    0.986
   177   1 H    0.998 --    69 C    0.983
   178   1 H    0.997 --    69 C    0.976
   179   1 H    0.995 --    72 C    0.961
   180   1 H    0.995 --    77 C    0.965
   181   1 H    0.994 --    78 C    0.964
   182   1 H    0.995 --    81 C    0.967
   183   1 H    0.996 --    81 C    0.973
   184   1 H    0.998 --    82 C    0.985
   185   1 H    0.997 --    82 C    0.976
   186   1 H    0.997 --    82 C    0.986
   187   1 H    0.995 --    84 C    0.960
   188   1 H    0.996 --    88 C    0.956
   189   1 H    0.996 --    92 C    0.955
   190   1 H    0.995 --    96 C    0.964
   191   1 H    0.994 --    97 C    0.964
   192   1 H    0.996 --   100 C    0.973
   193   1 H    0.995 --   100 C    0.968
   194   1 H    0.997 --   101 C    0.985
   195   1 H    0.998 --   101 C    0.985
   196   1 H    0.997 --   101 C    0.977
   197   1 H    0.995 --   104 C    0.960
   198   1 H    0.996 --   109 C    0.965
   199   1 H    0.994 --   110 C    0.959
   200   1 H    0.995 --   113 C    0.967
   201   1 H    0.995 --   113 C    0.966
   202   1 H    0.996 --   114 C    0.976
   203   1 H    0.997 --   114 C    0.986
   204   1 H    0.997 --   114 C    0.983
   205   1 H    0.995 --   116 C    0.962
   206   1 H    0.997 --   120 C    0.954
   207   1 H    0.997 --   128 C    0.947
   208   1 H    0.996 --   131 C    0.975
   209   1 H    0.996 --   131 C    0.975
   210   1 H    0.993 --   131 C    0.977
   211   1 H    0.995 --   132 C    0.966
   212   1 H    0.995 --   133 C    0.961
   213   1 H    0.995 --   134 C    0.958
   214   1 H    0.996 --   135 C    0.975
   215   1 H    0.997 --   135 C    0.971
 ---------------------------------------------------------------------------

Topologies differ in bond orders
Writing corrected topology to xtbtopo.mol

molecular dipole:
                 x           y           z       tot (Debye)
 q only:       -0.122      -0.358      -0.681
   full:        0.026      -0.992      -1.133       3.828
molecular quadrupole (traceless):
                xx          xy          yy          xz          yz          zz
 q only:     -102.323      -0.885      38.399      15.569     -76.905      63.924
  q+dip:     -100.156      -0.160      40.674      10.103     -66.167      59.482
   full:     -109.395       0.846      47.559       3.987     -61.236      61.836


           -------------------------------------------------
          | TOTAL ENERGY             -367.875575556750 Eh   |
          | GRADIENT NORM               0.031198600537 Eh/α |
          | HOMO-LUMO GAP               0.910755952287 eV   |
           -------------------------------------------------

------------------------------------------------------------------------
 * finished run on 2022/03/08 at 06:02:16.761     
------------------------------------------------------------------------
 total:
 * wall-time:     0 d,  0 h,  0 min,  0.941 sec
 *  cpu-time:     0 d,  0 h,  0 min,  7.441 sec
 * ratio c/w:     7.904 speedup
 SCF:
 * wall-time:     0 d,  0 h,  0 min,  0.843 sec
 *  cpu-time:     0 d,  0 h,  0 min,  6.733 sec
 * ratio c/w:     7.987 speedup

