      -----------------------------------------------------------      
     |                   =====================                   |     
     |                           x T B                           |     
     |                   =====================                   |     
     |                         S. Grimme                         |     
     |          Mulliken Center for Theoretical Chemistry        |     
     |                    University of Bonn                     |     
      -----------------------------------------------------------      

   * xtb version 6.4.1 (unknown) compiled by 'oda6@login1.crc.pitt.edu' on 2021-06-25

   xtb is free software: you can redistribute it and/or modify it under
   the terms of the GNU Lesser General Public License as published by
   the Free Software Foundation, either version 3 of the License, or
   (at your option) any later version.
   
   xtb is distributed in the hope that it will be useful,
   but WITHOUT ANY WARRANTY; without even the implied warranty of
   MERCHANTABILITY or FITNESS FOR A PARTICULAR PURPOSE.  See the
   GNU Lesser General Public License for more details.
   
   Cite this work as:
   * C. Bannwarth, E. Caldeweyher, S. Ehlert, A. Hansen, P. Pracht,
     J. Seibert, S. Spicher, S. Grimme, WIREs Comput. Mol. Sci., 2020, 11,
     e01493. DOI: 10.1002/wcms.1493
   
   for GFN2-xTB:
   * C. Bannwarth, S. Ehlert and S. Grimme., J. Chem. Theory Comput., 2019,
     15, 1652-1671. DOI: 10.1021/acs.jctc.8b01176
   for GFN1-xTB:
   * S. Grimme, C. Bannwarth, P. Shushkov, J. Chem. Theory Comput., 2017,
     13, 1989-2009. DOI: 10.1021/acs.jctc.7b00118
   for GFN0-xTB:
   * P. Pracht, E. Caldeweyher, S. Ehlert, S. Grimme, ChemRxiv, 2019, preprint.
     DOI: 10.26434/chemrxiv.8326202.v1
   for GFN-FF:
   * S. Spicher and S. Grimme, Angew. Chem. Int. Ed., 2020, 59, 15665-15673.
     DOI: 10.1002/anie.202004239
   
   for DFT-D4:
   * E. Caldeweyher, C. Bannwarth and S. Grimme, J. Chem. Phys., 2017,
     147, 034112. DOI: 10.1063/1.4993215
   * E. Caldeweyher, S. Ehlert, A. Hansen, H. Neugebauer, S. Spicher,
     C. Bannwarth and S. Grimme, J. Chem. Phys., 2019, 150, 154122.
     DOI: 10.1063/1.5090222
   * E. Caldeweyher, J.-M. Mewes, S. Ehlert and S. Grimme, Phys. Chem. Chem. Phys.
     2020, 22, 8499-8512. DOI: 10.1039/D0CP00502A
   
   for sTDA-xTB:
   * S. Grimme and C. Bannwarth, J. Chem. Phys., 2016, 145, 054103.
     DOI: 10.1063/1.4959605
   
   in the mass-spec context:
   * V. Asgeirsson, C. Bauer and S. Grimme, Chem. Sci., 2017, 8, 4879.
     DOI: 10.1039/c7sc00601b
   * J. Koopman and S. Grimme, ACS Omega 2019, 4, 12, 15120-15133.
     DOI: 10.1021/acsomega.9b02011
   
   for metadynamics refer to:
   * S. Grimme, J. Chem. Theory Comput., 2019, 155, 2847-2862
     DOI: 10.1021/acs.jctc.9b00143
   
   for SPH calculations refer to:
   * S. Spicher and S. Grimme, J. Chem. Theory Comput., 2021, 17, 1701-1714
     DOI: 10.1021/acs.jctc.0c01306
   
   with help from (in alphabetical order)
   P. Atkinson, C. Bannwarth, F. Bohle, G. Brandenburg, E. Caldeweyher
   M. Checinski, S. Dohm, S. Ehlert, S. Ehrlich, I. Gerasimov, J. Koopman
   C. Lavigne, S. Lehtola, F. März, M. Müller, F. Musil, H. Neugebauer
   J. Pisarek, C. Plett, P. Pracht, J. Seibert, P. Shushkov, S. Spicher
   M. Stahn, M. Steiner, T. Strunk, J. Stückrath, T. Rose, and J. Unsleber
   
 * started run on 2022/03/04 at 13:53:03.594     

           -------------------------------------------------
          |                Calculation Setup                |
           -------------------------------------------------

          program call               : /ihome/ghutchison/oda6/xtb/xtb-641/bin/xtb ../../GFN2_output/576_99_010010.mol --sp --alpb water
          hostname                   : smp-n90
          coordinate file            : ../../GFN2_output/576_99_010010.mol
          omp threads                :                     8
          number of atoms            :                   158
          number of electrons        :                   514
          charge                     :                     0
          spin                       :                   0.0
          first test random number   :      0.58113180631595

   ID    Z sym.   atoms
    1    6 C      1-3, 5-7, 9, 11-18, 20-22, 24-31, 33-36, 38, 40, 41, 43-45,
                  47-49, 51, 53-55, 57-59, 61, 63-70, 72-74, 76-83, 85-88,
                  90, 92, 93, 95-97, 99-101, 103
    2    7 N      4, 8, 46, 50, 56, 60, 98, 102
    3   16 S      10, 19, 32, 39, 42, 52, 62, 71, 84, 91, 94, 104
    4    9 F      23, 37, 75, 89
    5    1 H      105-158

           -------------------------------------------------
          |                 G F N 2 - x T B                 |
           -------------------------------------------------

        Reference                      10.1021/acs.jctc.8b01176
      * Hamiltonian:
        H0-scaling (s, p, d)           1.850000    2.230000    2.230000
        zeta-weighting                 0.500000
      * Dispersion:
        s8                             2.700000
        a1                             0.520000
        a2                             5.000000
        s9                             5.000000
      * Repulsion:
        kExp                           1.500000    1.000000
        rExp                           1.000000
      * Coulomb:
        alpha                          2.000000
        third order                    shell-resolved
        anisotropic                    true
        a3                             3.000000
        a5                             4.000000
        cn-shift                       1.200000
        cn-exp                         4.000000
        max-rad                        5.000000

      * Solvation model:               ALPB
        Solvent                        water
        Parameter file                 internal GFN2-xTB/ALPB
        Dielectric constant                8.0200E+01
        Reference state                gsolv [1 M gas/solution]
        Free energy shift                  1.0808E-03 Eh       6.7819E-01 kcal/mol
        Temperature                        2.9815E+02 K
        Density                            1.0000E+00 kg/L
        Solvent mass                       1.8000E+01 g/mol
        Interaction kernel             P16
        Born radius scaling (c1)           1.4744E+00
        Born radii integrator          GBOBC
        Born offset                        0.0000E+00 a0       0.0000E+00 AA
        H-bond correction              true
        Ion screening                  false
        Surface tension                    1.0000E-05 Eh       1.5569E+01 dyn/cm
        Grid points                               230 per atom

          ...................................................
          :                      SETUP                      :
          :.................................................:
          :  # basis functions                 542          :
          :  # atomic orbitals                 530          :
          :  # shells                          274          :
          :  # electrons                       514          :
          :  max. iterations                   250          :
          :  Hamiltonian                  GFN2-xTB          :
          :  restarted?                      false          :
          :  GBSA solvation                   true          :
          :  PC potential                    false          :
          :  electronic temp.          300.0000000     K    :
          :  accuracy                    1.0000000          :
          :  -> integral cutoff          0.2500000E+02      :
          :  -> integral neglect         0.1000000E-07      :
          :  -> SCF convergence          0.1000000E-05 Eh   :
          :  -> wf. convergence          0.1000000E-03 e    :
          :  Broyden damping             0.4000000          :
          ...................................................

 iter      E             dE          RMSdq      gap      omega  full diag
   1   -284.0201380 -0.284020E+03  0.435E+00    0.85       0.0  T
   2   -284.2125482 -0.192410E+00  0.248E+00    0.78       1.0  T
   3   -284.1710742  0.414740E-01  0.103E+00    0.79       1.0  T
   4   -284.2478879 -0.768137E-01  0.378E-01    0.73       1.0  T
   5   -284.2538988 -0.601095E-02  0.204E-01    0.75       1.0  T
   6   -284.2565609 -0.266210E-02  0.845E-02    0.75       1.0  T
   7   -284.2571734 -0.612433E-03  0.314E-02    0.75       1.0  T
   8   -284.2571888 -0.154807E-04  0.203E-02    0.75       1.0  T
   9   -284.2571994 -0.106048E-04  0.124E-02    0.75       1.0  T
  10   -284.2572054 -0.597014E-05  0.607E-03    0.75       1.3  T
  11   -284.2572078 -0.241103E-05  0.303E-03    0.75       2.6  T
  12   -284.2572081 -0.294506E-06  0.159E-03    0.75       5.0  T
  13   -284.2572082 -0.948164E-07  0.699E-04    0.75      11.4  T
  14   -284.2572082 -0.265509E-07  0.350E-04    0.75      22.8  T

   *** convergence criteria satisfied after 14 iterations ***

         #    Occupation            Energy/Eh            Energy/eV
      -------------------------------------------------------------
         1        2.0000           -0.8324509             -22.6521
       ...           ...                  ...                  ...
       251        2.0000           -0.3649919              -9.9319
       252        2.0000           -0.3642691              -9.9123
       253        2.0000           -0.3638196              -9.9000
       254        2.0000           -0.3633021              -9.8860
       255        2.0000           -0.3601107              -9.7991
       256        2.0000           -0.3598531              -9.7921
       257        2.0000           -0.3539726              -9.6321 (HOMO)
       258        0.0000           -0.3263116              -8.8794 (LUMO)
       259                         -0.3154923              -8.5850
       260                         -0.3134370              -8.5291
       261                         -0.3027813              -8.2391
       262                         -0.2788599              -7.5882
       ...                                ...                  ...
       530                          0.7068896              19.2354
      -------------------------------------------------------------
                  HL-Gap            0.0276610 Eh            0.7527 eV
             Fermi-level           -0.3401404 Eh           -9.2557 eV

 SCC (total)                   0 d,  0 h,  0 min,  0.532 sec
 SCC setup                      ...        0 min,  0.005 sec (  0.977%)
 Dispersion                     ...        0 min,  0.006 sec (  1.091%)
 classical contributions        ...        0 min,  0.000 sec (  0.046%)
 integral evaluation            ...        0 min,  0.027 sec (  5.085%)
 iterations                     ...        0 min,  0.418 sec ( 78.591%)
 molecular gradient             ...        0 min,  0.073 sec ( 13.739%)
 printout                       ...        0 min,  0.002 sec (  0.455%)

         :::::::::::::::::::::::::::::::::::::::::::::::::::::
         ::                     SUMMARY                     ::
         :::::::::::::::::::::::::::::::::::::::::::::::::::::
         :: total energy            -280.252937369965 Eh    ::
         :: total w/o Gsasa/hb      -280.245706008305 Eh    ::
         :: gradient norm              0.028673434748 Eh/a0 ::
         :: HOMO-LUMO gap              0.752694731181 eV    ::
         ::.................................................::
         :: SCC energy              -284.257208240061 Eh    ::
         :: -> isotropic ES            0.157563210086 Eh    ::
         :: -> anisotropic ES          0.011065844257 Eh    ::
         :: -> anisotropic XC          0.139421330004 Eh    ::
         :: -> dispersion             -0.253017349948 Eh    ::
         :: -> Gsolv                  -0.039690735283 Eh    ::
         ::    -> Gelec               -0.032459373623 Eh    ::
         ::    -> Gsasa                0.001158119087 Eh    ::
         ::    -> Ghb                 -0.009470240446 Eh    ::
         ::    -> Gshift               0.001080759698 Eh    ::
         :: repulsion energy           4.006771426853 Eh    ::
         :: add. restraining           0.000000000000 Eh    ::
         :: total charge               0.000000000000 e     ::
         :::::::::::::::::::::::::::::::::::::::::::::::::::::

           -------------------------------------------------
          |                Property Printout                |
           -------------------------------------------------

    * Orbital Energies and Occupations

         #    Occupation            Energy/Eh            Energy/eV
      -------------------------------------------------------------
         1        2.0000           -0.8324509             -22.6521
       ...           ...                  ...                  ...
       245        2.0000           -0.3821053             -10.3976
       246        2.0000           -0.3796891             -10.3319
       247        2.0000           -0.3747904             -10.1986
       248        2.0000           -0.3704178             -10.0796
       249        2.0000           -0.3670930              -9.9891
       250        2.0000           -0.3663711              -9.9695
       251        2.0000           -0.3649919              -9.9319
       252        2.0000           -0.3642691              -9.9123
       253        2.0000           -0.3638196              -9.9000
       254        2.0000           -0.3633021              -9.8860
       255        2.0000           -0.3601107              -9.7991
       256        2.0000           -0.3598531              -9.7921
       257        2.0000           -0.3539726              -9.6321 (HOMO)
       258        0.0000           -0.3263116              -8.8794 (LUMO)
       259                         -0.3154923              -8.5850
       260                         -0.3134370              -8.5291
       261                         -0.3027813              -8.2391
       262                         -0.2788599              -7.5882
       263                         -0.2787543              -7.5853
       264                         -0.2598798              -7.0717
       265                         -0.2584181              -7.0319
       266                         -0.2563808              -6.9765
       267                         -0.2543748              -6.9219
       268                         -0.2471517              -6.7253
       ...                                ...                  ...
       530                          0.7068896              19.2354
      -------------------------------------------------------------
                  HL-Gap            0.0276610 Eh            0.7527 eV
             Fermi-level           -0.3401404 Eh           -9.2557 eV

     #   Z          covCN         q      C6AA      α(0)
     1   6 C        2.926    -0.055    29.356     8.885
     2   6 C        3.162     0.063    26.271     8.378
     3   6 C        3.191     0.059    26.205     8.349
     4   7 N        1.847    -0.238    27.071     7.711
     5   6 C        2.921     0.045    26.991     8.520
     6   6 C        2.954     0.103    25.713     8.317
     7   6 C        3.760    -0.140    23.236     6.872
     8   7 N        1.840    -0.262    27.653     7.793
     9   6 C        3.020    -0.005    28.122     8.699
    10  16 S        2.335     0.041   139.391    19.871
    11   6 C        3.012     0.032    27.274     8.567
    12   6 C        3.058    -0.057    29.358     8.886
    13   6 C        3.125     0.000    27.835     8.639
    14   6 C        2.991    -0.002    28.075     8.692
    15   6 C        2.978     0.018    27.601     8.618
    16   6 C        2.923    -0.037    28.930     8.820
    17   6 C        2.976    -0.039    28.976     8.830
    18   6 C        2.960     0.033    27.254     8.563
    19  16 S        2.045    -0.195   149.352    20.569
    20   6 C        3.793    -0.004    20.666     6.474
    21   6 C        3.779    -0.109    22.607     6.774
    22   6 C        2.804     0.160    24.531     8.114
    23   9 F        0.787    -0.256    11.827     4.062
    24   6 C        2.924    -0.056    29.397     8.891
    25   6 C        3.006     0.022    27.496     8.602
    26   6 C        3.126     0.001    27.805     8.634
    27   6 C        2.992    -0.003    28.087     8.694
    28   6 C        2.978     0.018    27.611     8.619
    29   6 C        2.923    -0.039    28.963     8.826
    30   6 C        2.979    -0.041    29.015     8.836
    31   6 C        2.960     0.033    27.262     8.564
    32  16 S        2.047    -0.194   149.316    20.566
    33   6 C        3.793    -0.004    20.665     6.474
    34   6 C        3.779    -0.110    22.621     6.776
    35   6 C        2.803     0.161    24.516     8.112
    36   6 C        2.924    -0.054    29.354     8.885
    37   9 F        0.787    -0.255    11.818     4.061
    38   6 C        3.006     0.023    27.469     8.597
    39  16 S        2.278    -0.059   143.485    20.161
    40   6 C        3.056    -0.058    29.380     8.889
    41   6 C        3.013     0.034    27.227     8.559
    42  16 S        2.280    -0.045   142.914    20.121
    43   6 C        3.018    -0.002    28.046     8.687
    44   6 C        3.164     0.065    26.226     8.369
    45   6 C        3.147     0.062    26.363     8.400
    46   7 N        1.834    -0.228    26.825     7.675
    47   6 C        2.918     0.044    27.024     8.525
    48   6 C        2.957     0.103    25.717     8.318
    49   6 C        3.760    -0.140    23.243     6.873
    50   7 N        1.860    -0.244    27.231     7.735
    51   6 C        3.010     0.005    27.899     8.664
    52  16 S        2.355     0.009   140.677    19.962
    53   6 C        3.009     0.001    27.980     8.677
    54   6 C        3.145     0.067    26.253     8.383
    55   6 C        3.158     0.059    26.378     8.397
    56   7 N        1.834    -0.242    27.173     7.725
    57   6 C        2.915     0.046    26.978     8.517
    58   6 C        2.956     0.101    25.771     8.327
    59   6 C        3.760    -0.139    23.219     6.869
    60   7 N        1.842    -0.240    27.120     7.718
    61   6 C        3.004     0.002    27.965     8.675
    62  16 S        2.384     0.018   140.339    19.938
    63   6 C        3.017     0.034    27.225     8.559
    64   6 C        3.059    -0.054    29.280     8.874
    65   6 C        3.131     0.001    27.792     8.631
    66   6 C        2.992    -0.001    28.055     8.688
    67   6 C        2.978     0.014    27.691     8.632
    68   6 C        2.924    -0.040    29.002     8.831
    69   6 C        2.944    -0.044    29.103     8.848
    70   6 C        2.961     0.033    27.268     8.565
    71  16 S        2.051    -0.172   148.321    20.498
    72   6 C        3.793    -0.010    20.758     6.488
    73   6 C        3.778    -0.115    22.719     6.791
    74   6 C        2.841     0.159    24.551     8.120
    75   9 F        0.787    -0.256    11.834     4.064
    76   6 C        2.922    -0.054    29.344     8.883
    77   6 C        3.005     0.021    27.520     8.605
    78   6 C        3.128    -0.000    27.836     8.639
    79   6 C        2.992    -0.003    28.100     8.696
    80   6 C        2.978     0.012    27.739     8.639
    81   6 C        2.924    -0.041    29.009     8.833
    82   6 C        2.942    -0.046    29.136     8.853
    83   6 C        2.960     0.032    27.274     8.566
    84  16 S        2.056    -0.168   148.169    20.487
    85   6 C        3.793    -0.010    20.767     6.489
    86   6 C        3.778    -0.118    22.779     6.800
    87   6 C        2.849     0.158    24.586     8.127
    88   6 C        2.923    -0.056    29.393     8.891
    89   9 F        0.788    -0.259    11.865     4.069
    90   6 C        3.005     0.028    27.367     8.581
    91  16 S        2.283    -0.073   144.106    20.204
    92   6 C        3.057    -0.058    29.390     8.891
    93   6 C        3.011     0.032    27.270     8.566
    94  16 S        2.293    -0.053   143.242    20.144
    95   6 C        3.024    -0.007    28.167     8.706
    96   6 C        3.181     0.062    26.196     8.355
    97   6 C        3.172     0.061    26.273     8.373
    98   7 N        1.832    -0.247    27.283     7.740
    99   6 C        2.916     0.048    26.916     8.508
   100   6 C        2.958     0.101    25.765     8.326
   101   6 C        3.760    -0.136    23.157     6.860
   102   7 N        1.865    -0.246    27.268     7.740
   103   6 C        2.926    -0.052    29.291     8.875
   104  16 S        2.332     0.044   139.269    19.862
   105   1 H        0.927     0.084     1.937     2.177
   106   1 H        0.925     0.055     2.263     2.353
   107   1 H        0.925     0.079     1.987     2.204
   108   1 H        0.925     0.078     2.003     2.213
   109   1 H        0.925     0.077     2.014     2.219
   110   1 H        0.926     0.057     2.239     2.340
   111   1 H        0.926     0.071     2.076     2.253
   112   1 H        0.926     0.077     2.011     2.218
   113   1 H        0.925     0.064     2.151     2.293
   114   1 H        0.925     0.059     2.216     2.328
   115   1 H        0.925     0.057     2.232     2.336
   116   1 H        0.925     0.040     2.448     2.447
   117   1 H        0.925     0.057     2.233     2.337
   118   1 H        0.926     0.070     2.088     2.260
   119   1 H        0.926     0.067     2.114     2.273
   120   1 H        0.926     0.075     2.032     2.229
   121   1 H        0.925     0.066     2.132     2.284
   122   1 H        0.925     0.058     2.218     2.329
   123   1 H        0.925     0.059     2.216     2.328
   124   1 H        0.925     0.040     2.445     2.445
   125   1 H        0.925     0.059     2.210     2.325
   126   1 H        0.926     0.071     2.078     2.254
   127   1 H        0.926     0.060     2.200     2.319
   128   1 H        0.925     0.060     2.194     2.316
   129   1 H        0.925     0.081     1.968     2.194
   130   1 H        0.925     0.079     1.991     2.207
   131   1 H        0.925     0.082     1.962     2.190
   132   1 H        0.925     0.059     2.212     2.326
   133   1 H        0.925     0.080     1.979     2.200
   134   1 H        0.925     0.080     1.977     2.199
   135   1 H        0.925     0.075     2.033     2.230
   136   1 H        0.926     0.076     2.021     2.223
   137   1 H        0.926     0.067     2.115     2.274
   138   1 H        0.926     0.071     2.072     2.251
   139   1 H        0.925     0.071     2.070     2.250
   140   1 H        0.925     0.064     2.150     2.293
   141   1 H        0.925     0.061     2.183     2.310
   142   1 H        0.925     0.055     2.263     2.352
   143   1 H        0.925     0.049     2.334     2.389
   144   1 H        0.926     0.069     2.094     2.263
   145   1 H        0.926     0.069     2.096     2.264
   146   1 H        0.926     0.074     2.039     2.233
   147   1 H        0.925     0.068     2.111     2.272
   148   1 H        0.925     0.070     2.083     2.257
   149   1 H        0.925     0.062     2.178     2.308
   150   1 H        0.925     0.054     2.267     2.354
   151   1 H        0.925     0.054     2.275     2.359
   152   1 H        0.926     0.066     2.135     2.285
   153   1 H        0.926     0.056     2.250     2.346
   154   1 H        0.925     0.058     2.217     2.328
   155   1 H        0.925     0.073     2.058     2.243
   156   1 H        0.925     0.080     1.977     2.199
   157   1 H        0.925     0.079     1.992     2.207
   158   1 H        0.927     0.085     1.925     2.170

 Mol. C6AA /au·bohr⁶  :     476607.761677
 Mol. C8AA /au·bohr⁸  :   14073882.376105
 Mol. α(0) /au        :       1109.252477


Wiberg/Mayer (AO) data.
largest (>0.10) Wiberg bond orders for each atom

 ---------------------------------------------------------------------------
     #   Z sym  total        # sym  WBO       # sym  WBO       # sym  WBO
 ---------------------------------------------------------------------------
     1   6 C    3.898 --     2 C    1.446    10 S    1.231   105 H    0.963
                             9 C    0.115
     2   6 C    3.980 --     1 C    1.446     8 N    1.231     3 C    1.137
     3   6 C    3.965 --     9 C    1.339     4 N    1.264     2 C    1.137
     4   7 N    3.099 --     5 C    1.587     3 C    1.264
     5   6 C    3.944 --     4 N    1.587     6 C    1.196   106 H    0.960
     6   6 C    3.970 --     8 N    1.561     5 C    1.196     7 C    1.032
     7   6 C    3.986 --     6 C    1.032   107 H    0.981   109 H    0.961
                           108 H    0.959
     8   7 N    3.042 --     6 C    1.561     2 C    1.231
     9   6 C    3.947 --     3 C    1.339    11 C    1.191    10 S    1.169
                             1 C    0.115
    10  16 S    2.696 --     1 C    1.231     9 C    1.169
    11   6 C    3.935 --    12 C    1.509     9 C    1.191    39 S    1.088
    12   6 C    3.956 --    11 C    1.509    13 C    1.245   110 H    0.956
    13   6 C    3.963 --    14 C    1.275    12 C    1.245    38 C    1.236
    14   6 C    3.956 --    25 C    1.395    13 C    1.275    15 C    1.045
    15   6 C    3.984 --    24 C    1.382    16 C    1.373    14 C    1.045
    16   6 C    3.982 --    17 C    1.465    15 C    1.373   111 H    0.962
    17   6 C    3.985 --    16 C    1.465    18 C    1.379   112 H    0.964
                            24 C    0.101
    18   6 C    3.962 --    17 C    1.379    22 C    1.353    19 S    1.040
    19  16 S    2.204 --    18 C    1.040    20 C    0.970
    20   6 C    3.966 --    21 C    1.028   114 H    0.973    19 S    0.970
                           113 H    0.968
    21   6 C    3.993 --    20 C    1.028   117 H    0.985   116 H    0.985
                           115 H    0.977
    22   6 C    3.868 --    24 C    1.415    18 C    1.353    23 F    0.932
    23   9 F    1.060 --    22 C    0.932
    24   6 C    3.982 --    22 C    1.415    15 C    1.382   118 H    0.962
                            17 C    0.101
    25   6 C    3.940 --    14 C    1.395    26 C    1.234    42 S    1.099
    26   6 C    3.966 --    27 C    1.274    40 C    1.252    25 C    1.234
    27   6 C    3.951 --    38 C    1.393    26 C    1.274    28 C    1.046
    28   6 C    3.984 --    36 C    1.383    29 C    1.370    27 C    1.046
    29   6 C    3.983 --    30 C    1.468    28 C    1.370   119 H    0.964
    30   6 C    3.985 --    29 C    1.468    31 C    1.376   120 H    0.964
                            36 C    0.101
    31   6 C    3.962 --    30 C    1.376    35 C    1.354    32 S    1.042
    32  16 S    2.210 --    31 C    1.042    33 C    0.970
    33   6 C    3.966 --    34 C    1.027   122 H    0.973    32 S    0.970
                           121 H    0.967
    34   6 C    3.992 --    33 C    1.027   125 H    0.985   124 H    0.985
                           123 H    0.977
    35   6 C    3.869 --    36 C    1.413    31 C    1.354    37 F    0.933
    36   6 C    3.980 --    35 C    1.413    28 C    1.383   126 H    0.960
                            30 C    0.101
    37   9 F    1.061 --    35 C    0.933
    38   6 C    3.942 --    27 C    1.393    13 C    1.236    39 S    1.098
    39  16 S    2.544 --    38 C    1.098    11 C    1.088
    40   6 C    3.924 --    41 C    1.491    26 C    1.252   127 H    0.956
    41   6 C    3.939 --    40 C    1.491    43 C    1.210    42 S    1.086
    42  16 S    2.545 --    25 C    1.099    41 C    1.086
    43   6 C    3.889 --    44 C    1.310    41 C    1.210    52 S    1.143
    44   6 C    3.965 --    43 C    1.310    50 N    1.274    45 C    1.163
    45   6 C    3.965 --    51 C    1.291    46 N    1.277    44 C    1.163
    46   7 N    3.064 --    47 C    1.577    45 C    1.277
    47   6 C    3.952 --    46 N    1.577    48 C    1.217   128 H    0.959
    48   6 C    3.947 --    50 N    1.519    47 C    1.217    49 C    1.035
    49   6 C    3.985 --    48 C    1.035   130 H    0.981   129 H    0.959
                           131 H    0.958
    50   7 N    3.090 --    48 C    1.519    44 C    1.274
    51   6 C    3.924 --    45 C    1.291    53 C    1.239    52 S    1.144
    52  16 S    2.614 --    51 C    1.144    43 C    1.143
    53   6 C    3.918 --    54 C    1.285    51 C    1.239    62 S    1.144
    54   6 C    3.967 --    60 N    1.288    53 C    1.285    55 C    1.163
    55   6 C    3.964 --    61 C    1.298    56 N    1.271    54 C    1.163
    56   7 N    3.055 --    57 C    1.573    55 C    1.271
    57   6 C    3.961 --    56 N    1.573    58 C    1.224   132 H    0.959
    58   6 C    3.950 --    60 N    1.519    57 C    1.224    59 C    1.032
    59   6 C    3.986 --    58 C    1.032   135 H    0.982   133 H    0.960
                           134 H    0.960
    60   7 N    3.063 --    58 C    1.519    54 C    1.288
    61   6 C    3.894 --    55 C    1.298    63 C    1.209    62 S    1.159
    62  16 S    2.630 --    61 C    1.159    53 C    1.144
    63   6 C    3.934 --    64 C    1.491    61 C    1.209    91 S    1.080
    64   6 C    3.934 --    63 C    1.491    65 C    1.252   136 H    0.950
    65   6 C    3.966 --    66 C    1.271    64 C    1.252    90 C    1.234
    66   6 C    3.948 --    77 C    1.390    65 C    1.271    67 C    1.053
    67   6 C    3.985 --    68 C    1.375    76 C    1.368    66 C    1.053
    68   6 C    3.982 --    69 C    1.457    67 C    1.375   137 H    0.964
    69   6 C    3.985 --    68 C    1.457    70 C    1.377   138 H    0.959
    70   6 C    3.959 --    69 C    1.377    74 C    1.333    71 S    1.062
    71  16 S    2.266 --    70 C    1.062    72 C    0.978
    72   6 C    3.966 --    73 C    1.026    71 S    0.978   140 H    0.967
                           139 H    0.967
    73   6 C    3.990 --    72 C    1.026   142 H    0.986   143 H    0.983
                           141 H    0.977
    74   6 C    3.865 --    76 C    1.430    70 C    1.333    75 F    0.932
    75   9 F    1.062 --    74 C    0.932
    76   6 C    3.979 --    74 C    1.430    67 C    1.368   144 H    0.959
    77   6 C    3.942 --    66 C    1.390    78 C    1.239    94 S    1.099
    78   6 C    3.962 --    79 C    1.271    92 C    1.246    77 C    1.239
    79   6 C    3.955 --    90 C    1.397    78 C    1.271    80 C    1.048
    80   6 C    3.986 --    81 C    1.384    88 C    1.363    79 C    1.048
    81   6 C    3.982 --    82 C    1.450    80 C    1.384   145 H    0.962
    82   6 C    3.984 --    81 C    1.450    83 C    1.381   146 H    0.958
    83   6 C    3.960 --    82 C    1.381    87 C    1.326    84 S    1.068
    84  16 S    2.284 --    83 C    1.068    85 C    0.980
    85   6 C    3.966 --    86 C    1.025    84 S    0.980   148 H    0.967
                           147 H    0.966
    86   6 C    3.990 --    85 C    1.025   150 H    0.986   151 H    0.983
                           149 H    0.977
    87   6 C    3.863 --    88 C    1.436    83 C    1.326    89 F    0.930
    88   6 C    3.982 --    87 C    1.436    80 C    1.363   152 H    0.962
    89   9 F    1.059 --    87 C    0.930
    90   6 C    3.935 --    79 C    1.397    65 C    1.234    91 S    1.094
    91  16 S    2.483 --    90 C    1.094    63 C    1.080
    92   6 C    3.955 --    93 C    1.508    78 C    1.246   153 H    0.957
    93   6 C    3.936 --    92 C    1.508    95 C    1.191    94 S    1.090
    94  16 S    2.560 --    77 C    1.099    93 C    1.090
    95   6 C    3.941 --    96 C    1.339    93 C    1.191   104 S    1.165
                           103 C    0.115
    96   6 C    3.966 --    95 C    1.339   102 N    1.268    97 C    1.138
    97   6 C    3.979 --   103 C    1.443    98 N    1.227    96 C    1.138
    98   7 N    3.048 --    99 C    1.615    97 C    1.227
    99   6 C    3.973 --    98 N    1.615   100 C    1.196   154 H    0.959
   100   6 C    3.943 --   102 N    1.533    99 C    1.196   101 C    1.035
   101   6 C    3.986 --   100 C    1.035   155 H    0.982   157 H    0.959
                           156 H    0.958
   102   7 N    3.105 --   100 C    1.533    96 C    1.268
   103   6 C    3.905 --    97 C    1.443   104 S    1.241   158 H    0.963
                            95 C    0.115
   104  16 S    2.700 --   103 C    1.241    95 C    1.165
   105   1 H    0.992 --     1 C    0.963
   106   1 H    0.996 --     5 C    0.960
   107   1 H    0.994 --     7 C    0.981
   108   1 H    0.990 --     7 C    0.959
   109   1 H    0.990 --     7 C    0.961
   110   1 H    0.996 --    12 C    0.956
   111   1 H    0.995 --    16 C    0.962
   112   1 H    0.993 --    17 C    0.964
   113   1 H    0.995 --    20 C    0.968
   114   1 H    0.996 --    20 C    0.973
   115   1 H    0.996 --    21 C    0.977
   116   1 H    0.998 --    21 C    0.985
   117   1 H    0.997 --    21 C    0.985
   118   1 H    0.995 --    24 C    0.962
   119   1 H    0.995 --    29 C    0.964
   120   1 H    0.994 --    30 C    0.964
   121   1 H    0.995 --    33 C    0.967
   122   1 H    0.996 --    33 C    0.973
   123   1 H    0.996 --    34 C    0.977
   124   1 H    0.998 --    34 C    0.985
   125   1 H    0.997 --    34 C    0.985
   126   1 H    0.995 --    36 C    0.960
   127   1 H    0.996 --    40 C    0.956
   128   1 H    0.994 --    47 C    0.959
   129   1 H    0.989 --    49 C    0.959
   130   1 H    0.994 --    49 C    0.981
   131   1 H    0.989 --    49 C    0.958
   132   1 H    0.995 --    57 C    0.959
   133   1 H    0.989 --    59 C    0.960
   134   1 H    0.989 --    59 C    0.960
   135   1 H    0.994 --    59 C    0.982
   136   1 H    0.994 --    64 C    0.950
   137   1 H    0.995 --    68 C    0.964
   138   1 H    0.994 --    69 C    0.959
   139   1 H    0.995 --    72 C    0.967
   140   1 H    0.996 --    72 C    0.967
   141   1 H    0.996 --    73 C    0.977
   142   1 H    0.997 --    73 C    0.986
   143   1 H    0.998 --    73 C    0.983
   144   1 H    0.995 --    76 C    0.959
   145   1 H    0.995 --    81 C    0.962
   146   1 H    0.994 --    82 C    0.958
   147   1 H    0.995 --    85 C    0.966
   148   1 H    0.995 --    85 C    0.967
   149   1 H    0.996 --    86 C    0.977
   150   1 H    0.997 --    86 C    0.986
   151   1 H    0.997 --    86 C    0.983
   152   1 H    0.995 --    88 C    0.962
   153   1 H    0.996 --    92 C    0.957
   154   1 H    0.995 --    99 C    0.959
   155   1 H    0.995 --   101 C    0.982
   156   1 H    0.988 --   101 C    0.958
   157   1 H    0.988 --   101 C    0.959
   158   1 H    0.992 --   103 C    0.963
 ---------------------------------------------------------------------------

Topologies differ in bond orders
Writing corrected topology to xtbtopo.mol

molecular dipole:
                 x           y           z       tot (Debye)
 q only:       -0.082      -2.019       1.459
   full:        0.033      -2.110       1.485       6.558
molecular quadrupole (traceless):
                xx          xy          yy          xz          yz          zz
 q only:       49.085     -11.015      17.029      20.785      81.937     -66.115
  q+dip:       33.302     -12.688       9.950      10.511      84.781     -43.252
   full:       35.058     -17.653      11.837      15.319      80.396     -46.896


           -------------------------------------------------
          | TOTAL ENERGY             -280.252937369965 Eh   |
          | GRADIENT NORM               0.028673434748 Eh/α |
          | HOMO-LUMO GAP               0.752694731181 eV   |
           -------------------------------------------------

------------------------------------------------------------------------
 * finished run on 2022/03/04 at 13:53:04.208     
------------------------------------------------------------------------
 total:
 * wall-time:     0 d,  0 h,  0 min,  0.614 sec
 *  cpu-time:     0 d,  0 h,  0 min,  4.820 sec
 * ratio c/w:     7.851 speedup
 SCF:
 * wall-time:     0 d,  0 h,  0 min,  0.535 sec
 *  cpu-time:     0 d,  0 h,  0 min,  4.263 sec
 * ratio c/w:     7.972 speedup

