      -----------------------------------------------------------      
     |                   =====================                   |     
     |                           x T B                           |     
     |                   =====================                   |     
     |                         S. Grimme                         |     
     |          Mulliken Center for Theoretical Chemistry        |     
     |                    University of Bonn                     |     
      -----------------------------------------------------------      

   * xtb version 6.4.1 (unknown) compiled by 'oda6@login1.crc.pitt.edu' on 2021-06-25

   xtb is free software: you can redistribute it and/or modify it under
   the terms of the GNU Lesser General Public License as published by
   the Free Software Foundation, either version 3 of the License, or
   (at your option) any later version.
   
   xtb is distributed in the hope that it will be useful,
   but WITHOUT ANY WARRANTY; without even the implied warranty of
   MERCHANTABILITY or FITNESS FOR A PARTICULAR PURPOSE.  See the
   GNU Lesser General Public License for more details.
   
   Cite this work as:
   * C. Bannwarth, E. Caldeweyher, S. Ehlert, A. Hansen, P. Pracht,
     J. Seibert, S. Spicher, S. Grimme, WIREs Comput. Mol. Sci., 2020, 11,
     e01493. DOI: 10.1002/wcms.1493
   
   for GFN2-xTB:
   * C. Bannwarth, S. Ehlert and S. Grimme., J. Chem. Theory Comput., 2019,
     15, 1652-1671. DOI: 10.1021/acs.jctc.8b01176
   for GFN1-xTB:
   * S. Grimme, C. Bannwarth, P. Shushkov, J. Chem. Theory Comput., 2017,
     13, 1989-2009. DOI: 10.1021/acs.jctc.7b00118
   for GFN0-xTB:
   * P. Pracht, E. Caldeweyher, S. Ehlert, S. Grimme, ChemRxiv, 2019, preprint.
     DOI: 10.26434/chemrxiv.8326202.v1
   for GFN-FF:
   * S. Spicher and S. Grimme, Angew. Chem. Int. Ed., 2020, 59, 15665-15673.
     DOI: 10.1002/anie.202004239
   
   for DFT-D4:
   * E. Caldeweyher, C. Bannwarth and S. Grimme, J. Chem. Phys., 2017,
     147, 034112. DOI: 10.1063/1.4993215
   * E. Caldeweyher, S. Ehlert, A. Hansen, H. Neugebauer, S. Spicher,
     C. Bannwarth and S. Grimme, J. Chem. Phys., 2019, 150, 154122.
     DOI: 10.1063/1.5090222
   * E. Caldeweyher, J.-M. Mewes, S. Ehlert and S. Grimme, Phys. Chem. Chem. Phys.
     2020, 22, 8499-8512. DOI: 10.1039/D0CP00502A
   
   for sTDA-xTB:
   * S. Grimme and C. Bannwarth, J. Chem. Phys., 2016, 145, 054103.
     DOI: 10.1063/1.4959605
   
   in the mass-spec context:
   * V. Asgeirsson, C. Bauer and S. Grimme, Chem. Sci., 2017, 8, 4879.
     DOI: 10.1039/c7sc00601b
   * J. Koopman and S. Grimme, ACS Omega 2019, 4, 12, 15120-15133.
     DOI: 10.1021/acsomega.9b02011
   
   for metadynamics refer to:
   * S. Grimme, J. Chem. Theory Comput., 2019, 155, 2847-2862
     DOI: 10.1021/acs.jctc.9b00143
   
   for SPH calculations refer to:
   * S. Spicher and S. Grimme, J. Chem. Theory Comput., 2021, 17, 1701-1714
     DOI: 10.1021/acs.jctc.0c01306
   
   with help from (in alphabetical order)
   P. Atkinson, C. Bannwarth, F. Bohle, G. Brandenburg, E. Caldeweyher
   M. Checinski, S. Dohm, S. Ehlert, S. Ehrlich, I. Gerasimov, J. Koopman
   C. Lavigne, S. Lehtola, F. März, M. Müller, F. Musil, H. Neugebauer
   J. Pisarek, C. Plett, P. Pracht, J. Seibert, P. Shushkov, S. Spicher
   M. Stahn, M. Steiner, T. Strunk, J. Stückrath, T. Rose, and J. Unsleber
   
 * started run on 2022/03/03 at 13:51:54.055     

           -------------------------------------------------
          |                Calculation Setup                |
           -------------------------------------------------

          program call               : /ihome/ghutchison/oda6/xtb/xtb-641/bin/xtb ../../GFN2_output/687_61_010010.mol --sp --alpb water
          hostname                   : smp-n90
          coordinate file            : ../../GFN2_output/687_61_010010.mol
          omp threads                :                     8
          number of atoms            :                   182
          number of electrons        :                   586
          charge                     :                     0
          spin                       :                   0.0
          first test random number   :      0.32531692816500

   ID    Z sym.   atoms
    1    6 C      1, 3-9, 11-19, 21-24, 26, 28-31, 33-37, 40, 42, 43, 45,
                  47-53, 55-59, 61-67, 69-77, 79-82, 84, 86-89, 91-95, 98,
                  100, 101, 103, 105-111, 113-116
    2   16 S      2, 20, 32, 41, 44, 46, 60, 78, 90, 99, 102, 104
    3    8 O      10, 54, 68, 112
    4   17 Cl     25, 27, 38, 39, 83, 85, 96, 97
    5    1 H      117-182

           -------------------------------------------------
          |                 G F N 2 - x T B                 |
           -------------------------------------------------

        Reference                      10.1021/acs.jctc.8b01176
      * Hamiltonian:
        H0-scaling (s, p, d)           1.850000    2.230000    2.230000
        zeta-weighting                 0.500000
      * Dispersion:
        s8                             2.700000
        a1                             0.520000
        a2                             5.000000
        s9                             5.000000
      * Repulsion:
        kExp                           1.500000    1.000000
        rExp                           1.000000
      * Coulomb:
        alpha                          2.000000
        third order                    shell-resolved
        anisotropic                    true
        a3                             3.000000
        a5                             4.000000
        cn-shift                       1.200000
        cn-exp                         4.000000
        max-rad                        5.000000

      * Solvation model:               ALPB
        Solvent                        water
        Parameter file                 internal GFN2-xTB/ALPB
        Dielectric constant                8.0200E+01
        Reference state                gsolv [1 M gas/solution]
        Free energy shift                  1.0808E-03 Eh       6.7819E-01 kcal/mol
        Temperature                        2.9815E+02 K
        Density                            1.0000E+00 kg/L
        Solvent mass                       1.8000E+01 g/mol
        Interaction kernel             P16
        Born radius scaling (c1)           1.4744E+00
        Born radii integrator          GBOBC
        Born offset                        0.0000E+00 a0       0.0000E+00 AA
        H-bond correction              true
        Ion screening                  false
        Surface tension                    1.0000E-05 Eh       1.5569E+01 dyn/cm
        Grid points                               230 per atom

          ...................................................
          :                      SETUP                      :
          :.................................................:
          :  # basis functions                 650          :
          :  # atomic orbitals                 630          :
          :  # shells                          318          :
          :  # electrons                       586          :
          :  max. iterations                   250          :
          :  Hamiltonian                  GFN2-xTB          :
          :  restarted?                      false          :
          :  GBSA solvation                   true          :
          :  PC potential                    false          :
          :  electronic temp.          300.0000000     K    :
          :  accuracy                    1.0000000          :
          :  -> integral cutoff          0.2500000E+02      :
          :  -> integral neglect         0.1000000E-07      :
          :  -> SCF convergence          0.1000000E-05 Eh   :
          :  -> wf. convergence          0.1000000E-03 e    :
          :  Broyden damping             0.4000000          :
          ...................................................

 iter      E             dE          RMSdq      gap      omega  full diag
   1   -326.6371231 -0.326637E+03  0.414E+00    1.16       0.0  T
   2   -326.7918037 -0.154681E+00  0.233E+00    1.12       1.0  T
   3   -326.6623012  0.129502E+00  0.117E+00    1.19       1.0  T
   4   -326.8196833 -0.157382E+00  0.431E-01    1.14       1.0  T
   5   -326.8336613 -0.139780E-01  0.220E-01    1.13       1.0  T
   6   -326.8379703 -0.430892E-02  0.117E-01    1.13       1.0  T
   7   -326.8387915 -0.821236E-03  0.766E-02    1.13       1.0  T
   8   -326.8391777 -0.386153E-03  0.555E-02    1.13       1.0  T
   9   -326.8393381 -0.160426E-03  0.417E-02    1.12       1.0  T
  10   -326.8394787 -0.140634E-03  0.264E-02    1.12       1.0  T
  11   -326.8395413 -0.625971E-04  0.171E-02    1.11       1.0  T
  12   -326.8395618 -0.205166E-04  0.984E-03    1.11       1.0  T
  13   -326.8395685 -0.668099E-05  0.622E-03    1.11       1.2  T
  14   -326.8395709 -0.237723E-05  0.439E-03    1.11       1.7  T
  15   -326.8395720 -0.113460E-05  0.290E-03    1.11       2.6  T
  16   -326.8395727 -0.653480E-06  0.176E-03    1.11       4.2  T
  17   -326.8395729 -0.201895E-06  0.121E-03    1.11       6.2  T
  18   -326.8395730 -0.989083E-07  0.818E-04    1.11       9.1  T
  19   -326.8395730 -0.426536E-07  0.577E-04    1.11      12.8  T

   *** convergence criteria satisfied after 19 iterations ***

         #    Occupation            Energy/Eh            Energy/eV
      -------------------------------------------------------------
         1        2.0000           -1.0889249             -29.6312
       ...           ...                  ...                  ...
       287        2.0000           -0.3831102             -10.4250
       288        2.0000           -0.3768247             -10.2539
       289        2.0000           -0.3727990             -10.1444
       290        2.0000           -0.3635523              -9.8928
       291        2.0000           -0.3600402              -9.7972
       292        2.0000           -0.3533560              -9.6153
       293        2.0000           -0.3491997              -9.5022 (HOMO)
       294                         -0.3084364              -8.3930 (LUMO)
       295                         -0.3060182              -8.3272
       296                         -0.2940640              -8.0019
       297                         -0.2898364              -7.8868
       298                         -0.2844417              -7.7401
       ...                                ...                  ...
       630                          0.7212317              19.6257
      -------------------------------------------------------------
                  HL-Gap            0.0407633 Eh            1.1092 eV
             Fermi-level           -0.3288480 Eh           -8.9484 eV

 SCC (total)                   0 d,  0 h,  0 min,  2.021 sec
 SCC setup                      ...        0 min,  0.008 sec (  0.372%)
 Dispersion                     ...        0 min,  0.007 sec (  0.357%)
 classical contributions        ...        0 min,  0.000 sec (  0.020%)
 integral evaluation            ...        0 min,  0.049 sec (  2.404%)
 iterations                     ...        0 min,  1.780 sec ( 88.076%)
 molecular gradient             ...        0 min,  0.172 sec (  8.530%)
 printout                       ...        0 min,  0.005 sec (  0.237%)

         :::::::::::::::::::::::::::::::::::::::::::::::::::::
         ::                     SUMMARY                     ::
         :::::::::::::::::::::::::::::::::::::::::::::::::::::
         :: total energy            -322.453707708323 Eh    ::
         :: total w/o Gsasa/hb      -322.451362840559 Eh    ::
         :: gradient norm              0.030331292181 Eh/a0 ::
         :: HOMO-LUMO gap              1.109224982297 eV    ::
         ::.................................................::
         :: SCC energy              -326.839573015382 Eh    ::
         :: -> isotropic ES            0.136453902753 Eh    ::
         :: -> anisotropic ES         -0.021421683054 Eh    ::
         :: -> anisotropic XC          0.100799493516 Eh    ::
         :: -> dispersion             -0.365751788996 Eh    ::
         :: -> Gsolv                  -0.041134372888 Eh    ::
         ::    -> Gelec               -0.038789505124 Eh    ::
         ::    -> Gsasa                0.003061305748 Eh    ::
         ::    -> Ghb                 -0.006486933209 Eh    ::
         ::    -> Gshift               0.001080759698 Eh    ::
         :: repulsion energy           4.362133906639 Eh    ::
         :: add. restraining           0.000000000000 Eh    ::
         :: total charge              -0.000000000064 e     ::
         :::::::::::::::::::::::::::::::::::::::::::::::::::::

           -------------------------------------------------
          |                Property Printout                |
           -------------------------------------------------

    * Orbital Energies and Occupations

         #    Occupation            Energy/Eh            Energy/eV
      -------------------------------------------------------------
         1        2.0000           -1.0889249             -29.6312
       ...           ...                  ...                  ...
       281        2.0000           -0.4008430             -10.9075
       282        2.0000           -0.3979341             -10.8283
       283        2.0000           -0.3933612             -10.7039
       284        2.0000           -0.3914344             -10.6515
       285        2.0000           -0.3893545             -10.5949
       286        2.0000           -0.3881355             -10.5617
       287        2.0000           -0.3831102             -10.4250
       288        2.0000           -0.3768247             -10.2539
       289        2.0000           -0.3727990             -10.1444
       290        2.0000           -0.3635523              -9.8928
       291        2.0000           -0.3600402              -9.7972
       292        2.0000           -0.3533560              -9.6153
       293        2.0000           -0.3491997              -9.5022 (HOMO)
       294                         -0.3084364              -8.3930 (LUMO)
       295                         -0.3060182              -8.3272
       296                         -0.2940640              -8.0019
       297                         -0.2898364              -7.8868
       298                         -0.2844417              -7.7401
       299                         -0.2821019              -7.6764
       300                         -0.2694509              -7.3321
       301                         -0.2676666              -7.2836
       302                         -0.2626043              -7.1458
       303                         -0.2600754              -7.0770
       304                         -0.2478838              -6.7453
       ...                                ...                  ...
       630                          0.7212317              19.6257
      -------------------------------------------------------------
                  HL-Gap            0.0407633 Eh            1.1092 eV
             Fermi-level           -0.3288480 Eh           -8.9484 eV

     #   Z          covCN         q      C6AA      α(0)
     1   6 C        2.928    -0.031    28.776     8.797
     2  16 S        2.303    -0.015   141.692    20.034
     3   6 C        2.976     0.005    27.906     8.665
     4   6 C        3.160    -0.007    27.880     8.632
     5   6 C        3.160    -0.004    27.808     8.621
     6   6 C        2.913    -0.052    29.292     8.875
     7   6 C        2.962     0.005    27.913     8.666
     8   6 C        3.759    -0.124    22.931     6.827
     9   6 C        2.867     0.136    25.023     8.200
    10   8 O        1.705    -0.274    18.537     5.813
    11   6 C        3.644     0.033    20.355     6.485
    12   6 C        2.907    -0.076    29.899     8.966
    13   6 C        2.931    -0.034    28.849     8.809
    14   6 C        2.927    -0.055    29.355     8.885
    15   6 C        2.986     0.033    27.248     8.563
    16   6 C        3.073    -0.060    29.401     8.890
    17   6 C        3.141    -0.008    27.961     8.653
    18   6 C        3.022    -0.013    28.322     8.730
    19   6 C        3.012    -0.000    28.018     8.683
    20  16 S        2.418     0.011   140.599    19.957
    21   6 C        3.008     0.022    27.497     8.602
    22   6 C        3.826    -0.060    21.634     6.619
    23   6 C        3.754    -0.116    22.769     6.804
    24   6 C        3.114     0.061    26.485     8.430
    25  17 Cl       0.949    -0.172   104.558    15.644
    26   6 C        3.100     0.066    26.411     8.422
    27  17 Cl       0.945    -0.185   104.977    15.675
    28   6 C        3.009     0.018    27.586     8.616
    29   6 C        3.133    -0.000    27.821     8.634
    30   6 C        3.010    -0.008    28.191     8.710
    31   6 C        3.014     0.001    27.980     8.677
    32  16 S        2.378     0.023   140.112    19.922
    33   6 C        3.009     0.017    27.606     8.619
    34   6 C        3.823    -0.065    21.729     6.633
    35   6 C        3.754    -0.116    22.776     6.805
    36   6 C        3.112     0.061    26.476     8.429
    37   6 C        3.098     0.069    26.334     8.410
    38  17 Cl       0.956    -0.184   104.925    15.671
    39  17 Cl       0.949    -0.176   104.667    15.652
    40   6 C        3.003     0.023    27.478     8.599
    41  16 S        2.289    -0.104   145.409    20.295
    42   6 C        3.070    -0.065    29.544     8.912
    43   6 C        3.024     0.033    27.244     8.562
    44  16 S        2.313    -0.072   144.054    20.201
    45   6 C        3.016    -0.002    28.060     8.689
    46  16 S        2.340    -0.017   141.766    20.040
    47   6 C        2.990     0.021    27.530     8.607
    48   6 C        3.170    -0.006    27.800     8.614
    49   6 C        3.146    -0.008    27.945     8.649
    50   6 C        2.915    -0.049    29.219     8.864
    51   6 C        2.963     0.009    27.807     8.649
    52   6 C        3.759    -0.123    22.911     6.824
    53   6 C        2.868     0.138    24.989     8.194
    54   8 O        1.705    -0.274    18.549     5.815
    55   6 C        3.646     0.016    20.643     6.529
    56   6 C        2.908    -0.080    29.994     8.980
    57   6 C        2.925    -0.036    28.884     8.814
    58   6 C        2.927    -0.036    28.899     8.816
    59   6 C        2.983     0.018    27.611     8.619
    60  16 S        2.359     0.011   140.616    19.958
    61   6 C        2.972     0.004    27.923     8.668
    62   6 C        3.149    -0.009    27.964     8.650
    63   6 C        3.175    -0.015    27.978     8.638
    64   6 C        2.917    -0.045    29.120     8.849
    65   6 C        2.962    -0.003    28.098     8.695
    66   6 C        3.759    -0.089    22.241     6.723
    67   6 C        2.869     0.135    25.058     8.206
    68   8 O        1.706    -0.296    18.918     5.872
    69   6 C        3.647     0.079    19.579     6.358
    70   6 C        2.907    -0.076    29.902     8.966
    71   6 C        2.945    -0.035    28.878     8.814
    72   6 C        2.920    -0.049    29.218     8.864
    73   6 C        2.980     0.044    27.006     8.524
    74   6 C        3.076    -0.062    29.464     8.900
    75   6 C        3.140    -0.005    27.903     8.644
    76   6 C        3.008    -0.009    28.237     8.717
    77   6 C        3.012    -0.002    28.067     8.690
    78  16 S        2.382     0.034   139.669    19.891
    79   6 C        3.011     0.016    27.639     8.624
    80   6 C        3.824    -0.061    21.661     6.623
    81   6 C        3.754    -0.118    22.809     6.810
    82   6 C        3.115     0.061    26.477     8.429
    83  17 Cl       0.951    -0.171   104.503    15.639
    84   6 C        3.104     0.067    26.380     8.416
    85  17 Cl       0.961    -0.189   105.106    15.685
    86   6 C        3.007     0.022    27.497     8.602
    87   6 C        3.135    -0.005    27.933     8.651
    88   6 C        3.006    -0.011    28.282     8.724
    89   6 C        3.013     0.002    27.973     8.676
    90  16 S        2.377     0.035   139.620    19.887
    91   6 C        3.009     0.015    27.659     8.627
    92   6 C        3.822    -0.062    21.678     6.626
    93   6 C        3.754    -0.117    22.795     6.808
    94   6 C        3.115     0.061    26.487     8.430
    95   6 C        3.106     0.066    26.384     8.416
    96  17 Cl       0.952    -0.193   105.214    15.693
    97  17 Cl       0.954    -0.179   104.762    15.659
    98   6 C        3.006     0.021    27.515     8.605
    99  16 S        2.281    -0.082   144.486    20.231
   100   6 C        3.076    -0.067    29.575     8.916
   101   6 C        3.030     0.031    27.285     8.568
   102  16 S        2.291    -0.088   144.735    20.248
   103   6 C        3.000     0.001    27.990     8.678
   104  16 S        2.356    -0.026   142.115    20.064
   105   6 C        2.976     0.018    27.614     8.620
   106   6 C        3.159    -0.009    27.923     8.639
   107   6 C        3.144    -0.011    28.025     8.662
   108   6 C        2.915    -0.050    29.230     8.866
   109   6 C        2.963     0.003    27.944     8.671
   110   6 C        3.759    -0.120    22.849     6.815
   111   6 C        2.867     0.134    25.058     8.206
   112   8 O        1.705    -0.282    18.674     5.835
   113   6 C        3.645     0.021    20.564     6.518
   114   6 C        2.908    -0.082    30.059     8.990
   115   6 C        2.923    -0.035    28.875     8.812
   116   6 C        2.841    -0.098    30.445     9.043
   117   1 H        0.926     0.075     2.031     2.228
   118   1 H        0.926     0.058     2.224     2.332
   119   1 H        0.925     0.060     2.203     2.321
   120   1 H        0.925     0.067     2.124     2.279
   121   1 H        0.925     0.070     2.091     2.261
   122   1 H        0.924     0.039     2.457     2.451
   123   1 H        0.925     0.083     1.947     2.182
   124   1 H        0.924     0.043     2.411     2.428
   125   1 H        0.926     0.023     2.695     2.567
   126   1 H        0.926     0.033     2.541     2.493
   127   1 H        0.925     0.043     2.409     2.427
   128   1 H        0.926     0.026     2.646     2.544
   129   1 H        0.924     0.075     2.028     2.227
   130   1 H        0.924     0.072     2.068     2.249
   131   1 H        0.925     0.050     2.326     2.385
   132   1 H        0.925     0.056     2.252     2.347
   133   1 H        0.925     0.070     2.091     2.261
   134   1 H        0.924     0.082     1.964     2.191
   135   1 H        0.924     0.073     2.049     2.239
   136   1 H        0.925     0.045     2.387     2.416
   137   1 H        0.925     0.053     2.278     2.360
   138   1 H        0.925     0.067     2.121     2.278
   139   1 H        0.926     0.043     2.411     2.428
   140   1 H        0.926     0.051     2.311     2.377
   141   1 H        0.925     0.072     2.063     2.246
   142   1 H        0.925     0.054     2.274     2.358
   143   1 H        0.925     0.071     2.076     2.253
   144   1 H        0.925     0.083     1.944     2.181
   145   1 H        0.924     0.058     2.225     2.333
   146   1 H        0.924     0.054     2.272     2.357
   147   1 H        0.926     0.055     2.259     2.351
   148   1 H        0.926     0.079     1.988     2.205
   149   1 H        0.925     0.082     1.962     2.190
   150   1 H        0.926     0.052     2.294     2.368
   151   1 H        0.925     0.035     2.518     2.482
   152   1 H        0.925     0.052     2.293     2.368
   153   1 H        0.925     0.036     2.507     2.476
   154   1 H        0.925     0.033     2.543     2.494
   155   1 H        0.924     0.026     2.637     2.540
   156   1 H        0.924     0.024     2.671     2.556
   157   1 H        0.926     0.027     2.631     2.537
   158   1 H        0.925     0.065     2.138     2.286
   159   1 H        0.925     0.067     2.123     2.278
   160   1 H        0.926     0.059     2.207     2.323
   161   1 H        0.924     0.078     1.995     2.209
   162   1 H        0.924     0.072     2.064     2.247
   163   1 H        0.925     0.068     2.112     2.273
   164   1 H        0.925     0.046     2.373     2.409
   165   1 H        0.925     0.056     2.246     2.344
   166   1 H        0.924     0.078     1.997     2.210
   167   1 H        0.924     0.067     2.120     2.277
   168   1 H        0.925     0.047     2.354     2.399
   169   1 H        0.925     0.058     2.226     2.333
   170   1 H        0.925     0.065     2.136     2.285
   171   1 H        0.926     0.049     2.330     2.387
   172   1 H        0.926     0.045     2.380     2.412
   173   1 H        0.925     0.071     2.078     2.254
   174   1 H        0.925     0.050     2.314     2.379
   175   1 H        0.925     0.065     2.146     2.291
   176   1 H        0.925     0.082     1.957     2.188
   177   1 H        0.924     0.054     2.268     2.355
   178   1 H        0.924     0.051     2.304     2.374
   179   1 H        0.926     0.048     2.344     2.394
   180   1 H        0.925     0.055     2.257     2.349
   181   1 H        0.926     0.054     2.271     2.357
   182   1 H        0.926     0.060     2.195     2.317

 Mol. C6AA /au·bohr⁶  :     666623.082308
 Mol. C8AA /au·bohr⁸  :   20322972.236241
 Mol. α(0) /au        :       1309.126474


Wiberg/Mayer (AO) data.
largest (>0.10) Wiberg bond orders for each atom

 ---------------------------------------------------------------------------
     #   Z sym  total        # sym  WBO       # sym  WBO       # sym  WBO
 ---------------------------------------------------------------------------
     1   6 C    3.892 --     5 C    1.443     2 S    1.243   117 H    0.965
                             3 C    0.105
     2  16 S    2.655 --     1 C    1.243     3 C    1.130
     3   6 C    3.938 --     4 C    1.325    13 C    1.243     2 S    1.130
                             1 C    0.105
     4   6 C    3.961 --     3 C    1.325    12 C    1.260     5 C    1.176
     5   6 C    3.986 --     1 C    1.443     6 C    1.211     4 C    1.176
     6   6 C    3.976 --     7 C    1.597     5 C    1.211   118 H    0.964
     7   6 C    3.985 --     6 C    1.597     9 C    1.175     8 C    1.032
     8   6 C    3.991 --     7 C    1.032   119 H    0.984   120 H    0.966
                           121 H    0.966
     9   6 C    3.906 --    12 C    1.499     7 C    1.175    10 O    1.071
    10   8 O    2.224 --     9 C    1.071    11 C    0.979
    11   6 C    3.937 --    10 O    0.979   123 H    0.976   122 H    0.976
                           124 H    0.974
    12   6 C    3.977 --     9 C    1.499     4 C    1.260   125 H    0.959
    13   6 C    3.958 --    14 C    1.608     3 C    1.243   126 H    0.950
    14   6 C    3.958 --    13 C    1.608    15 C    1.197   127 H    0.962
    15   6 C    3.923 --    16 C    1.507    14 C    1.197    41 S    1.079
    16   6 C    3.923 --    15 C    1.507    17 C    1.250   128 H    0.956
    17   6 C    3.965 --    18 C    1.257    16 C    1.250    40 C    1.237
    18   6 C    3.945 --    28 C    1.377    17 C    1.257    19 C    1.075
    19   6 C    3.949 --    26 C    1.517    20 S    1.122    18 C    1.075
    20  16 S    2.621 --    21 C    1.156    19 C    1.122
    21   6 C    3.937 --    24 C    1.542    20 S    1.156    22 C    1.026
    22   6 C    3.981 --    21 C    1.026    23 C    0.992   130 H    0.964
                           129 H    0.957
    23   6 C    3.987 --    22 C    0.992   131 H    0.988   132 H    0.984
                           133 H    0.982
    24   6 C    3.899 --    21 C    1.542    26 C    1.219    25 Cl   0.966
    25  17 Cl   1.108 --    24 C    0.966
    26   6 C    3.883 --    19 C    1.517    24 C    1.219    27 Cl   0.961
    27  17 Cl   1.105 --    26 C    0.961
    28   6 C    3.945 --    18 C    1.377    29 C    1.243    44 S    1.099
    29   6 C    3.964 --    30 C    1.264    42 C    1.244    28 C    1.243
    30   6 C    3.937 --    40 C    1.379    29 C    1.264    31 C    1.066
    31   6 C    3.950 --    37 C    1.522    32 S    1.127    30 C    1.066
    32  16 S    2.600 --    33 C    1.157    31 C    1.127
    33   6 C    3.939 --    36 C    1.544    32 S    1.157    34 C    1.026
    34   6 C    3.982 --    33 C    1.026    35 C    0.992   134 H    0.965
                           135 H    0.962
    35   6 C    3.989 --    34 C    0.992   136 H    0.988   137 H    0.987
                           138 H    0.982
    36   6 C    3.898 --    33 C    1.544    37 C    1.216    39 Cl   0.966
    37   6 C    3.887 --    31 C    1.522    36 C    1.216    38 Cl   0.964
    38  17 Cl   1.114 --    37 C    0.964
    39  17 Cl   1.108 --    36 C    0.966
    40   6 C    3.941 --    30 C    1.379    17 C    1.237    41 S    1.101
    41  16 S    2.468 --    40 C    1.101    15 C    1.079
    42   6 C    3.945 --    43 C    1.506    29 C    1.244   139 H    0.956
    43   6 C    3.929 --    42 C    1.506    45 C    1.204    44 S    1.066
    44  16 S    2.505 --    28 C    1.099    43 C    1.066
    45   6 C    3.924 --    49 C    1.337    43 C    1.204    46 S    1.122
                            47 C    0.106
    46  16 S    2.650 --    47 C    1.182    45 C    1.122
    47   6 C    3.903 --    48 C    1.383    46 S    1.182    57 C    1.057
                            45 C    0.106
    48   6 C    3.983 --    47 C    1.383    56 C    1.230    49 C    1.179
    49   6 C    3.971 --    45 C    1.337    50 C    1.244    48 C    1.179
    50   6 C    3.983 --    51 C    1.568    49 C    1.244   140 H    0.952
    51   6 C    3.965 --    50 C    1.568    53 C    1.179    52 C    1.035
    52   6 C    3.990 --    51 C    1.035   142 H    0.984   141 H    0.964
                           143 H    0.964
    53   6 C    3.933 --    56 C    1.510    51 C    1.179    54 O    1.074
    54   8 O    2.232 --    53 C    1.074    55 C    0.975
    55   6 C    3.930 --   144 H    0.976    54 O    0.975   146 H    0.975
                           145 H    0.974
    56   6 C    3.971 --    53 C    1.510    48 C    1.230   147 H    0.960
    57   6 C    3.976 --    58 C    1.849    47 C    1.057   148 H    0.950
    58   6 C    3.974 --    57 C    1.849    59 C    1.057   149 H    0.948
    59   6 C    3.928 --    63 C    1.392    60 S    1.200    58 C    1.057
                            61 C    0.111
    60  16 S    2.671 --    59 C    1.200    61 C    1.137
    61   6 C    3.935 --    62 C    1.354    71 C    1.185    60 S    1.137
                            59 C    0.111
    62   6 C    3.982 --    61 C    1.354    70 C    1.239    63 C    1.180
    63   6 C    3.985 --    59 C    1.392    64 C    1.219    62 C    1.180
    64   6 C    3.981 --    65 C    1.583    63 C    1.219   150 H    0.962
    65   6 C    3.980 --    64 C    1.583    67 C    1.183    66 C    1.028
    66   6 C    3.995 --    65 C    1.028   152 H    0.984   153 H    0.969
                           151 H    0.967
    67   6 C    3.914 --    70 C    1.507    65 C    1.183    68 O    1.043
    68   8 O    2.202 --    67 C    1.043    69 C    0.985
    69   6 C    3.951 --    68 O    0.985   154 H    0.981   155 H    0.973
                           156 H    0.968
    70   6 C    3.979 --    67 C    1.507    62 C    1.239   157 H    0.958
    71   6 C    3.953 --    72 C    1.659    61 C    1.185   158 H    0.956
    72   6 C    3.968 --    71 C    1.659    73 C    1.172   159 H    0.957
    73   6 C    3.922 --    74 C    1.528    72 C    1.172    99 S    1.074
    74   6 C    3.973 --    73 C    1.528    75 C    1.241   160 H    0.948
    75   6 C    3.965 --    76 C    1.262    74 C    1.241    98 C    1.238
    76   6 C    3.955 --    86 C    1.377    75 C    1.262    77 C    1.073
    77   6 C    3.949 --    84 C    1.512    78 S    1.129    76 C    1.073
    78  16 S    2.612 --    79 C    1.158    77 C    1.129
    79   6 C    3.938 --    82 C    1.540    78 S    1.158    80 C    1.025
    80   6 C    3.983 --    79 C    1.025    81 C    0.992   161 H    0.965
                           162 H    0.962
    81   6 C    3.988 --    80 C    0.992   164 H    0.988   165 H    0.986
                           163 H    0.982
    82   6 C    3.900 --    79 C    1.540    84 C    1.220    83 Cl   0.968
    83  17 Cl   1.112 --    82 C    0.968
    84   6 C    3.882 --    77 C    1.512    82 C    1.220    85 Cl   0.961
    85  17 Cl   1.115 --    84 C    0.961
    86   6 C    3.941 --    76 C    1.377    87 C    1.239   102 S    1.097
    87   6 C    3.968 --    88 C    1.266   100 C    1.248    86 C    1.239
    88   6 C    3.943 --    98 C    1.380    87 C    1.266    89 C    1.061
    89   6 C    3.950 --    95 C    1.522    90 S    1.133    88 C    1.061
    90  16 S    2.608 --    91 C    1.158    89 C    1.133
    91   6 C    3.940 --    94 C    1.543    90 S    1.158    92 C    1.026
    92   6 C    3.984 --    91 C    1.026    93 C    0.991   166 H    0.965
                           167 H    0.963
    93   6 C    3.988 --    92 C    0.991   168 H    0.988   169 H    0.986
                           170 H    0.982
    94   6 C    3.896 --    91 C    1.543    95 C    1.220    97 Cl   0.961
    95   6 C    3.884 --    89 C    1.522    94 C    1.220    96 Cl   0.958
    96  17 Cl   1.106 --    95 C    0.958
    97  17 Cl   1.106 --    94 C    0.961
    98   6 C    3.950 --    88 C    1.380    75 C    1.238    99 S    1.105
    99  16 S    2.487 --    98 C    1.105    73 C    1.074
   100   6 C    3.938 --   101 C    1.502    87 C    1.248   171 H    0.955
   101   6 C    3.930 --   100 C    1.502   103 C    1.202   102 S    1.077
   102  16 S    2.505 --    86 C    1.097   101 C    1.077
   103   6 C    3.938 --   107 C    1.332   101 C    1.202   104 S    1.139
   104  16 S    2.633 --   105 C    1.159   103 C    1.139
   105   6 C    3.914 --   106 C    1.343   115 C    1.168   104 S    1.159
   106   6 C    3.986 --   105 C    1.343   114 C    1.245   107 C    1.190
   107   6 C    3.971 --   103 C    1.332   108 C    1.245   106 C    1.190
   108   6 C    3.983 --   109 C    1.570   107 C    1.245   172 H    0.951
   109   6 C    3.966 --   108 C    1.570   111 C    1.184   110 C    1.033
   110   6 C    3.991 --   109 C    1.033   174 H    0.985   175 H    0.966
                           173 H    0.965
   111   6 C    3.918 --   114 C    1.507   109 C    1.184   112 O    1.068
   112   8 O    2.223 --   111 C    1.068   113 C    0.976
   113   6 C    3.932 --   176 H    0.977   112 O    0.976   178 H    0.975
                           177 H    0.975
   114   6 C    3.973 --   111 C    1.507   106 C    1.245   179 H    0.959
   115   6 C    3.989 --   116 C    1.825   105 C    1.168   180 H    0.953
   116   6 C    3.923 --   115 C    1.825   182 H    0.976   181 H    0.971
   117   1 H    0.994 --     1 C    0.965
   118   1 H    0.995 --     6 C    0.964
   119   1 H    0.996 --     8 C    0.984
   120   1 H    0.992 --     8 C    0.966
   121   1 H    0.992 --     8 C    0.966
   122   1 H    0.997 --    11 C    0.976
   123   1 H    0.993 --    11 C    0.976
   124   1 H    0.997 --    11 C    0.974
   125   1 H    0.999 --    12 C    0.959
   126   1 H    0.999 --    13 C    0.950
   127   1 H    0.998 --    14 C    0.962
   128   1 H    0.999 --    16 C    0.956
   129   1 H    0.993 --    22 C    0.957
   130   1 H    0.994 --    22 C    0.964
   131   1 H    0.997 --    23 C    0.988
   132   1 H    0.997 --    23 C    0.984
   133   1 H    0.994 --    23 C    0.982
   134   1 H    0.993 --    34 C    0.965
   135   1 H    0.994 --    34 C    0.962
   136   1 H    0.998 --    35 C    0.988
   137   1 H    0.997 --    35 C    0.987
   138   1 H    0.995 --    35 C    0.982
   139   1 H    0.997 --    42 C    0.956
   140   1 H    0.996 --    50 C    0.952
   141   1 H    0.990 --    52 C    0.964
   142   1 H    0.997 --    52 C    0.984
   143   1 H    0.990 --    52 C    0.964
   144   1 H    0.993 --    55 C    0.976
   145   1 H    0.996 --    55 C    0.974
   146   1 H    0.996 --    55 C    0.975
   147   1 H    0.996 --    56 C    0.960
   148   1 H    0.988 --    57 C    0.950
   149   1 H    0.988 --    58 C    0.948
   150   1 H    0.996 --    64 C    0.962
   151   1 H    0.995 --    66 C    0.967
   152   1 H    0.997 --    66 C    0.984
   153   1 H    0.996 --    66 C    0.969
   154   1 H    0.998 --    69 C    0.981
   155   1 H    0.999 --    69 C    0.973
   156   1 H    0.999 --    69 C    0.968
   157   1 H    0.998 --    70 C    0.958
   158   1 H    0.993 --    71 C    0.956
   159   1 H    0.993 --    72 C    0.957
   160   1 H    0.996 --    74 C    0.948
   161   1 H    0.993 --    80 C    0.965
   162   1 H    0.994 --    80 C    0.962
   163   1 H    0.994 --    81 C    0.982
   164   1 H    0.998 --    81 C    0.988
   165   1 H    0.997 --    81 C    0.986
   166   1 H    0.993 --    92 C    0.965
   167   1 H    0.995 --    92 C    0.963
   168   1 H    0.998 --    93 C    0.988
   169   1 H    0.997 --    93 C    0.986
   170   1 H    0.995 --    93 C    0.982
   171   1 H    0.997 --   100 C    0.955
   172   1 H    0.997 --   108 C    0.951
   173   1 H    0.991 --   110 C    0.965
   174   1 H    0.997 --   110 C    0.985
   175   1 H    0.992 --   110 C    0.966
   176   1 H    0.993 --   113 C    0.977
   177   1 H    0.996 --   113 C    0.975
   178   1 H    0.997 --   113 C    0.975
   179   1 H    0.997 --   114 C    0.959
   180   1 H    0.997 --   115 C    0.953
   181   1 H    0.997 --   116 C    0.971
   182   1 H    0.996 --   116 C    0.976
 ---------------------------------------------------------------------------

Topologies differ in bond orders
Writing corrected topology to xtbtopo.mol

molecular dipole:
                 x           y           z       tot (Debye)
 q only:       -2.928      -1.188      -5.785
   full:       -1.793      -0.257      -3.453       9.911
molecular quadrupole (traceless):
                xx          xy          yy          xz          yz          zz
 q only:      -11.103     102.948      57.983      12.098      37.382     -46.880
  q+dip:        7.237      70.054      58.204       5.452      45.655     -65.441
   full:        1.301      67.710      59.922      10.281      38.818     -61.223


           -------------------------------------------------
          | TOTAL ENERGY             -322.453707708323 Eh   |
          | GRADIENT NORM               0.030331292181 Eh/α |
          | HOMO-LUMO GAP               1.109224982297 eV   |
           -------------------------------------------------

------------------------------------------------------------------------
 * finished run on 2022/03/03 at 13:51:56.508     
------------------------------------------------------------------------
 total:
 * wall-time:     0 d,  0 h,  0 min,  2.453 sec
 *  cpu-time:     0 d,  0 h,  0 min, 15.826 sec
 * ratio c/w:     6.451 speedup
 SCF:
 * wall-time:     0 d,  0 h,  0 min,  2.024 sec
 *  cpu-time:     0 d,  0 h,  0 min, 14.139 sec
 * ratio c/w:     6.987 speedup

