      -----------------------------------------------------------      
     |                   =====================                   |     
     |                           x T B                           |     
     |                   =====================                   |     
     |                         S. Grimme                         |     
     |          Mulliken Center for Theoretical Chemistry        |     
     |                    University of Bonn                     |     
      -----------------------------------------------------------      

   * xtb version 6.4.1 (unknown) compiled by 'oda6@login1.crc.pitt.edu' on 2021-06-25

   xtb is free software: you can redistribute it and/or modify it under
   the terms of the GNU Lesser General Public License as published by
   the Free Software Foundation, either version 3 of the License, or
   (at your option) any later version.
   
   xtb is distributed in the hope that it will be useful,
   but WITHOUT ANY WARRANTY; without even the implied warranty of
   MERCHANTABILITY or FITNESS FOR A PARTICULAR PURPOSE.  See the
   GNU Lesser General Public License for more details.
   
   Cite this work as:
   * C. Bannwarth, E. Caldeweyher, S. Ehlert, A. Hansen, P. Pracht,
     J. Seibert, S. Spicher, S. Grimme, WIREs Comput. Mol. Sci., 2020, 11,
     e01493. DOI: 10.1002/wcms.1493
   
   for GFN2-xTB:
   * C. Bannwarth, S. Ehlert and S. Grimme., J. Chem. Theory Comput., 2019,
     15, 1652-1671. DOI: 10.1021/acs.jctc.8b01176
   for GFN1-xTB:
   * S. Grimme, C. Bannwarth, P. Shushkov, J. Chem. Theory Comput., 2017,
     13, 1989-2009. DOI: 10.1021/acs.jctc.7b00118
   for GFN0-xTB:
   * P. Pracht, E. Caldeweyher, S. Ehlert, S. Grimme, ChemRxiv, 2019, preprint.
     DOI: 10.26434/chemrxiv.8326202.v1
   for GFN-FF:
   * S. Spicher and S. Grimme, Angew. Chem. Int. Ed., 2020, 59, 15665-15673.
     DOI: 10.1002/anie.202004239
   
   for DFT-D4:
   * E. Caldeweyher, C. Bannwarth and S. Grimme, J. Chem. Phys., 2017,
     147, 034112. DOI: 10.1063/1.4993215
   * E. Caldeweyher, S. Ehlert, A. Hansen, H. Neugebauer, S. Spicher,
     C. Bannwarth and S. Grimme, J. Chem. Phys., 2019, 150, 154122.
     DOI: 10.1063/1.5090222
   * E. Caldeweyher, J.-M. Mewes, S. Ehlert and S. Grimme, Phys. Chem. Chem. Phys.
     2020, 22, 8499-8512. DOI: 10.1039/D0CP00502A
   
   for sTDA-xTB:
   * S. Grimme and C. Bannwarth, J. Chem. Phys., 2016, 145, 054103.
     DOI: 10.1063/1.4959605
   
   in the mass-spec context:
   * V. Asgeirsson, C. Bauer and S. Grimme, Chem. Sci., 2017, 8, 4879.
     DOI: 10.1039/c7sc00601b
   * J. Koopman and S. Grimme, ACS Omega 2019, 4, 12, 15120-15133.
     DOI: 10.1021/acsomega.9b02011
   
   for metadynamics refer to:
   * S. Grimme, J. Chem. Theory Comput., 2019, 155, 2847-2862
     DOI: 10.1021/acs.jctc.9b00143
   
   for SPH calculations refer to:
   * S. Spicher and S. Grimme, J. Chem. Theory Comput., 2021, 17, 1701-1714
     DOI: 10.1021/acs.jctc.0c01306
   
   with help from (in alphabetical order)
   P. Atkinson, C. Bannwarth, F. Bohle, G. Brandenburg, E. Caldeweyher
   M. Checinski, S. Dohm, S. Ehlert, S. Ehrlich, I. Gerasimov, J. Koopman
   C. Lavigne, S. Lehtola, F. März, M. Müller, F. Musil, H. Neugebauer
   J. Pisarek, C. Plett, P. Pracht, J. Seibert, P. Shushkov, S. Spicher
   M. Stahn, M. Steiner, T. Strunk, J. Stückrath, T. Rose, and J. Unsleber
   
 * started run on 2022/03/01 at 04:47:13.731     

           -------------------------------------------------
          |                Calculation Setup                |
           -------------------------------------------------

          program call               : /ihome/ghutchison/oda6/xtb/xtb-641/bin/xtb ../../GFN2_output/793_61_100110.mol --sp --alpb water
          hostname                   : smp-n90
          coordinate file            : ../../GFN2_output/793_61_100110.mol
          omp threads                :                     8
          number of atoms            :                   206
          number of electrons        :                   698
          charge                     :                     0
          spin                       :                   0.0
          first test random number   :      0.01605357200119

   ID    Z sym.   atoms
    1    6 C      1-5, 7-10, 12, 14-17, 19-23, 26, 28, 29, 31, 33-37, 39, 41,
                  42, 44-47, 49-53, 55, 57, 58, 60-67, 69-72, 74, 76-79,
                  81-85, 88, 90, 91, 93-97, 99-102, 104, 106-109, 111-115,
                  118, 120, 121, 123, 125-129, 131, 133, 134, 136-138
    2   16 S      6, 18, 27, 30, 32, 43, 48, 59, 68, 80, 89, 92, 98, 110,
                  119, 122, 124, 135
    3   17 Cl     11, 13, 24, 25, 73, 75, 86, 87, 103, 105, 116, 117
    4    7 N      38, 40, 54, 56, 130, 132
    5    1 H      139-206

           -------------------------------------------------
          |                 G F N 2 - x T B                 |
           -------------------------------------------------

        Reference                      10.1021/acs.jctc.8b01176
      * Hamiltonian:
        H0-scaling (s, p, d)           1.850000    2.230000    2.230000
        zeta-weighting                 0.500000
      * Dispersion:
        s8                             2.700000
        a1                             0.520000
        a2                             5.000000
        s9                             5.000000
      * Repulsion:
        kExp                           1.500000    1.000000
        rExp                           1.000000
      * Coulomb:
        alpha                          2.000000
        third order                    shell-resolved
        anisotropic                    true
        a3                             3.000000
        a5                             4.000000
        cn-shift                       1.200000
        cn-exp                         4.000000
        max-rad                        5.000000

      * Solvation model:               ALPB
        Solvent                        water
        Parameter file                 internal GFN2-xTB/ALPB
        Dielectric constant                8.0200E+01
        Reference state                gsolv [1 M gas/solution]
        Free energy shift                  1.0808E-03 Eh       6.7819E-01 kcal/mol
        Temperature                        2.9815E+02 K
        Density                            1.0000E+00 kg/L
        Solvent mass                       1.8000E+01 g/mol
        Interaction kernel             P16
        Born radius scaling (c1)           1.4744E+00
        Born radii integrator          GBOBC
        Born offset                        0.0000E+00 a0       0.0000E+00 AA
        H-bond correction              true
        Ion screening                  false
        Surface tension                    1.0000E-05 Eh       1.5569E+01 dyn/cm
        Grid points                               230 per atom

          ...................................................
          :                      SETUP                      :
          :.................................................:
          :  # basis functions                 800          :
          :  # atomic orbitals                 770          :
          :  # shells                          374          :
          :  # electrons                       698          :
          :  max. iterations                   250          :
          :  Hamiltonian                  GFN2-xTB          :
          :  restarted?                      false          :
          :  GBSA solvation                   true          :
          :  PC potential                    false          :
          :  electronic temp.          300.0000000     K    :
          :  accuracy                    1.0000000          :
          :  -> integral cutoff          0.2500000E+02      :
          :  -> integral neglect         0.1000000E-07      :
          :  -> SCF convergence          0.1000000E-05 Eh   :
          :  -> wf. convergence          0.1000000E-03 e    :
          :  Broyden damping             0.4000000          :
          ...................................................

 iter      E             dE          RMSdq      gap      omega  full diag
   1   -388.4510418 -0.388451E+03  0.418E+00    1.05       0.0  T
   2   -388.6069675 -0.155926E+00  0.233E+00    0.93       1.0  T
   3   -388.4362496  0.170718E+00  0.125E+00    1.08       1.0  T
   4   -388.6585512 -0.222302E+00  0.388E-01    0.98       1.0  T
   5   -388.6679240 -0.937277E-02  0.165E-01    0.99       1.0  T
   6   -388.6692247 -0.130075E-02  0.947E-02    0.99       1.0  T
   7   -388.6698789 -0.654126E-03  0.597E-02    0.99       1.0  T
   8   -388.6700462 -0.167340E-03  0.456E-02    0.99       1.0  T
   9   -388.6701727 -0.126493E-03  0.307E-02    0.99       1.0  T
  10   -388.6702653 -0.926414E-04  0.164E-02    0.99       1.0  T
  11   -388.6702834 -0.180227E-04  0.942E-03    0.99       1.0  T
  12   -388.6702893 -0.595395E-05  0.439E-03    0.99       1.6  T
  13   -388.6702905 -0.114270E-05  0.271E-03    0.99       2.6  T
  14   -388.6702909 -0.388583E-06  0.185E-03    0.99       3.8  T
  15   -388.6702910 -0.186292E-06  0.129E-03    0.99       5.4  T
  16   -388.6702912 -0.127956E-06  0.878E-04    0.99       7.9  T
  17   -388.6702912 -0.624306E-07  0.604E-04    0.99      11.5  T

   *** convergence criteria satisfied after 17 iterations ***

         #    Occupation            Energy/Eh            Energy/eV
      -------------------------------------------------------------
         1        2.0000           -1.0802061             -29.3939
       ...           ...                  ...                  ...
       343        2.0000           -0.3679984             -10.0137
       344        2.0000           -0.3678584             -10.0099
       345        2.0000           -0.3671593              -9.9909
       346        2.0000           -0.3664453              -9.9715
       347        2.0000           -0.3618824              -9.8473
       348        2.0000           -0.3534166              -9.6170
       349        2.0000           -0.3436904              -9.3523 (HOMO)
       350                         -0.3071805              -8.3588 (LUMO)
       351                         -0.2994725              -8.1491
       352                         -0.2932013              -7.9784
       353                         -0.2883575              -7.8466
       354                         -0.2820966              -7.6762
       ...                                ...                  ...
       770                          0.7333796              19.9563
      -------------------------------------------------------------
                  HL-Gap            0.0365099 Eh            0.9935 eV
             Fermi-level           -0.3254356 Eh           -8.8556 eV

 SCC (total)                   0 d,  0 h,  0 min,  1.191 sec
 SCC setup                      ...        0 min,  0.009 sec (  0.743%)
 Dispersion                     ...        0 min,  0.011 sec (  0.935%)
 classical contributions        ...        0 min,  0.000 sec (  0.033%)
 integral evaluation            ...        0 min,  0.053 sec (  4.484%)
 iterations                     ...        0 min,  0.941 sec ( 78.988%)
 molecular gradient             ...        0 min,  0.170 sec ( 14.312%)
 printout                       ...        0 min,  0.006 sec (  0.497%)

         :::::::::::::::::::::::::::::::::::::::::::::::::::::
         ::                     SUMMARY                     ::
         :::::::::::::::::::::::::::::::::::::::::::::::::::::
         :: total energy            -383.783730522319 Eh    ::
         :: total w/o Gsasa/hb      -383.774762266113 Eh    ::
         :: gradient norm              0.023949610992 Eh/a0 ::
         :: HOMO-LUMO gap              0.993484520720 eV    ::
         ::.................................................::
         :: SCC energy              -388.670291226713 Eh    ::
         :: -> isotropic ES            0.153917375788 Eh    ::
         :: -> anisotropic ES         -0.017380125148 Eh    ::
         :: -> anisotropic XC          0.138061602063 Eh    ::
         :: -> dispersion             -0.392828853019 Eh    ::
         :: -> Gsolv                  -0.046322110678 Eh    ::
         ::    -> Gelec               -0.037353854472 Eh    ::
         ::    -> Gsasa                0.003742081651 Eh    ::
         ::    -> Ghb                 -0.013791097556 Eh    ::
         ::    -> Gshift               0.001080759698 Eh    ::
         :: repulsion energy           4.878659037571 Eh    ::
         :: add. restraining           0.000000000000 Eh    ::
         :: total charge              -0.000000000002 e     ::
         :::::::::::::::::::::::::::::::::::::::::::::::::::::

           -------------------------------------------------
          |                Property Printout                |
           -------------------------------------------------

    * Orbital Energies and Occupations

         #    Occupation            Energy/Eh            Energy/eV
      -------------------------------------------------------------
         1        2.0000           -1.0802061             -29.3939
       ...           ...                  ...                  ...
       337        2.0000           -0.3820835             -10.3970
       338        2.0000           -0.3739427             -10.1755
       339        2.0000           -0.3719457             -10.1212
       340        2.0000           -0.3696618             -10.0590
       341        2.0000           -0.3686273             -10.0309
       342        2.0000           -0.3684109             -10.0250
       343        2.0000           -0.3679984             -10.0137
       344        2.0000           -0.3678584             -10.0099
       345        2.0000           -0.3671593              -9.9909
       346        2.0000           -0.3664453              -9.9715
       347        2.0000           -0.3618824              -9.8473
       348        2.0000           -0.3534166              -9.6170
       349        2.0000           -0.3436904              -9.3523 (HOMO)
       350                         -0.3071805              -8.3588 (LUMO)
       351                         -0.2994725              -8.1491
       352                         -0.2932013              -7.9784
       353                         -0.2883575              -7.8466
       354                         -0.2820966              -7.6762
       355                         -0.2812878              -7.6542
       356                         -0.2708895              -7.3713
       357                         -0.2672840              -7.2732
       358                         -0.2637379              -7.1767
       359                         -0.2614601              -7.1147
       360                         -0.2598372              -7.0705
       ...                                ...                  ...
       770                          0.7333796              19.9563
      -------------------------------------------------------------
                  HL-Gap            0.0365099 Eh            0.9935 eV
             Fermi-level           -0.3254356 Eh           -8.8556 eV

     #   Z          covCN         q      C6AA      α(0)
     1   6 C        2.936    -0.013    28.348     8.732
     2   6 C        3.071    -0.048    29.124     8.849
     3   6 C        3.150    -0.004    27.839     8.630
     4   6 C        3.013    -0.002    28.052     8.688
     5   6 C        3.016     0.003    27.944     8.671
     6  16 S        2.384     0.036   139.588    19.885
     7   6 C        3.009     0.017    27.619     8.621
     8   6 C        3.824    -0.064    21.711     6.630
     9   6 C        3.754    -0.118    22.810     6.810
    10   6 C        3.108     0.062    26.467     8.429
    11  17 Cl       0.947    -0.179   104.772    15.660
    12   6 C        3.100     0.067    26.373     8.416
    13  17 Cl       0.945    -0.178   104.741    15.657
    14   6 C        3.007     0.024    27.450     8.594
    15   6 C        3.136     0.000    27.800     8.630
    16   6 C        3.015    -0.005    28.118     8.698
    17   6 C        3.015     0.000    27.998     8.680
    18  16 S        2.386     0.030   139.839    19.903
    19   6 C        3.007     0.019    27.560     8.612
    20   6 C        3.825    -0.073    21.874     6.655
    21   6 C        3.754    -0.118    22.810     6.810
    22   6 C        3.112     0.061    26.482     8.430
    23   6 C        3.101     0.067    26.377     8.416
    24  17 Cl       0.957    -0.181   104.822    15.663
    25  17 Cl       0.949    -0.184   104.930    15.671
    26   6 C        3.006     0.024    27.457     8.595
    27  16 S        2.264    -0.067   143.825    20.185
    28   6 C        3.062    -0.063    29.496     8.906
    29   6 C        3.014     0.034    27.226     8.559
    30  16 S        2.290    -0.055   143.352    20.151
    31   6 C        3.033     0.013    27.687     8.631
    32  16 S        2.241    -0.033   142.402    20.084
    33   6 C        3.062    -0.050    29.185     8.859
    34   6 C        3.224    -0.021    27.751     8.561
    35   6 C        3.020    -0.002    28.045     8.687
    36   6 C        2.943     0.003    27.953     8.671
    37   6 C        3.737     0.005    20.577     6.473
    38   7 N        2.629    -0.363    29.358     8.047
    39   6 C        3.735     0.018    20.351     6.438
    40   7 N        2.630    -0.375    29.690     8.092
    41   6 C        3.092     0.016    27.539     8.601
    42   6 C        3.090     0.011    27.662     8.621
    43  16 S        2.246    -0.038   142.641    20.101
    44   6 C        3.230    -0.012    27.490     8.513
    45   6 C        3.061    -0.048    29.140     8.852
    46   6 C        3.037     0.018    27.568     8.612
    47   6 C        3.027     0.021    27.500     8.602
    48  16 S        2.256    -0.049   143.083    20.132
    49   6 C        3.058    -0.047    29.095     8.846
    50   6 C        3.226    -0.009    27.464     8.515
    51   6 C        3.023    -0.000    28.004     8.680
    52   6 C        2.942     0.003    27.963     8.673
    53   6 C        3.736     0.016    20.385     6.443
    54   7 N        2.630    -0.375    29.688     8.092
    55   6 C        3.737     0.007    20.547     6.468
    56   7 N        2.628    -0.367    29.480     8.064
    57   6 C        3.095     0.011    27.667     8.621
    58   6 C        3.096     0.019    27.472     8.590
    59  16 S        2.327    -0.054   143.280    20.146
    60   6 C        3.220    -0.021    27.795     8.572
    61   6 C        3.059    -0.050    29.188     8.860
    62   6 C        3.032     0.010    27.756     8.642
    63   6 C        3.028     0.032    27.267     8.565
    64   6 C        3.068    -0.058    29.379     8.888
    65   6 C        3.138    -0.000    27.808     8.631
    66   6 C        3.011    -0.003    28.089     8.694
    67   6 C        3.010    -0.001    28.036     8.686
    68  16 S        2.483     0.045   139.209    19.858
    69   6 C        3.007     0.019    27.573     8.614
    70   6 C        3.824    -0.066    21.751     6.637
    71   6 C        3.754    -0.123    22.919     6.827
    72   6 C        3.106     0.061    26.501     8.435
    73  17 Cl       0.948    -0.182   104.865    15.667
    74   6 C        3.099     0.067    26.371     8.415
    75  17 Cl       0.946    -0.187   105.037    15.679
    76   6 C        3.005     0.022    27.489     8.600
    77   6 C        3.139    -0.002    27.841     8.635
    78   6 C        3.018    -0.004    28.112     8.697
    79   6 C        3.015     0.003    27.926     8.668
    80  16 S        2.386     0.024   140.066    19.919
    81   6 C        3.007     0.017    27.626     8.622
    82   6 C        3.826    -0.058    21.590     6.612
    83   6 C        3.754    -0.110    22.671     6.789
    84   6 C        3.111     0.062    26.473     8.429
    85   6 C        3.103     0.068    26.361     8.413
    86  17 Cl       0.953    -0.180   104.794    15.661
    87  17 Cl       0.948    -0.179   104.780    15.660
    88   6 C        3.010     0.027    27.374     8.582
    89  16 S        2.364    -0.102   145.302    20.288
    90   6 C        3.070    -0.055    29.300     8.876
    91   6 C        3.025     0.032    27.254     8.563
    92  16 S        2.390    -0.041   142.734    20.108
    93   6 C        3.022     0.034    27.214     8.557
    94   6 C        3.069    -0.055    29.298     8.875
    95   6 C        3.135     0.000    27.802     8.631
    96   6 C        3.012    -0.001    28.029     8.684
    97   6 C        3.013     0.002    27.970     8.675
    98  16 S        2.379     0.036   139.579    19.884
    99   6 C        3.008     0.018    27.597     8.617
   100   6 C        3.824    -0.065    21.731     6.634
   101   6 C        3.754    -0.118    22.809     6.810
   102   6 C        3.111     0.063    26.455     8.426
   103  17 Cl       0.949    -0.180   104.815    15.663
   104   6 C        3.101     0.068    26.358     8.413
   105  17 Cl       0.958    -0.176   104.668    15.652
   106   6 C        3.005     0.026    27.402     8.587
   107   6 C        3.140     0.001    27.775     8.625
   108   6 C        3.015    -0.003    28.083     8.693
   109   6 C        3.012     0.005    27.901     8.665
   110  16 S        2.379     0.019   140.265    19.933
   111   6 C        3.009     0.016    27.630     8.622
   112   6 C        3.823    -0.064    21.704     6.630
   113   6 C        3.754    -0.115    22.765     6.803
   114   6 C        3.114     0.062    26.464     8.427
   115   6 C        3.098     0.068    26.366     8.415
   116  17 Cl       0.964    -0.167   104.391    15.631
   117  17 Cl       0.951    -0.167   104.381    15.630
   118   6 C        3.007     0.029    27.343     8.578
   119  16 S        2.300    -0.068   143.859    20.187
   120   6 C        3.065    -0.061    29.444     8.898
   121   6 C        3.014     0.034    27.228     8.559
   122  16 S        2.298    -0.066   143.808    20.183
   123   6 C        3.036     0.014    27.668     8.628
   124  16 S        2.248    -0.041   142.758    20.110
   125   6 C        3.062    -0.046    29.067     8.841
   126   6 C        3.234    -0.017    27.556     8.519
   127   6 C        3.022    -0.001    28.029     8.684
   128   6 C        2.944     0.005    27.922     8.667
   129   6 C        3.736     0.017    20.364     6.440
   130   7 N        2.630    -0.379    29.803     8.108
   131   6 C        3.737     0.003    20.610     6.478
   132   7 N        2.629    -0.355    29.150     8.019
   133   6 C        3.090     0.015    27.584     8.609
   134   6 C        3.098     0.012    27.635     8.615
   135  16 S        2.232    -0.043   142.836    20.115
   136   6 C        3.236    -0.023    27.679     8.535
   137   6 C        3.074    -0.047    29.092     8.843
   138   6 C        2.949    -0.022    28.556     8.765
   139   1 H        0.926     0.064     2.158     2.297
   140   1 H        0.926     0.050     2.317     2.380
   141   1 H        0.924     0.078     2.004     2.214
   142   1 H        0.924     0.068     2.106     2.270
   143   1 H        0.925     0.047     2.358     2.401
   144   1 H        0.925     0.059     2.208     2.324
   145   1 H        0.925     0.063     2.168     2.303
   146   1 H        0.924     0.099     1.795     2.095
   147   1 H        0.924     0.068     2.110     2.272
   148   1 H        0.925     0.063     2.169     2.303
   149   1 H        0.925     0.045     2.387     2.416
   150   1 H        0.925     0.056     2.244     2.342
   151   1 H        0.926     0.057     2.235     2.338
   152   1 H        0.926     0.067     2.123     2.279
   153   1 H        0.924     0.060     2.203     2.321
   154   1 H        0.924     0.052     2.301     2.372
   155   1 H        0.860     0.161     1.329     1.806
   156   1 H        0.860     0.163     1.314     1.796
   157   1 H        0.924     0.055     2.257     2.349
   158   1 H        0.923     0.018     2.758     2.597
   159   1 H        0.860     0.156     1.362     1.828
   160   1 H        0.860     0.166     1.295     1.782
   161   1 H        0.926     0.068     2.108     2.271
   162   1 H        0.926     0.071     2.073     2.252
   163   1 H        0.923     0.021     2.712     2.575
   164   1 H        0.924     0.063     2.169     2.303
   165   1 H        0.860     0.153     1.379     1.839
   166   1 H        0.860     0.171     1.269     1.764
   167   1 H        0.924     0.056     2.251     2.346
   168   1 H        0.924     0.054     2.268     2.355
   169   1 H        0.860     0.157     1.354     1.823
   170   1 H        0.860     0.163     1.315     1.796
   171   1 H        0.926     0.057     2.233     2.337
   172   1 H        0.926     0.050     2.322     2.383
   173   1 H        0.924     0.070     2.082     2.256
   174   1 H        0.924     0.085     1.928     2.172
   175   1 H        0.925     0.053     2.284     2.364
   176   1 H        0.925     0.065     2.139     2.287
   177   1 H        0.925     0.065     2.138     2.287
   178   1 H        0.924     0.072     2.069     2.249
   179   1 H        0.924     0.067     2.121     2.278
   180   1 H        0.925     0.049     2.334     2.389
   181   1 H        0.925     0.060     2.196     2.317
   182   1 H        0.925     0.053     2.287     2.365
   183   1 H        0.926     0.067     2.120     2.277
   184   1 H        0.926     0.078     2.003     2.213
   185   1 H        0.924     0.082     1.962     2.190
   186   1 H        0.924     0.070     2.084     2.258
   187   1 H        0.925     0.063     2.162     2.299
   188   1 H        0.925     0.046     2.371     2.408
   189   1 H        0.925     0.058     2.217     2.328
   190   1 H        0.924     0.074     2.041     2.234
   191   1 H        0.924     0.071     2.074     2.252
   192   1 H        0.925     0.061     2.192     2.315
   193   1 H        0.925     0.052     2.293     2.368
   194   1 H        0.925     0.048     2.346     2.395
   195   1 H        0.926     0.054     2.271     2.356
   196   1 H        0.926     0.075     2.035     2.231
   197   1 H        0.924     0.055     2.262     2.352
   198   1 H        0.923     0.020     2.730     2.584
   199   1 H        0.860     0.159     1.344     1.816
   200   1 H        0.860     0.167     1.293     1.781
   201   1 H        0.925     0.055     2.257     2.349
   202   1 H        0.924     0.054     2.276     2.359
   203   1 H        0.860     0.167     1.290     1.779
   204   1 H        0.860     0.161     1.331     1.807
   205   1 H        0.926     0.054     2.265     2.353
   206   1 H        0.927     0.032     2.564     2.504

 Mol. C6AA /au·bohr⁶  :     984513.626837
 Mol. C8AA /au·bohr⁸  :   31467010.334762
 Mol. α(0) /au        :       1593.816726


Wiberg/Mayer (AO) data.
largest (>0.10) Wiberg bond orders for each atom

 ---------------------------------------------------------------------------
     #   Z sym  total        # sym  WBO       # sym  WBO       # sym  WBO
 ---------------------------------------------------------------------------
     1   6 C    3.927 --     2 C    1.681    27 S    1.147   139 H    0.967
     2   6 C    3.981 --     1 C    1.681     3 C    1.194   140 H    0.961
     3   6 C    3.968 --     4 C    1.285    26 C    1.259     2 C    1.194
     4   6 C    3.964 --    14 C    1.376     3 C    1.285     5 C    1.064
     5   6 C    3.950 --    12 C    1.519     6 S    1.133     4 C    1.064
     6  16 S    2.615 --     7 C    1.161     5 C    1.133
     7   6 C    3.942 --    10 C    1.541     6 S    1.161     8 C    1.027
     8   6 C    3.984 --     7 C    1.027     9 C    0.992   141 H    0.964
                           142 H    0.964
     9   6 C    3.988 --     8 C    0.992   143 H    0.988   144 H    0.986
                           145 H    0.982
    10   6 C    3.897 --     7 C    1.541    12 C    1.220    11 Cl   0.965
    11  17 Cl   1.107 --    10 C    0.965
    12   6 C    3.895 --     5 C    1.519    10 C    1.220    13 Cl   0.967
    13  17 Cl   1.114 --    12 C    0.967
    14   6 C    3.950 --     4 C    1.376    15 C    1.245    30 S    1.106
    15   6 C    3.982 --    16 C    1.284    14 C    1.245    28 C    1.230
    16   6 C    3.950 --    26 C    1.359    15 C    1.284    17 C    1.068
    17   6 C    3.950 --    23 C    1.523    18 S    1.123    16 C    1.068
    18  16 S    2.606 --    19 C    1.154    17 C    1.123
    19   6 C    3.941 --    22 C    1.546    18 S    1.154    20 C    1.029
    20   6 C    3.979 --    19 C    1.029    21 C    0.995   147 H    0.965
                           146 H    0.944
    21   6 C    3.989 --    20 C    0.995   149 H    0.988   150 H    0.985
                           148 H    0.983
    22   6 C    3.894 --    19 C    1.546    23 C    1.216    25 Cl   0.962
    23   6 C    3.882 --    17 C    1.523    22 C    1.216    24 Cl   0.965
    24  17 Cl   1.114 --    23 C    0.965
    25  17 Cl   1.103 --    22 C    0.962
    26   6 C    3.953 --    16 C    1.359     3 C    1.259    27 S    1.106
    27  16 S    2.537 --     1 C    1.147    26 C    1.106
    28   6 C    3.948 --    29 C    1.532    15 C    1.230   151 H    0.956
    29   6 C    3.938 --    28 C    1.532    31 C    1.180    30 S    1.077
    30  16 S    2.498 --    14 C    1.106    29 C    1.077
    31   6 C    3.911 --    33 C    1.456    29 C    1.180    32 S    1.098
    32  16 S    2.576 --    41 C    1.160    31 C    1.098
    33   6 C    3.965 --    31 C    1.456    34 C    1.333   152 H    0.948
    34   6 C    3.950 --    33 C    1.333    41 C    1.324    35 C    1.075
    35   6 C    3.983 --    36 C    1.677    34 C    1.075    44 C    1.073
    36   6 C    3.974 --    35 C    1.677    39 C    1.011    37 C    1.000
    37   6 C    3.981 --    38 N    1.010    36 C    1.000   154 H    0.969
                           153 H    0.958
    38   7 N    3.014 --    37 C    1.010   155 H    0.961   156 H    0.957
    39   6 C    3.985 --    40 N    1.014    36 C    1.011   158 H    0.965
                           157 H    0.951
    40   7 N    2.989 --    39 C    1.014   159 H    0.963   160 H    0.958
    41   6 C    3.930 --    34 C    1.324    42 C    1.217    32 S    1.160
    42   6 C    3.913 --    44 C    1.329    41 C    1.217    43 S    1.147
    43  16 S    2.562 --    42 C    1.147    46 C    1.096
    44   6 C    3.956 --    45 C    1.334    42 C    1.329    35 C    1.073
    45   6 C    3.962 --    46 C    1.450    44 C    1.334   161 H    0.950
    46   6 C    3.915 --    45 C    1.450    47 C    1.196    43 S    1.096
    47   6 C    3.911 --    49 C    1.453    46 C    1.196    48 S    1.091
    48  16 S    2.559 --    57 C    1.144    47 C    1.091
    49   6 C    3.962 --    47 C    1.453    50 C    1.331   162 H    0.952
    50   6 C    3.952 --    49 C    1.331    57 C    1.329    51 C    1.068
    51   6 C    3.982 --    52 C    1.686    50 C    1.068    60 C    1.067
    52   6 C    3.973 --    51 C    1.686    53 C    1.011    55 C    0.998
    53   6 C    3.985 --    54 N    1.016    52 C    1.011   163 H    0.964
                           164 H    0.949
    54   7 N    2.991 --    53 C    1.016   165 H    0.964   166 H    0.957
    55   6 C    3.981 --    56 N    1.013    52 C    0.998   168 H    0.969
                           167 H    0.957
    56   7 N    3.013 --    55 C    1.013   170 H    0.961   169 H    0.958
    57   6 C    3.918 --    50 C    1.329    58 C    1.220    48 S    1.144
    58   6 C    3.923 --    60 C    1.316    57 C    1.220    59 S    1.157
    59  16 S    2.572 --    58 C    1.157    62 C    1.093
    60   6 C    3.948 --    61 C    1.340    58 C    1.316    51 C    1.067
    61   6 C    3.960 --    62 C    1.438    60 C    1.340   171 H    0.953
    62   6 C    3.902 --    61 C    1.438    63 C    1.184    59 S    1.093
    63   6 C    3.922 --    64 C    1.508    62 C    1.184    89 S    1.076
    64   6 C    3.948 --    63 C    1.508    65 C    1.241   172 H    0.959
    65   6 C    3.966 --    66 C    1.251    88 C    1.246    64 C    1.241
    66   6 C    3.939 --    76 C    1.368    65 C    1.251    67 C    1.099
    67   6 C    3.951 --    74 C    1.498    68 S    1.124    66 C    1.099
    68  16 S    2.631 --    69 C    1.159    67 C    1.124
    69   6 C    3.934 --    72 C    1.533    68 S    1.159    70 C    1.028
    70   6 C    3.982 --    69 C    1.028    71 C    1.002   173 H    0.964
                           174 H    0.948
    71   6 C    3.987 --    70 C    1.002   175 H    0.987   177 H    0.983
                           176 H    0.980
    72   6 C    3.894 --    69 C    1.533    74 C    1.226    73 Cl   0.963
    73  17 Cl   1.103 --    72 C    0.963
    74   6 C    3.885 --    67 C    1.498    72 C    1.226    75 Cl   0.964
    75  17 Cl   1.107 --    74 C    0.964
    76   6 C    3.948 --    66 C    1.368    77 C    1.249    92 S    1.101
    77   6 C    3.964 --    78 C    1.262    76 C    1.249    90 C    1.236
    78   6 C    3.946 --    88 C    1.377    77 C    1.262    79 C    1.074
    79   6 C    3.950 --    85 C    1.518    80 S    1.124    78 C    1.074
    80  16 S    2.613 --    81 C    1.156    79 C    1.124
    81   6 C    3.940 --    84 C    1.544    80 S    1.156    82 C    1.027
    82   6 C    3.985 --    81 C    1.027    83 C    0.997   179 H    0.966
                           178 H    0.957
    83   6 C    3.989 --    82 C    0.997   180 H    0.988   182 H    0.984
                           181 H    0.983
    84   6 C    3.897 --    81 C    1.544    85 C    1.218    87 Cl   0.964
    85   6 C    3.882 --    79 C    1.518    84 C    1.218    86 Cl   0.966
    86  17 Cl   1.113 --    85 C    0.966
    87  17 Cl   1.106 --    84 C    0.964
    88   6 C    3.940 --    78 C    1.377    65 C    1.246    89 S    1.089
    89  16 S    2.477 --    88 C    1.089    63 C    1.076
    90   6 C    3.951 --    91 C    1.530    77 C    1.236   183 H    0.948
    91   6 C    3.922 --    90 C    1.530    93 C    1.163    92 S    1.070
    92  16 S    2.507 --    76 C    1.101    91 C    1.070
    93   6 C    3.925 --    94 C    1.530    91 C    1.163   119 S    1.075
    94   6 C    3.950 --    93 C    1.530    95 C    1.236   184 H    0.948
    95   6 C    3.967 --    96 C    1.273   118 C    1.240    94 C    1.236
    96   6 C    3.951 --   106 C    1.372    95 C    1.273    97 C    1.074
    97   6 C    3.950 --   104 C    1.516    98 S    1.127    96 C    1.074
    98  16 S    2.613 --    99 C    1.161    97 C    1.127
    99   6 C    3.940 --   102 C    1.541    98 S    1.161   100 C    1.026
   100   6 C    3.983 --    99 C    1.026   101 C    0.993   186 H    0.963
                           185 H    0.962
   101   6 C    3.989 --   100 C    0.993   188 H    0.988   189 H    0.986
                           187 H    0.982
   102   6 C    3.896 --    99 C    1.541   104 C    1.220   103 Cl   0.964
   103  17 Cl   1.105 --   102 C    0.964
   104   6 C    3.884 --    97 C    1.516   102 C    1.220   105 Cl   0.968
   105  17 Cl   1.119 --   104 C    0.968
   106   6 C    3.946 --    96 C    1.372   107 C    1.244   122 S    1.104
   107   6 C    3.968 --   108 C    1.273   106 C    1.244   120 C    1.234
   108   6 C    3.942 --   118 C    1.381   107 C    1.273   109 C    1.061
   109   6 C    3.949 --   115 C    1.522   110 S    1.130   108 C    1.061
   110  16 S    2.604 --   111 C    1.158   109 C    1.130
   111   6 C    3.942 --   114 C    1.545   110 S    1.158   112 C    1.026
   112   6 C    3.985 --   111 C    1.026   113 C    0.993   190 H    0.966
                           191 H    0.962
   113   6 C    3.990 --   112 C    0.993   194 H    0.988   193 H    0.987
                           192 H    0.983
   114   6 C    3.902 --   111 C    1.545   115 C    1.217   117 Cl   0.970
   115   6 C    3.895 --   109 C    1.522   114 C    1.217   116 Cl   0.972
   116  17 Cl   1.127 --   115 C    0.972
   117  17 Cl   1.115 --   114 C    0.970
   118   6 C    3.946 --   108 C    1.381    95 C    1.240   119 S    1.101
   119  16 S    2.495 --   118 C    1.101    93 C    1.075
   120   6 C    3.958 --   121 C    1.530   107 C    1.234   195 H    0.957
   121   6 C    3.933 --   120 C    1.530   123 C    1.180   122 S    1.077
   122  16 S    2.501 --   106 C    1.104   121 C    1.077
   123   6 C    3.916 --   125 C    1.464   121 C    1.180   124 S    1.095
   124  16 S    2.584 --   133 C    1.163   123 C    1.095
   125   6 C    3.961 --   123 C    1.464   126 C    1.325   196 H    0.948
   126   6 C    3.973 --   133 C    1.348   125 C    1.325   127 C    1.070
   127   6 C    3.984 --   128 C    1.680   136 C    1.077   126 C    1.070
   128   6 C    3.978 --   127 C    1.680   129 C    1.008   131 C    1.003
   129   6 C    3.984 --   130 N    1.011   128 C    1.008   198 H    0.966
                           197 H    0.956
   130   7 N    2.988 --   129 C    1.011   199 H    0.962   200 H    0.958
   131   6 C    3.982 --   132 N    1.005   128 C    1.003   202 H    0.967
                           201 H    0.962
   132   7 N    3.023 --   131 C    1.005   203 H    0.958   204 H    0.955
   133   6 C    3.923 --   126 C    1.348   134 C    1.190   124 S    1.163
   134   6 C    3.942 --   136 C    1.374   133 C    1.190   135 S    1.156
   135  16 S    2.610 --   138 C    1.174   134 C    1.156
   136   6 C    3.954 --   134 C    1.374   137 C    1.274   127 C    1.077
   137   6 C    3.985 --   138 C    1.602   136 C    1.274   205 H    0.954
   138   6 C    3.910 --   137 C    1.602   135 S    1.174   206 H    0.967
   139   1 H    0.995 --     1 C    0.967
   140   1 H    0.997 --     2 C    0.961
   141   1 H    0.993 --     8 C    0.964
   142   1 H    0.995 --     8 C    0.964
   143   1 H    0.998 --     9 C    0.988
   144   1 H    0.996 --     9 C    0.986
   145   1 H    0.995 --     9 C    0.982
   146   1 H    0.989 --    20 C    0.944
   147   1 H    0.995 --    20 C    0.965
   148   1 H    0.995 --    21 C    0.983
   149   1 H    0.998 --    21 C    0.988
   150   1 H    0.997 --    21 C    0.985
   151   1 H    0.996 --    28 C    0.956
   152   1 H    0.995 --    33 C    0.948
   153   1 H    0.996 --    37 C    0.958
   154   1 H    0.996 --    37 C    0.969
   155   1 H    0.974 --    38 N    0.961
   156   1 H    0.973 --    38 N    0.957
   157   1 H    0.994 --    39 C    0.951
   158   1 H    0.999 --    39 C    0.965
   159   1 H    0.976 --    40 N    0.963
   160   1 H    0.972 --    40 N    0.958
   161   1 H    0.995 --    45 C    0.950
   162   1 H    0.994 --    49 C    0.952
   163   1 H    0.999 --    53 C    0.964
   164   1 H    0.993 --    53 C    0.949
   165   1 H    0.976 --    54 N    0.964
   166   1 H    0.970 --    54 N    0.957
   167   1 H    0.996 --    55 C    0.957
   168   1 H    0.996 --    55 C    0.969
   169   1 H    0.975 --    56 N    0.958
   170   1 H    0.973 --    56 N    0.961
   171   1 H    0.996 --    61 C    0.953
   172   1 H    0.997 --    64 C    0.959
   173   1 H    0.994 --    70 C    0.964
   174   1 H    0.991 --    70 C    0.948
   175   1 H    0.997 --    71 C    0.987
   176   1 H    0.996 --    71 C    0.980
   177   1 H    0.995 --    71 C    0.983
   178   1 H    0.994 --    82 C    0.957
   179   1 H    0.995 --    82 C    0.966
   180   1 H    0.998 --    83 C    0.988
   181   1 H    0.996 --    83 C    0.983
   182   1 H    0.997 --    83 C    0.984
   183   1 H    0.995 --    90 C    0.948
   184   1 H    0.993 --    94 C    0.948
   185   1 H    0.993 --   100 C    0.962
   186   1 H    0.994 --   100 C    0.963
   187   1 H    0.995 --   101 C    0.982
   188   1 H    0.998 --   101 C    0.988
   189   1 H    0.997 --   101 C    0.986
   190   1 H    0.994 --   112 C    0.966
   191   1 H    0.995 --   112 C    0.962
   192   1 H    0.995 --   113 C    0.983
   193   1 H    0.997 --   113 C    0.987
   194   1 H    0.998 --   113 C    0.988
   195   1 H    0.996 --   120 C    0.957
   196   1 H    0.994 --   125 C    0.948
   197   1 H    0.996 --   129 C    0.956
   198   1 H    0.999 --   129 C    0.966
   199   1 H    0.975 --   130 N    0.962
   200   1 H    0.971 --   130 N    0.958
   201   1 H    0.997 --   131 C    0.962
   202   1 H    0.995 --   131 C    0.967
   203   1 H    0.972 --   132 N    0.958
   204   1 H    0.974 --   132 N    0.955
   205   1 H    0.996 --   137 C    0.954
   206   1 H    0.998 --   138 C    0.967
 ---------------------------------------------------------------------------

Topologies differ in bond orders
Writing corrected topology to xtbtopo.mol

molecular dipole:
                 x           y           z       tot (Debye)
 q only:       -0.107      -2.434       2.116
   full:       -1.181      -2.195       1.735       7.719
molecular quadrupole (traceless):
                xx          xy          yy          xz          yz          zz
 q only:       15.557     101.636      66.726    -102.973     204.324     -82.283
  q+dip:       22.133      53.828      58.632     -53.185     143.949     -80.765
   full:       29.830      51.360      48.866     -57.581     140.857     -78.697


           -------------------------------------------------
          | TOTAL ENERGY             -383.783730522319 Eh   |
          | GRADIENT NORM               0.023949610992 Eh/α |
          | HOMO-LUMO GAP               0.993484520720 eV   |
           -------------------------------------------------

------------------------------------------------------------------------
 * finished run on 2022/03/01 at 04:47:15.306     
------------------------------------------------------------------------
 total:
 * wall-time:     0 d,  0 h,  0 min,  1.575 sec
 *  cpu-time:     0 d,  0 h,  0 min, 11.469 sec
 * ratio c/w:     7.283 speedup
 SCF:
 * wall-time:     0 d,  0 h,  0 min,  1.194 sec
 *  cpu-time:     0 d,  0 h,  0 min,  9.545 sec
 * ratio c/w:     7.991 speedup

