      -----------------------------------------------------------      
     |                   =====================                   |     
     |                           x T B                           |     
     |                   =====================                   |     
     |                         S. Grimme                         |     
     |          Mulliken Center for Theoretical Chemistry        |     
     |                    University of Bonn                     |     
      -----------------------------------------------------------      

   * xtb version 6.4.1 (unknown) compiled by 'oda6@login1.crc.pitt.edu' on 2021-06-25

   xtb is free software: you can redistribute it and/or modify it under
   the terms of the GNU Lesser General Public License as published by
   the Free Software Foundation, either version 3 of the License, or
   (at your option) any later version.
   
   xtb is distributed in the hope that it will be useful,
   but WITHOUT ANY WARRANTY; without even the implied warranty of
   MERCHANTABILITY or FITNESS FOR A PARTICULAR PURPOSE.  See the
   GNU Lesser General Public License for more details.
   
   Cite this work as:
   * C. Bannwarth, E. Caldeweyher, S. Ehlert, A. Hansen, P. Pracht,
     J. Seibert, S. Spicher, S. Grimme, WIREs Comput. Mol. Sci., 2020, 11,
     e01493. DOI: 10.1002/wcms.1493
   
   for GFN2-xTB:
   * C. Bannwarth, S. Ehlert and S. Grimme., J. Chem. Theory Comput., 2019,
     15, 1652-1671. DOI: 10.1021/acs.jctc.8b01176
   for GFN1-xTB:
   * S. Grimme, C. Bannwarth, P. Shushkov, J. Chem. Theory Comput., 2017,
     13, 1989-2009. DOI: 10.1021/acs.jctc.7b00118
   for GFN0-xTB:
   * P. Pracht, E. Caldeweyher, S. Ehlert, S. Grimme, ChemRxiv, 2019, preprint.
     DOI: 10.26434/chemrxiv.8326202.v1
   for GFN-FF:
   * S. Spicher and S. Grimme, Angew. Chem. Int. Ed., 2020, 59, 15665-15673.
     DOI: 10.1002/anie.202004239
   
   for DFT-D4:
   * E. Caldeweyher, C. Bannwarth and S. Grimme, J. Chem. Phys., 2017,
     147, 034112. DOI: 10.1063/1.4993215
   * E. Caldeweyher, S. Ehlert, A. Hansen, H. Neugebauer, S. Spicher,
     C. Bannwarth and S. Grimme, J. Chem. Phys., 2019, 150, 154122.
     DOI: 10.1063/1.5090222
   * E. Caldeweyher, J.-M. Mewes, S. Ehlert and S. Grimme, Phys. Chem. Chem. Phys.
     2020, 22, 8499-8512. DOI: 10.1039/D0CP00502A
   
   for sTDA-xTB:
   * S. Grimme and C. Bannwarth, J. Chem. Phys., 2016, 145, 054103.
     DOI: 10.1063/1.4959605
   
   in the mass-spec context:
   * V. Asgeirsson, C. Bauer and S. Grimme, Chem. Sci., 2017, 8, 4879.
     DOI: 10.1039/c7sc00601b
   * J. Koopman and S. Grimme, ACS Omega 2019, 4, 12, 15120-15133.
     DOI: 10.1021/acsomega.9b02011
   
   for metadynamics refer to:
   * S. Grimme, J. Chem. Theory Comput., 2019, 155, 2847-2862
     DOI: 10.1021/acs.jctc.9b00143
   
   for SPH calculations refer to:
   * S. Spicher and S. Grimme, J. Chem. Theory Comput., 2021, 17, 1701-1714
     DOI: 10.1021/acs.jctc.0c01306
   
   with help from (in alphabetical order)
   P. Atkinson, C. Bannwarth, F. Bohle, G. Brandenburg, E. Caldeweyher
   M. Checinski, S. Dohm, S. Ehlert, S. Ehrlich, I. Gerasimov, J. Koopman
   C. Lavigne, S. Lehtola, F. März, M. Müller, F. Musil, H. Neugebauer
   J. Pisarek, C. Plett, P. Pracht, J. Seibert, P. Shushkov, S. Spicher
   M. Stahn, M. Steiner, T. Strunk, J. Stückrath, T. Rose, and J. Unsleber
   
 * started run on 2022/03/04 at 13:53:08.866     

           -------------------------------------------------
          |                Calculation Setup                |
           -------------------------------------------------

          program call               : /ihome/ghutchison/oda6/xtb/xtb-641/bin/xtb ../../GFN2_output/920_988_101011.mol --sp --alpb water
          hostname                   : smp-n90
          coordinate file            : ../../GFN2_output/920_988_101011.mol
          omp threads                :                     8
          number of atoms            :                    86
          number of electrons        :                   298
          charge                     :                     0
          spin                       :                   0.0
          first test random number   :      0.39245719199947

   ID    Z sym.   atoms
    1    6 C      1, 3, 4, 6, 7, 9, 10, 12-18, 20-22, 24, 25, 27, 28, 30, 31,
                  33-39, 41-43, 45, 46, 48, 49, 51, 52, 54, 55, 57, 58, 60
    2   16 S      2, 5, 8, 11, 23, 26, 29, 32, 44, 47, 50, 53, 56, 59
    3    8 O      19, 40
    4    1 H      61-86

           -------------------------------------------------
          |                 G F N 2 - x T B                 |
           -------------------------------------------------

        Reference                      10.1021/acs.jctc.8b01176
      * Hamiltonian:
        H0-scaling (s, p, d)           1.850000    2.230000    2.230000
        zeta-weighting                 0.500000
      * Dispersion:
        s8                             2.700000
        a1                             0.520000
        a2                             5.000000
        s9                             5.000000
      * Repulsion:
        kExp                           1.500000    1.000000
        rExp                           1.000000
      * Coulomb:
        alpha                          2.000000
        third order                    shell-resolved
        anisotropic                    true
        a3                             3.000000
        a5                             4.000000
        cn-shift                       1.200000
        cn-exp                         4.000000
        max-rad                        5.000000

      * Solvation model:               ALPB
        Solvent                        water
        Parameter file                 internal GFN2-xTB/ALPB
        Dielectric constant                8.0200E+01
        Reference state                gsolv [1 M gas/solution]
        Free energy shift                  1.0808E-03 Eh       6.7819E-01 kcal/mol
        Temperature                        2.9815E+02 K
        Density                            1.0000E+00 kg/L
        Solvent mass                       1.8000E+01 g/mol
        Interaction kernel             P16
        Born radius scaling (c1)           1.4744E+00
        Born radii integrator          GBOBC
        Born offset                        0.0000E+00 a0       0.0000E+00 AA
        H-bond correction              true
        Ion screening                  false
        Surface tension                    1.0000E-05 Eh       1.5569E+01 dyn/cm
        Grid points                               230 per atom

          ...................................................
          :                      SETUP                      :
          :.................................................:
          :  # basis functions                 350          :
          :  # atomic orbitals                 336          :
          :  # shells                          160          :
          :  # electrons                       298          :
          :  max. iterations                   250          :
          :  Hamiltonian                  GFN2-xTB          :
          :  restarted?                      false          :
          :  GBSA solvation                   true          :
          :  PC potential                    false          :
          :  electronic temp.          300.0000000     K    :
          :  accuracy                    1.0000000          :
          :  -> integral cutoff          0.2500000E+02      :
          :  -> integral neglect         0.1000000E-07      :
          :  -> SCF convergence          0.1000000E-05 Eh   :
          :  -> wf. convergence          0.1000000E-03 e    :
          :  Broyden damping             0.4000000          :
          ...................................................

 iter      E             dE          RMSdq      gap      omega  full diag
   1   -163.0305694 -0.163031E+03  0.493E+00    1.31       0.0  T
   2   -163.0993363 -0.687669E-01  0.258E+00    1.24       1.0  T
   3   -163.0679159  0.314204E-01  0.933E-01    1.21       1.0  T
   4   -163.1052941 -0.373782E-01  0.453E-01    1.20       1.0  T
   5   -163.1113500 -0.605588E-02  0.228E-01    1.19       1.0  T
   6   -163.1127729 -0.142287E-02  0.105E-01    1.20       1.0  T
   7   -163.1133513 -0.578358E-03  0.424E-02    1.20       1.0  T
   8   -163.1134104 -0.590998E-04  0.272E-02    1.19       1.0  T
   9   -163.1134227 -0.123838E-04  0.154E-02    1.19       1.0  T
  10   -163.1134287 -0.597595E-05  0.808E-03    1.19       1.3  T
  11   -163.1134299 -0.120896E-05  0.483E-03    1.19       2.2  T
  12   -163.1134303 -0.400697E-06  0.283E-03    1.19       3.8  T
  13   -163.1134305 -0.203238E-06  0.133E-03    1.19       8.1  T
  14   -163.1134306 -0.404071E-07  0.767E-04    1.19      14.1  T
  15   -163.1134306 -0.125218E-07  0.441E-04    1.19      24.5  T

   *** convergence criteria satisfied after 15 iterations ***

         #    Occupation            Energy/Eh            Energy/eV
      -------------------------------------------------------------
         1        2.0000           -0.7505632             -20.4239
       ...           ...                  ...                  ...
       143        2.0000           -0.3907766             -10.6336
       144        2.0000           -0.3770491             -10.2600
       145        2.0000           -0.3739513             -10.1757
       146        2.0000           -0.3718893             -10.1196
       147        2.0000           -0.3669504              -9.9852
       148        2.0000           -0.3619339              -9.8487
       149        2.0000           -0.3531761              -9.6104 (HOMO)
       150                         -0.3094481              -8.4205 (LUMO)
       151                         -0.2983978              -8.1198
       152                         -0.2835198              -7.7150
       153                         -0.2677924              -7.2870
       154                         -0.2659969              -7.2381
       ...                                ...                  ...
       336                          0.7132557              19.4087
      -------------------------------------------------------------
                  HL-Gap            0.0437280 Eh            1.1899 eV
             Fermi-level           -0.3313121 Eh           -9.0155 eV

 SCC (total)                   0 d,  0 h,  0 min,  0.255 sec
 SCC setup                      ...        0 min,  0.004 sec (  1.397%)
 Dispersion                     ...        0 min,  0.003 sec (  1.057%)
 classical contributions        ...        0 min,  0.000 sec (  0.040%)
 integral evaluation            ...        0 min,  0.015 sec (  5.891%)
 iterations                     ...        0 min,  0.202 sec ( 79.369%)
 molecular gradient             ...        0 min,  0.030 sec ( 11.851%)
 printout                       ...        0 min,  0.001 sec (  0.357%)

         :::::::::::::::::::::::::::::::::::::::::::::::::::::
         ::                     SUMMARY                     ::
         :::::::::::::::::::::::::::::::::::::::::::::::::::::
         :: total energy            -160.980955082226 Eh    ::
         :: total w/o Gsasa/hb      -160.993776302617 Eh    ::
         :: gradient norm              0.012027351704 Eh/a0 ::
         :: HOMO-LUMO gap              1.189899863093 eV    ::
         ::.................................................::
         :: SCC energy              -163.113430581851 Eh    ::
         :: -> isotropic ES            0.044363940156 Eh    ::
         :: -> anisotropic ES          0.005554465354 Eh    ::
         :: -> anisotropic XC          0.058512738606 Eh    ::
         :: -> dispersion             -0.188375923751 Eh    ::
         :: -> Gsolv                   0.002798246245 Eh    ::
         ::    -> Gelec               -0.010022974147 Eh    ::
         ::    -> Gsasa                0.014930989460 Eh    ::
         ::    -> Ghb                 -0.003190528767 Eh    ::
         ::    -> Gshift               0.001080759698 Eh    ::
         :: repulsion energy           2.121995197419 Eh    ::
         :: add. restraining           0.000000000000 Eh    ::
         :: total charge               0.000000000000 e     ::
         :::::::::::::::::::::::::::::::::::::::::::::::::::::

           -------------------------------------------------
          |                Property Printout                |
           -------------------------------------------------

    * Orbital Energies and Occupations

         #    Occupation            Energy/Eh            Energy/eV
      -------------------------------------------------------------
         1        2.0000           -0.7505632             -20.4239
       ...           ...                  ...                  ...
       137        2.0000           -0.4163905             -11.3306
       138        2.0000           -0.3995195             -10.8715
       139        2.0000           -0.3975875             -10.8189
       140        2.0000           -0.3962377             -10.7822
       141        2.0000           -0.3952208             -10.7545
       142        2.0000           -0.3933585             -10.7038
       143        2.0000           -0.3907766             -10.6336
       144        2.0000           -0.3770491             -10.2600
       145        2.0000           -0.3739513             -10.1757
       146        2.0000           -0.3718893             -10.1196
       147        2.0000           -0.3669504              -9.9852
       148        2.0000           -0.3619339              -9.8487
       149        2.0000           -0.3531761              -9.6104 (HOMO)
       150                         -0.3094481              -8.4205 (LUMO)
       151                         -0.2983978              -8.1198
       152                         -0.2835198              -7.7150
       153                         -0.2677924              -7.2870
       154                         -0.2659969              -7.2381
       155                         -0.2657213              -7.2306
       156                         -0.2609156              -7.0999
       157                         -0.2581969              -7.0259
       158                         -0.2493694              -6.7857
       159                         -0.2463632              -6.7039
       160                         -0.2359511              -6.4206
       ...                                ...                  ...
       336                          0.7132557              19.4087
      -------------------------------------------------------------
                  HL-Gap            0.0437280 Eh            1.1899 eV
             Fermi-level           -0.3313121 Eh           -9.0155 eV

     #   Z          covCN         q      C6AA      α(0)
     1   6 C        2.921    -0.019    28.480     8.752
     2  16 S        2.033    -0.112   145.731    20.318
     3   6 C        3.177     0.029    26.940     8.475
     4   6 C        2.979    -0.042    29.045     8.840
     5  16 S        2.302     0.010   140.650    19.961
     6   6 C        2.983    -0.042    29.032     8.838
     7   6 C        3.176     0.031    26.914     8.472
     8  16 S        2.199    -0.131   146.563    20.376
     9   6 C        3.006     0.036    27.173     8.551
    10   6 C        3.053     0.007    27.809     8.649
    11  16 S        2.457     0.000   141.047    19.989
    12   6 C        3.050    -0.003    28.049     8.686
    13   6 C        3.163    -0.007    27.852     8.626
    14   6 C        3.150    -0.014    28.070     8.666
    15   6 C        2.914    -0.052    29.280     8.873
    16   6 C        2.963     0.003    27.961     8.673
    17   6 C        3.758    -0.113    22.721     6.796
    18   6 C        2.869     0.137    25.006     8.197
    19   8 O        1.705    -0.270    18.478     5.804
    20   6 C        3.646     0.028    20.434     6.496
    21   6 C        2.908    -0.081    30.032     8.986
    22   6 C        3.006     0.029    27.346     8.578
    23  16 S        2.125    -0.131   146.564    20.376
    24   6 C        3.184     0.030    26.884     8.462
    25   6 C        2.975    -0.041    29.016     8.836
    26  16 S        2.309     0.020   140.253    19.932
    27   6 C        2.974    -0.042    29.036     8.839
    28   6 C        3.183     0.034    26.812     8.451
    29  16 S        2.103    -0.169   148.204    20.490
    30   6 C        3.003     0.022    27.510     8.604
    31   6 C        3.035     0.008    27.817     8.651
    32  16 S        2.342    -0.026   142.134    20.066
    33   6 C        3.026    -0.003    28.075     8.691
    34   6 C        3.165    -0.010    27.912     8.634
    35   6 C        3.156    -0.013    28.033     8.658
    36   6 C        2.915    -0.048    29.193     8.860
    37   6 C        2.963     0.004    27.930     8.669
    38   6 C        3.759    -0.113    22.714     6.795
    39   6 C        2.870     0.136    25.035     8.202
    40   8 O        1.705    -0.272    18.503     5.808
    41   6 C        3.647     0.026    20.471     6.502
    42   6 C        2.908    -0.081    30.029     8.986
    43   6 C        2.999     0.025    27.437     8.592
    44  16 S        2.089    -0.148   147.309    20.428
    45   6 C        3.189     0.033    26.803     8.446
    46   6 C        2.969    -0.038    28.952     8.826
    47  16 S        2.314     0.036   139.599    19.886
    48   6 C        2.969    -0.042    29.033     8.838
    49   6 C        3.188     0.030    26.873     8.457
    50  16 S        2.133    -0.127   146.384    20.363
    51   6 C        3.034     0.025    27.405     8.587
    52   6 C        3.021     0.031    27.288     8.569
    53  16 S        2.122    -0.139   146.892    20.399
    54   6 C        3.178     0.029    26.949     8.476
    55   6 C        2.980    -0.039    28.956     8.827
    56  16 S        2.306     0.034   139.677    19.891
    57   6 C        2.981    -0.043    29.070     8.844
    58   6 C        3.180     0.027    26.973     8.478
    59  16 S        2.037    -0.111   145.711    20.317
    60   6 C        2.922    -0.010    28.270     8.719
    61   1 H        0.926     0.075     2.029     2.228
    62   1 H        0.927     0.080     1.978     2.199
    63   1 H        0.927     0.079     1.994     2.208
    64   1 H        0.926     0.050     2.323     2.384
    65   1 H        0.925     0.072     2.062     2.246
    66   1 H        0.925     0.058     2.227     2.334
    67   1 H        0.925     0.052     2.295     2.369
    68   1 H        0.924     0.047     2.361     2.403
    69   1 H        0.924     0.052     2.296     2.370
    70   1 H        0.925     0.079     1.985     2.203
    71   1 H        0.926     0.033     2.545     2.495
    72   1 H        0.927     0.084     1.937     2.177
    73   1 H        0.927     0.078     1.996     2.209
    74   1 H        0.926     0.038     2.470     2.458
    75   1 H        0.925     0.067     2.123     2.279
    76   1 H        0.925     0.055     2.259     2.351
    77   1 H        0.925     0.069     2.097     2.265
    78   1 H        0.924     0.050     2.320     2.382
    79   1 H        0.924     0.049     2.338     2.391
    80   1 H        0.925     0.087     1.904     2.158
    81   1 H        0.926     0.032     2.560     2.502
    82   1 H        0.927     0.084     1.934     2.175
    83   1 H        0.927     0.086     1.920     2.167
    84   1 H        0.927     0.083     1.949     2.183
    85   1 H        0.927     0.081     1.968     2.194
    86   1 H        0.926     0.056     2.245     2.343

 Mol. C6AA /au·bohr⁶  :     197215.671559
 Mol. C8AA /au·bohr⁸  :    6658868.070075
 Mol. α(0) /au        :        726.721961


Wiberg/Mayer (AO) data.
largest (>0.10) Wiberg bond orders for each atom

 ---------------------------------------------------------------------------
     #   Z sym  total        # sym  WBO       # sym  WBO       # sym  WBO
 ---------------------------------------------------------------------------
     1   6 C    3.934 --     9 C    1.671     2 S    1.080    61 H    0.945
     2  16 S    2.376 --     1 C    1.080     3 C    1.016
     3   6 C    3.954 --     4 C    1.577     7 C    1.208     2 S    1.016
     4   6 C    3.938 --     3 C    1.577     5 S    1.187    62 H    0.965
     5  16 S    2.650 --     4 C    1.187     6 C    1.187
     6   6 C    3.942 --     7 C    1.575     5 S    1.187    63 H    0.965
     7   6 C    3.955 --     6 C    1.575     3 C    1.208     8 S    1.022
     8  16 S    2.360 --     7 C    1.022     9 C    1.005
     9   6 C    3.961 --     1 C    1.671    10 C    1.134     8 S    1.005
    10   6 C    3.924 --    14 C    1.349    11 S    1.167     9 C    1.134
                            12 C    0.107
    11  16 S    2.663 --    10 C    1.167    12 C    1.151
    12   6 C    3.921 --    13 C    1.354    11 S    1.151    22 C    1.116
                            10 C    0.107
    13   6 C    3.982 --    12 C    1.354    21 C    1.240    14 C    1.186
    14   6 C    3.980 --    10 C    1.349    15 C    1.231    13 C    1.186
    15   6 C    3.983 --    16 C    1.585    14 C    1.231    64 H    0.960
    16   6 C    3.979 --    15 C    1.585    18 C    1.174    17 C    1.032
    17   6 C    3.991 --    16 C    1.032    66 H    0.984    67 H    0.967
                            65 H    0.964
    18   6 C    3.930 --    21 C    1.508    16 C    1.174    19 O    1.077
    19   8 O    2.234 --    18 C    1.077    20 C    0.975
    20   6 C    3.933 --    70 H    0.977    19 O    0.975    69 H    0.975
                            68 H    0.971
    21   6 C    3.977 --    18 C    1.508    13 C    1.240    71 H    0.961
    22   6 C    3.943 --    30 C    1.582    12 C    1.116    23 S    1.023
    23  16 S    2.351 --    22 C    1.023    24 C    1.020
    24   6 C    3.954 --    25 C    1.576    28 C    1.206    23 S    1.020
    25   6 C    3.939 --    24 C    1.576    26 S    1.190    72 H    0.964
                            27 C    0.102
    26  16 S    2.654 --    25 C    1.190    27 C    1.188
    27   6 C    3.940 --    28 C    1.576    26 S    1.188    73 H    0.965
                            25 C    0.102
    28   6 C    3.952 --    27 C    1.576    24 C    1.206    29 S    1.016
    29  16 S    2.293 --    28 C    1.016    30 C    0.992
    30   6 C    3.933 --    22 C    1.582    31 C    1.119    29 S    0.992
    31   6 C    3.923 --    35 C    1.367    32 S    1.152    30 C    1.119
                            33 C    0.117
    32  16 S    2.632 --    33 C    1.155    31 C    1.152
    33   6 C    3.917 --    34 C    1.361    32 S    1.155    43 C    1.105
                            31 C    0.117
    34   6 C    3.983 --    33 C    1.361    42 C    1.233    35 C    1.182
    35   6 C    3.981 --    31 C    1.367    36 C    1.222    34 C    1.182
    36   6 C    3.985 --    37 C    1.589    35 C    1.222    74 H    0.963
    37   6 C    3.980 --    36 C    1.589    39 C    1.168    38 C    1.034
    38   6 C    3.990 --    37 C    1.034    76 H    0.983    75 H    0.963
                            77 H    0.961
    39   6 C    3.934 --    42 C    1.516    37 C    1.168    40 O    1.077
    40   8 O    2.234 --    39 C    1.077    41 C    0.974
    41   6 C    3.931 --    80 H    0.976    78 H    0.976    40 O    0.974
                            79 H    0.972
    42   6 C    3.976 --    39 C    1.516    34 C    1.233    81 H    0.960
    43   6 C    3.957 --    51 C    1.634    33 C    1.105    44 S    0.986
    44  16 S    2.284 --    45 C    1.011    43 C    0.986
    45   6 C    3.953 --    46 C    1.577    49 C    1.209    44 S    1.011
    46   6 C    3.941 --    45 C    1.577    47 S    1.192    82 H    0.964
                            48 C    0.104
    47  16 S    2.661 --    48 C    1.195    46 C    1.192
    48   6 C    3.943 --    49 C    1.579    47 S    1.195    83 H    0.964
                            46 C    0.104
    49   6 C    3.951 --    48 C    1.579    45 C    1.209    50 S    1.011
    50  16 S    2.342 --    51 C    1.027    49 C    1.011
    51   6 C    3.947 --    43 C    1.634    52 C    1.057    50 S    1.027
    52   6 C    3.961 --    60 C    1.721    51 C    1.057    53 S    1.003
    53  16 S    2.338 --    54 C    1.013    52 C    1.003
    54   6 C    3.955 --    55 C    1.577    58 C    1.210    53 S    1.013
    55   6 C    3.943 --    54 C    1.577    56 S    1.190    84 H    0.964
    56  16 S    2.663 --    57 C    1.192    55 C    1.190
    57   6 C    3.943 --    58 C    1.578    56 S    1.192    85 H    0.965
    58   6 C    3.953 --    57 C    1.578    54 C    1.210    59 S    1.012
    59  16 S    2.402 --    60 C    1.084    58 C    1.012
    60   6 C    3.956 --    52 C    1.721    59 S    1.084    86 H    0.951
    61   1 H    0.993 --     1 C    0.945
    62   1 H    0.994 --     4 C    0.965
    63   1 H    0.994 --     6 C    0.965
    64   1 H    0.996 --    15 C    0.960
    65   1 H    0.990 --    17 C    0.964
    66   1 H    0.996 --    17 C    0.984
    67   1 H    0.993 --    17 C    0.967
    68   1 H    0.997 --    20 C    0.971
    69   1 H    0.997 --    20 C    0.975
    70   1 H    0.993 --    20 C    0.977
    71   1 H    0.998 --    21 C    0.961
    72   1 H    0.993 --    25 C    0.964
    73   1 H    0.994 --    27 C    0.965
    74   1 H    0.997 --    36 C    0.963
    75   1 H    0.991 --    38 C    0.963
    76   1 H    0.996 --    38 C    0.983
    77   1 H    0.990 --    38 C    0.961
    78   1 H    0.997 --    41 C    0.976
    79   1 H    0.997 --    41 C    0.972
    80   1 H    0.992 --    41 C    0.976
    81   1 H    0.998 --    42 C    0.960
    82   1 H    0.993 --    46 C    0.964
    83   1 H    0.993 --    48 C    0.964
    84   1 H    0.993 --    55 C    0.964
    85   1 H    0.993 --    57 C    0.965
    86   1 H    0.996 --    60 C    0.951
 ---------------------------------------------------------------------------

Topologies differ in bond orders
Writing corrected topology to xtbtopo.mol

molecular dipole:
                 x           y           z       tot (Debye)
 q only:        1.613       1.074       1.712
   full:        0.864       1.007       1.363       4.834
molecular quadrupole (traceless):
                xx          xy          yy          xz          yz          zz
 q only:        1.177     -26.599     -11.720     -11.568       9.774      10.542
  q+dip:       -5.766     -19.216      -3.235      -7.323       5.363       9.000
   full:       -6.525     -19.724      -1.107      -7.193       4.645       7.632


           -------------------------------------------------
          | TOTAL ENERGY             -160.980955082226 Eh   |
          | GRADIENT NORM               0.012027351704 Eh/α |
          | HOMO-LUMO GAP               1.189899863093 eV   |
           -------------------------------------------------

------------------------------------------------------------------------
 * finished run on 2022/03/04 at 13:53:09.175     
------------------------------------------------------------------------
 total:
 * wall-time:     0 d,  0 h,  0 min,  0.309 sec
 *  cpu-time:     0 d,  0 h,  0 min,  2.397 sec
 * ratio c/w:     7.768 speedup
 SCF:
 * wall-time:     0 d,  0 h,  0 min,  0.257 sec
 *  cpu-time:     0 d,  0 h,  0 min,  2.047 sec
 * ratio c/w:     7.971 speedup

