      -----------------------------------------------------------      
     |                   =====================                   |     
     |                           x T B                           |     
     |                   =====================                   |     
     |                         S. Grimme                         |     
     |          Mulliken Center for Theoretical Chemistry        |     
     |                    University of Bonn                     |     
      -----------------------------------------------------------      

   * xtb version 6.4.1 (unknown) compiled by 'oda6@login1.crc.pitt.edu' on 2021-06-25

   xtb is free software: you can redistribute it and/or modify it under
   the terms of the GNU Lesser General Public License as published by
   the Free Software Foundation, either version 3 of the License, or
   (at your option) any later version.
   
   xtb is distributed in the hope that it will be useful,
   but WITHOUT ANY WARRANTY; without even the implied warranty of
   MERCHANTABILITY or FITNESS FOR A PARTICULAR PURPOSE.  See the
   GNU Lesser General Public License for more details.
   
   Cite this work as:
   * C. Bannwarth, E. Caldeweyher, S. Ehlert, A. Hansen, P. Pracht,
     J. Seibert, S. Spicher, S. Grimme, WIREs Comput. Mol. Sci., 2020, 11,
     e01493. DOI: 10.1002/wcms.1493
   
   for GFN2-xTB:
   * C. Bannwarth, S. Ehlert and S. Grimme., J. Chem. Theory Comput., 2019,
     15, 1652-1671. DOI: 10.1021/acs.jctc.8b01176
   for GFN1-xTB:
   * S. Grimme, C. Bannwarth, P. Shushkov, J. Chem. Theory Comput., 2017,
     13, 1989-2009. DOI: 10.1021/acs.jctc.7b00118
   for GFN0-xTB:
   * P. Pracht, E. Caldeweyher, S. Ehlert, S. Grimme, ChemRxiv, 2019, preprint.
     DOI: 10.26434/chemrxiv.8326202.v1
   for GFN-FF:
   * S. Spicher and S. Grimme, Angew. Chem. Int. Ed., 2020, 59, 15665-15673.
     DOI: 10.1002/anie.202004239
   
   for DFT-D4:
   * E. Caldeweyher, C. Bannwarth and S. Grimme, J. Chem. Phys., 2017,
     147, 034112. DOI: 10.1063/1.4993215
   * E. Caldeweyher, S. Ehlert, A. Hansen, H. Neugebauer, S. Spicher,
     C. Bannwarth and S. Grimme, J. Chem. Phys., 2019, 150, 154122.
     DOI: 10.1063/1.5090222
   * E. Caldeweyher, J.-M. Mewes, S. Ehlert and S. Grimme, Phys. Chem. Chem. Phys.
     2020, 22, 8499-8512. DOI: 10.1039/D0CP00502A
   
   for sTDA-xTB:
   * S. Grimme and C. Bannwarth, J. Chem. Phys., 2016, 145, 054103.
     DOI: 10.1063/1.4959605
   
   in the mass-spec context:
   * V. Asgeirsson, C. Bauer and S. Grimme, Chem. Sci., 2017, 8, 4879.
     DOI: 10.1039/c7sc00601b
   * J. Koopman and S. Grimme, ACS Omega 2019, 4, 12, 15120-15133.
     DOI: 10.1021/acsomega.9b02011
   
   for metadynamics refer to:
   * S. Grimme, J. Chem. Theory Comput., 2019, 155, 2847-2862
     DOI: 10.1021/acs.jctc.9b00143
   
   for SPH calculations refer to:
   * S. Spicher and S. Grimme, J. Chem. Theory Comput., 2021, 17, 1701-1714
     DOI: 10.1021/acs.jctc.0c01306
   
   with help from (in alphabetical order)
   P. Atkinson, C. Bannwarth, F. Bohle, G. Brandenburg, E. Caldeweyher
   M. Checinski, S. Dohm, S. Ehlert, S. Ehrlich, I. Gerasimov, J. Koopman
   C. Lavigne, S. Lehtola, F. März, M. Müller, F. Musil, H. Neugebauer
   J. Pisarek, C. Plett, P. Pracht, J. Seibert, P. Shushkov, S. Spicher
   M. Stahn, M. Steiner, T. Strunk, J. Stückrath, T. Rose, and J. Unsleber
   
 * started run on 2022/02/28 at 20:35:47.419     

           -------------------------------------------------
          |                Calculation Setup                |
           -------------------------------------------------

          program call               : /ihome/ghutchison/oda6/xtb/xtb-641/bin/xtb ../../GFN2_output/959_20_110100.mol --sp --alpb water
          hostname                   : smp-n90
          coordinate file            : ../../GFN2_output/959_20_110100.mol
          omp threads                :                     8
          number of atoms            :                   131
          number of electrons        :                   416
          charge                     :                     0
          spin                       :                   0.0
          first test random number   :      0.31935859850863

   ID    Z sym.   atoms
    1    6 C      1, 3-7, 9-13, 15-19, 21-25, 27-29, 31, 33-36, 39-41, 43-47,
                  49-53, 55-57, 59, 61-64, 67-69, 71-73, 75, 77-80, 83, 84
    2   16 S      2, 8, 14, 20, 26, 42, 48, 54, 70
    3    7 N      30, 37, 38, 58, 65, 66, 74, 81, 82
    4    8 O      32, 60, 76
    5    1 H      85-131

           -------------------------------------------------
          |                 G F N 2 - x T B                 |
           -------------------------------------------------

        Reference                      10.1021/acs.jctc.8b01176
      * Hamiltonian:
        H0-scaling (s, p, d)           1.850000    2.230000    2.230000
        zeta-weighting                 0.500000
      * Dispersion:
        s8                             2.700000
        a1                             0.520000
        a2                             5.000000
        s9                             5.000000
      * Repulsion:
        kExp                           1.500000    1.000000
        rExp                           1.000000
      * Coulomb:
        alpha                          2.000000
        third order                    shell-resolved
        anisotropic                    true
        a3                             3.000000
        a5                             4.000000
        cn-shift                       1.200000
        cn-exp                         4.000000
        max-rad                        5.000000

      * Solvation model:               ALPB
        Solvent                        water
        Parameter file                 internal GFN2-xTB/ALPB
        Dielectric constant                8.0200E+01
        Reference state                gsolv [1 M gas/solution]
        Free energy shift                  1.0808E-03 Eh       6.7819E-01 kcal/mol
        Temperature                        2.9815E+02 K
        Density                            1.0000E+00 kg/L
        Solvent mass                       1.8000E+01 g/mol
        Interaction kernel             P16
        Born radius scaling (c1)           1.4744E+00
        Born radii integrator          GBOBC
        Born offset                        0.0000E+00 a0       0.0000E+00 AA
        H-bond correction              true
        Ion screening                  false
        Surface tension                    1.0000E-05 Eh       1.5569E+01 dyn/cm
        Grid points                               230 per atom

          ...................................................
          :                      SETUP                      :
          :.................................................:
          :  # basis functions                 437          :
          :  # atomic orbitals                 428          :
          :  # shells                          224          :
          :  # electrons                       416          :
          :  max. iterations                   250          :
          :  Hamiltonian                  GFN2-xTB          :
          :  restarted?                      false          :
          :  GBSA solvation                   true          :
          :  PC potential                    false          :
          :  electronic temp.          300.0000000     K    :
          :  accuracy                    1.0000000          :
          :  -> integral cutoff          0.2500000E+02      :
          :  -> integral neglect         0.1000000E-07      :
          :  -> SCF convergence          0.1000000E-05 Eh   :
          :  -> wf. convergence          0.1000000E-03 e    :
          :  Broyden damping             0.4000000          :
          ...................................................

 iter      E             dE          RMSdq      gap      omega  full diag
   1   -229.8107526 -0.229811E+03  0.411E+00    0.97       0.0  T
   2   -229.9488199 -0.138067E+00  0.236E+00    0.93       1.0  T
   3   -229.8874782  0.613417E-01  0.114E+00    0.97       1.0  T
   4   -229.9764533 -0.889751E-01  0.424E-01    0.92       1.0  T
   5   -229.9880027 -0.115494E-01  0.197E-01    0.93       1.0  T
   6   -229.9904889 -0.248616E-02  0.742E-02    0.91       1.0  T
   7   -229.9908022 -0.313343E-03  0.334E-02    0.92       1.0  T
   8   -229.9908427 -0.404990E-04  0.186E-02    0.91       1.0  T
   9   -229.9908543 -0.115924E-04  0.110E-02    0.92       1.0  T
  10   -229.9908563 -0.196691E-05  0.725E-03    0.91       1.2  T
  11   -229.9908588 -0.252413E-05  0.392E-03    0.92       2.2  T
  12   -229.9908591 -0.347033E-06  0.253E-03    0.91       3.4  T
  13   -229.9908594 -0.279731E-06  0.120E-03    0.91       7.3  T
  14   -229.9908595 -0.717069E-07  0.558E-04    0.91      15.7  T
  15   -229.9908595 -0.100061E-07  0.277E-04    0.91      31.6  T

   *** convergence criteria satisfied after 15 iterations ***

         #    Occupation            Energy/Eh            Energy/eV
      -------------------------------------------------------------
         1        2.0000           -0.7502122             -20.4143
       ...           ...                  ...                  ...
       202        2.0000           -0.3726670             -10.1408
       203        2.0000           -0.3711008             -10.0982
       204        2.0000           -0.3694747             -10.0539
       205        2.0000           -0.3666426              -9.9769
       206        2.0000           -0.3664188              -9.9708
       207        2.0000           -0.3649881              -9.9318
       208        2.0000           -0.3556098              -9.6766 (HOMO)
       209                         -0.3219878              -8.7617 (LUMO)
       210                         -0.3124570              -8.5024
       211                         -0.3012708              -8.1980
       212                         -0.2942943              -8.0082
       213                         -0.2760627              -7.5120
       ...                                ...                  ...
       428                          0.7144571              19.4414
      -------------------------------------------------------------
                  HL-Gap            0.0336220 Eh            0.9149 eV
             Fermi-level           -0.3387988 Eh           -9.2192 eV

 SCC (total)                   0 d,  0 h,  0 min,  0.366 sec
 SCC setup                      ...        0 min,  0.003 sec (  0.836%)
 Dispersion                     ...        0 min,  0.005 sec (  1.446%)
 classical contributions        ...        0 min,  0.000 sec (  0.054%)
 integral evaluation            ...        0 min,  0.020 sec (  5.546%)
 iterations                     ...        0 min,  0.279 sec ( 76.177%)
 molecular gradient             ...        0 min,  0.057 sec ( 15.518%)
 printout                       ...        0 min,  0.001 sec (  0.400%)

         :::::::::::::::::::::::::::::::::::::::::::::::::::::
         ::                     SUMMARY                     ::
         :::::::::::::::::::::::::::::::::::::::::::::::::::::
         :: total energy            -226.717202569430 Eh    ::
         :: total w/o Gsasa/hb      -226.706939244754 Eh    ::
         :: gradient norm              0.015616100665 Eh/a0 ::
         :: HOMO-LUMO gap              0.914902032215 eV    ::
         ::.................................................::
         :: SCC energy              -229.990859494795 Eh    ::
         :: -> isotropic ES            0.153695301162 Eh    ::
         :: -> anisotropic ES         -0.004849928045 Eh    ::
         :: -> anisotropic XC          0.121192898387 Eh    ::
         :: -> dispersion             -0.257828321941 Eh    ::
         :: -> Gsolv                  -0.028060689975 Eh    ::
         ::    -> Gelec               -0.017797365300 Eh    ::
         ::    -> Gsasa               -0.002386042653 Eh    ::
         ::    -> Ghb                 -0.008958041721 Eh    ::
         ::    -> Gshift               0.001080759698 Eh    ::
         :: repulsion energy           3.264723016597 Eh    ::
         :: add. restraining           0.000000000000 Eh    ::
         :: total charge               0.000000000001 e     ::
         :::::::::::::::::::::::::::::::::::::::::::::::::::::

           -------------------------------------------------
          |                Property Printout                |
           -------------------------------------------------

    * Orbital Energies and Occupations

         #    Occupation            Energy/Eh            Energy/eV
      -------------------------------------------------------------
         1        2.0000           -0.7502122             -20.4143
       ...           ...                  ...                  ...
       196        2.0000           -0.3924037             -10.6778
       197        2.0000           -0.3872443             -10.5375
       198        2.0000           -0.3856710             -10.4946
       199        2.0000           -0.3818962             -10.3919
       200        2.0000           -0.3793996             -10.3240
       201        2.0000           -0.3752642             -10.2115
       202        2.0000           -0.3726670             -10.1408
       203        2.0000           -0.3711008             -10.0982
       204        2.0000           -0.3694747             -10.0539
       205        2.0000           -0.3666426              -9.9769
       206        2.0000           -0.3664188              -9.9708
       207        2.0000           -0.3649881              -9.9318
       208        2.0000           -0.3556098              -9.6766 (HOMO)
       209                         -0.3219878              -8.7617 (LUMO)
       210                         -0.3124570              -8.5024
       211                         -0.3012708              -8.1980
       212                         -0.2942943              -8.0082
       213                         -0.2760627              -7.5120
       214                         -0.2673933              -7.2761
       215                         -0.2637553              -7.1771
       216                         -0.2546029              -6.9281
       217                         -0.2478868              -6.7453
       218                         -0.2436426              -6.6299
       219                         -0.2432639              -6.6195
       ...                                ...                  ...
       428                          0.7144571              19.4414
      -------------------------------------------------------------
                  HL-Gap            0.0336220 Eh            0.9149 eV
             Fermi-level           -0.3387988 Eh           -9.2192 eV

     #   Z          covCN         q      C6AA      α(0)
     1   6 C        2.935    -0.015    28.375     8.736
     2  16 S        2.249    -0.050   143.143    20.137
     3   6 C        3.005     0.023    27.484     8.600
     4   6 C        2.934    -0.050    29.247     8.869
     5   6 C        3.135     0.000    27.801     8.631
     6   6 C        3.065    -0.056    29.313     8.878
     7   6 C        3.018     0.026    27.403     8.587
     8  16 S        2.276    -0.080   144.365    20.222
     9   6 C        3.004     0.030    27.327     8.575
    10   6 C        2.934    -0.048    29.191     8.861
    11   6 C        3.145    -0.002    27.816     8.629
    12   6 C        3.068    -0.054    29.280     8.873
    13   6 C        3.018     0.024    27.453     8.595
    14  16 S        2.272    -0.068   143.873    20.188
    15   6 C        3.003     0.031    27.298     8.571
    16   6 C        2.935    -0.050    29.252     8.870
    17   6 C        3.134     0.005    27.681     8.612
    18   6 C        3.058    -0.059    29.414     8.894
    19   6 C        3.024     0.034    27.213     8.557
    20  16 S        2.306    -0.084   144.560    20.236
    21   6 C        3.002     0.033    27.257     8.564
    22   6 C        2.934    -0.045    29.124     8.851
    23   6 C        3.132    -0.002    27.852     8.640
    24   6 C        3.062    -0.052    29.227     8.865
    25   6 C        3.010    -0.009    28.221     8.714
    26  16 S        2.432     0.003   140.930    19.980
    27   6 C        2.980     0.013    27.721     8.636
    28   6 C        3.166     0.052    26.484     8.410
    29   6 C        3.166     0.059    26.333     8.386
    30   7 N        1.833    -0.303    28.712     7.940
    31   6 C        2.863     0.222    23.330     7.917
    32   8 O        1.705    -0.273    18.520     5.810
    33   6 C        3.701     0.071    19.537     6.321
    34   6 C        3.750    -0.127    23.008     6.841
    35   6 C        2.953     0.072    26.383     8.425
    36   6 C        3.738     0.013    20.442     6.452
    37   7 N        2.631    -0.380    29.836     8.112
    38   7 N        1.839    -0.246    27.278     7.740
    39   6 C        2.932    -0.032    28.793     8.800
    40   6 C        2.935    -0.037    28.928     8.821
    41   6 C        2.994     0.042    27.044     8.531
    42  16 S        2.281    -0.111   145.693    20.315
    43   6 C        3.003     0.032    27.279     8.568
    44   6 C        2.936    -0.050    29.240     8.868
    45   6 C        3.132     0.002    27.770     8.627
    46   6 C        3.056    -0.062    29.485     8.905
    47   6 C        3.013     0.027    27.372     8.582
    48  16 S        2.287    -0.060   143.536    20.164
    49   6 C        3.003     0.028    27.370     8.582
    50   6 C        2.935    -0.048    29.192     8.861
    51   6 C        3.135     0.004    27.711     8.616
    52   6 C        3.061    -0.058    29.385     8.889
    53   6 C        3.020    -0.010    28.248     8.718
    54  16 S        2.354    -0.026   142.123    20.065
    55   6 C        2.977     0.011    27.758     8.642
    56   6 C        3.143     0.049    26.655     8.448
    57   6 C        3.167     0.063    26.241     8.370
    58   7 N        1.851    -0.299    28.589     7.925
    59   6 C        2.866     0.223    23.316     7.915
    60   8 O        1.705    -0.268    18.442     5.798
    61   6 C        3.701     0.068    19.585     6.328
    62   6 C        3.750    -0.127    23.003     6.840
    63   6 C        2.951     0.062    26.617     8.462
    64   6 C        3.739     0.004    20.588     6.474
    65   7 N        2.629    -0.348    28.969     7.994
    66   7 N        1.840    -0.249    27.349     7.750
    67   6 C        2.939    -0.041    29.016     8.834
    68   6 C        2.930    -0.036    28.889     8.815
    69   6 C        2.977    -0.000    28.033     8.685
    70  16 S        2.344    -0.006   141.310    20.007
    71   6 C        2.976     0.010    27.785     8.646
    72   6 C        3.162     0.049    26.581     8.427
    73   6 C        3.155     0.060    26.376     8.398
    74   7 N        1.833    -0.315    29.002     7.981
    75   6 C        2.871     0.219    23.400     7.930
    76   8 O        1.706    -0.265    18.396     5.791
    77   6 C        3.704     0.077    19.443     6.304
    78   6 C        3.751    -0.132    23.100     6.854
    79   6 C        2.954     0.064    26.566     8.454
    80   6 C        3.739     0.007    20.532     6.466
    81   7 N        2.629    -0.365    29.407     8.054
    82   7 N        1.840    -0.255    27.485     7.769
    83   6 C        2.915    -0.030    28.756     8.793
    84   6 C        2.841    -0.093    30.326     9.025
    85   1 H        0.926     0.073     2.050     2.239
    86   1 H        0.926     0.052     2.299     2.371
    87   1 H        0.926     0.058     2.225     2.333
    88   1 H        0.926     0.053     2.279     2.361
    89   1 H        0.926     0.053     2.282     2.362
    90   1 H        0.926     0.064     2.148     2.292
    91   1 H        0.926     0.064     2.150     2.293
    92   1 H        0.926     0.044     2.402     2.424
    93   1 H        0.926     0.028     2.621     2.532
    94   1 H        0.924     0.053     2.277     2.360
    95   1 H        0.924     0.078     1.996     2.209
    96   1 H        0.925     0.069     2.094     2.263
    97   1 H        0.925     0.055     2.261     2.351
    98   1 H        0.925     0.060     2.194     2.316
    99   1 H        0.922     0.047     2.359     2.402
   100   1 H        0.924     0.068     2.107     2.270
   101   1 H        0.860     0.179     1.222     1.732
   102   1 H        0.860     0.180     1.217     1.728
   103   1 H        0.926     0.083     1.949     2.183
   104   1 H        0.926     0.083     1.952     2.185
   105   1 H        0.926     0.041     2.434     2.440
   106   1 H        0.926     0.041     2.437     2.441
   107   1 H        0.926     0.064     2.147     2.292
   108   1 H        0.926     0.066     2.135     2.285
   109   1 H        0.924     0.059     2.216     2.328
   110   1 H        0.924     0.080     1.978     2.200
   111   1 H        0.925     0.053     2.287     2.365
   112   1 H        0.925     0.062     2.178     2.308
   113   1 H        0.925     0.071     2.074     2.252
   114   1 H        0.924     0.074     2.038     2.232
   115   1 H        0.924     0.071     2.079     2.255
   116   1 H        0.860     0.161     1.327     1.805
   117   1 H        0.860     0.153     1.380     1.840
   118   1 H        0.925     0.056     2.250     2.346
   119   1 H        0.926     0.076     2.016     2.220
   120   1 H        0.924     0.051     2.308     2.376
   121   1 H        0.924     0.062     2.178     2.308
   122   1 H        0.925     0.066     2.131     2.283
   123   1 H        0.925     0.066     2.134     2.284
   124   1 H        0.925     0.076     2.018     2.222
   125   1 H        0.924     0.070     2.091     2.261
   126   1 H        0.924     0.067     2.124     2.279
   127   1 H        0.860     0.173     1.255     1.755
   128   1 H        0.860     0.161     1.328     1.805
   129   1 H        0.925     0.070     2.088     2.260
   130   1 H        0.926     0.070     2.080     2.255
   131   1 H        0.926     0.062     2.173     2.305

 Mol. C6AA /au·bohr⁶  :     314256.328480
 Mol. C8AA /au·bohr⁸  :    9104971.704627
 Mol. α(0) /au        :        900.022174


Wiberg/Mayer (AO) data.
largest (>0.10) Wiberg bond orders for each atom

 ---------------------------------------------------------------------------
     #   Z sym  total        # sym  WBO       # sym  WBO       # sym  WBO
 ---------------------------------------------------------------------------
     1   6 C    3.933 --    12 C    1.682     2 S    1.150    85 H    0.965
     2  16 S    2.529 --     1 C    1.150     3 C    1.100
     3   6 C    3.958 --     4 C    1.433    11 C    1.248     2 S    1.100
     4   6 C    3.969 --     3 C    1.433     5 C    1.344    86 H    0.965
                            10 C    0.105
     5   6 C    3.986 --     4 C    1.344     9 C    1.236     6 C    1.215
     6   6 C    3.954 --     7 C    1.558     5 C    1.215    87 H    0.957
     7   6 C    3.943 --     6 C    1.558    13 C    1.156     8 S    1.076
     8  16 S    2.486 --     9 C    1.094     7 C    1.076
     9   6 C    3.949 --    10 C    1.438     5 C    1.236     8 S    1.094
    10   6 C    3.987 --     9 C    1.438    11 C    1.349    88 H    0.963
                             4 C    0.105
    11   6 C    3.974 --    10 C    1.349     3 C    1.248    12 C    1.190
    12   6 C    3.981 --     1 C    1.682    11 C    1.190    89 H    0.961
    13   6 C    3.937 --    24 C    1.552     7 C    1.156    14 S    1.082
    14  16 S    2.474 --    15 C    1.093    13 C    1.082
    15   6 C    3.950 --    16 C    1.442    23 C    1.236    14 S    1.093
    16   6 C    3.960 --    15 C    1.442    17 C    1.335    90 H    0.963
    17   6 C    3.975 --    16 C    1.335    18 C    1.228    21 C    1.228
    18   6 C    3.965 --    19 C    1.526    17 C    1.228    91 H    0.955
    19   6 C    3.939 --    18 C    1.526    25 C    1.182    20 S    1.081
    20  16 S    2.474 --    21 C    1.094    19 C    1.081
    21   6 C    3.944 --    22 C    1.447    17 C    1.228    20 S    1.094
    22   6 C    3.969 --    21 C    1.447    23 C    1.333    92 H    0.965
    23   6 C    3.970 --    22 C    1.333    15 C    1.236    24 C    1.221
    24   6 C    3.957 --    13 C    1.552    23 C    1.221    93 H    0.960
    25   6 C    3.940 --    29 C    1.350    19 C    1.182    26 S    1.148
    26  16 S    2.669 --    27 C    1.181    25 C    1.148
    27   6 C    3.912 --    28 C    1.379    26 S    1.181    39 C    1.085
    28   6 C    3.977 --    27 C    1.379    38 N    1.225    29 C    1.151
    29   6 C    3.962 --    25 C    1.350    30 N    1.230    28 C    1.151
    30   7 N    3.043 --    31 C    1.496    29 C    1.230    32 O    0.106
    31   6 C    3.929 --    30 N    1.496    32 O    1.127    35 C    1.114
    32   8 O    2.272 --    31 C    1.127    33 C    0.932    30 N    0.106
    33   6 C    3.916 --    34 C    1.011    95 H    0.969    94 H    0.967
                            32 O    0.932
    34   6 C    3.988 --    33 C    1.011    98 H    0.985    97 H    0.983
                            96 H    0.981
    35   6 C    3.968 --    38 N    1.587    31 C    1.114    36 C    1.016
    36   6 C    3.987 --    37 N    1.035    35 C    1.016   100 H    0.950
                            99 H    0.934
    37   7 N    2.997 --    36 C    1.035   102 H    0.956   101 H    0.947
    38   7 N    3.066 --    35 C    1.587    28 C    1.225
    39   6 C    3.975 --    40 C    1.830    27 C    1.085   103 H    0.947
    40   6 C    3.961 --    39 C    1.830    41 C    1.055   104 H    0.949
    41   6 C    3.924 --    52 C    1.636    42 S    1.074    40 C    1.055
    42  16 S    2.476 --    43 C    1.089    41 C    1.074
    43   6 C    3.952 --    44 C    1.446    51 C    1.239    42 S    1.089
    44   6 C    3.959 --    43 C    1.446    45 C    1.329   105 H    0.966
    45   6 C    3.982 --    44 C    1.329    46 C    1.234    49 C    1.233
    46   6 C    3.926 --    47 C    1.509    45 C    1.234   106 H    0.960
    47   6 C    3.948 --    46 C    1.509    53 C    1.204    48 S    1.079
    48  16 S    2.518 --    49 C    1.094    47 C    1.079
    49   6 C    3.943 --    50 C    1.436    45 C    1.233    48 S    1.094
    50   6 C    3.979 --    49 C    1.436    51 C    1.350   107 H    0.963
    51   6 C    3.965 --    50 C    1.350    43 C    1.239    52 C    1.190
    52   6 C    3.975 --    41 C    1.636    51 C    1.190   108 H    0.958
    53   6 C    3.895 --    57 C    1.327    47 C    1.204    54 S    1.130
    54  16 S    2.569 --    55 C    1.138    53 C    1.130
    55   6 C    3.919 --    56 C    1.295    67 C    1.261    54 S    1.138
    56   6 C    3.948 --    55 C    1.295    66 N    1.251    57 C    1.180
    57   6 C    3.963 --    53 C    1.327    58 N    1.236    56 C    1.180
    58   7 N    3.069 --    59 C    1.477    57 C    1.236    60 O    0.106
    59   6 C    3.922 --    58 N    1.477    60 O    1.135    63 C    1.125
    60   8 O    2.277 --    59 C    1.135    61 C    0.930    58 N    0.106
    61   6 C    3.913 --    62 C    1.011   110 H    0.969   109 H    0.967
                            60 O    0.930
    62   6 C    3.986 --    61 C    1.011   112 H    0.985   111 H    0.984
                           113 H    0.980
    63   6 C    3.951 --    66 N    1.567    59 C    1.125    64 C    1.000
    64   6 C    3.984 --    65 N    1.038    63 C    1.000   115 H    0.949
                           114 H    0.945
    65   7 N    3.006 --    64 C    1.038   116 H    0.956   117 H    0.955
    66   7 N    3.066 --    63 C    1.567    56 C    1.251
    67   6 C    3.949 --    68 C    1.553    55 C    1.261   118 H    0.956
    68   6 C    3.953 --    67 C    1.553    69 C    1.264   119 H    0.945
    69   6 C    3.944 --    73 C    1.308    68 C    1.264    70 S    1.123
    70  16 S    2.608 --    71 C    1.163    69 C    1.123
    71   6 C    3.889 --    72 C    1.335    83 C    1.170    70 S    1.163
    72   6 C    3.976 --    71 C    1.335    82 N    1.229    73 C    1.181
    73   6 C    3.941 --    69 C    1.308    74 N    1.240    72 C    1.181
    74   7 N    3.029 --    75 C    1.480    73 C    1.240    76 O    0.107
    75   6 C    3.915 --    74 N    1.480    76 O    1.137    79 C    1.119
    76   8 O    2.274 --    75 C    1.137    77 C    0.928    74 N    0.107
    77   6 C    3.915 --    78 C    1.018   120 H    0.966   121 H    0.962
                            76 O    0.928
    78   6 C    3.986 --    77 C    1.018   122 H    0.984   123 H    0.984
                           124 H    0.980
    79   6 C    3.955 --    82 N    1.586    75 C    1.119    80 C    0.999
    80   6 C    3.986 --    81 N    1.040    79 C    0.999   126 H    0.947
                           125 H    0.946
    81   7 N    3.002 --    80 C    1.040   128 H    0.956   127 H    0.955
    82   7 N    3.052 --    79 C    1.586    72 C    1.229
    83   6 C    3.987 --    84 C    1.820    71 C    1.170   129 H    0.953
    84   6 C    3.908 --    83 C    1.820   130 H    0.975   131 H    0.970
    85   1 H    0.994 --     1 C    0.965
    86   1 H    0.997 --     4 C    0.965
    87   1 H    0.996 --     6 C    0.957
    88   1 H    0.997 --    10 C    0.963
    89   1 H    0.997 --    12 C    0.961
    90   1 H    0.995 --    16 C    0.963
    91   1 H    0.995 --    18 C    0.955
    92   1 H    0.998 --    22 C    0.965
    93   1 H    0.999 --    24 C    0.960
    94   1 H    0.996 --    33 C    0.967
    95   1 H    0.993 --    33 C    0.969
    96   1 H    0.995 --    34 C    0.981
    97   1 H    0.997 --    34 C    0.983
    98   1 H    0.996 --    34 C    0.985
    99   1 H    0.990 --    36 C    0.934
   100   1 H    0.991 --    36 C    0.950
   101   1 H    0.968 --    37 N    0.947
   102   1 H    0.967 --    37 N    0.956
   103   1 H    0.989 --    39 C    0.947
   104   1 H    0.988 --    40 C    0.949
   105   1 H    0.998 --    44 C    0.966
   106   1 H    0.998 --    46 C    0.960
   107   1 H    0.995 --    50 C    0.963
   108   1 H    0.995 --    52 C    0.958
   109   1 H    0.996 --    61 C    0.967
   110   1 H    0.993 --    61 C    0.969
   111   1 H    0.997 --    62 C    0.984
   112   1 H    0.996 --    62 C    0.985
   113   1 H    0.994 --    62 C    0.980
   114   1 H    0.989 --    64 C    0.945
   115   1 H    0.990 --    64 C    0.949
   116   1 H    0.974 --    65 N    0.956
   117   1 H    0.976 --    65 N    0.955
   118   1 H    0.996 --    67 C    0.956
   119   1 H    0.994 --    68 C    0.945
   120   1 H    0.996 --    77 C    0.966
   121   1 H    0.995 --    77 C    0.962
   122   1 H    0.996 --    78 C    0.984
   123   1 H    0.996 --    78 C    0.984
   124   1 H    0.993 --    78 C    0.980
   125   1 H    0.990 --    80 C    0.946
   126   1 H    0.991 --    80 C    0.947
   127   1 H    0.970 --    81 N    0.955
   128   1 H    0.974 --    81 N    0.956
   129   1 H    0.995 --    83 C    0.953
   130   1 H    0.994 --    84 C    0.975
   131   1 H    0.996 --    84 C    0.970
 ---------------------------------------------------------------------------

Topologies differ in bond orders
Writing corrected topology to xtbtopo.mol

molecular dipole:
                 x           y           z       tot (Debye)
 q only:       -0.237       0.447      -0.163
   full:       -0.455      -0.119       0.144       1.250
molecular quadrupole (traceless):
                xx          xy          yy          xz          yz          zz
 q only:       -4.727     -38.812     -18.438     -14.690     -23.210      23.164
  q+dip:        4.083     -34.017       2.825      -5.721     -26.123      -6.908
   full:        7.547     -24.178       4.176      -2.840     -22.185     -11.723


           -------------------------------------------------
          | TOTAL ENERGY             -226.717202569430 Eh   |
          | GRADIENT NORM               0.015616100665 Eh/α |
          | HOMO-LUMO GAP               0.914902032215 eV   |
           -------------------------------------------------

------------------------------------------------------------------------
 * finished run on 2022/02/28 at 20:35:48.076     
------------------------------------------------------------------------
 total:
 * wall-time:     0 d,  0 h,  0 min,  0.657 sec
 *  cpu-time:     0 d,  0 h,  0 min,  4.517 sec
 * ratio c/w:     6.874 speedup
 SCF:
 * wall-time:     0 d,  0 h,  0 min,  0.369 sec
 *  cpu-time:     0 d,  0 h,  0 min,  2.942 sec
 * ratio c/w:     7.980 speedup

