      -----------------------------------------------------------      
     |                   =====================                   |     
     |                           x T B                           |     
     |                   =====================                   |     
     |                         S. Grimme                         |     
     |          Mulliken Center for Theoretical Chemistry        |     
     |                    University of Bonn                     |     
      -----------------------------------------------------------      

   * xtb version 6.4.1 (unknown) compiled by 'oda6@login1.crc.pitt.edu' on 2021-06-25

   xtb is free software: you can redistribute it and/or modify it under
   the terms of the GNU Lesser General Public License as published by
   the Free Software Foundation, either version 3 of the License, or
   (at your option) any later version.
   
   xtb is distributed in the hope that it will be useful,
   but WITHOUT ANY WARRANTY; without even the implied warranty of
   MERCHANTABILITY or FITNESS FOR A PARTICULAR PURPOSE.  See the
   GNU Lesser General Public License for more details.
   
   Cite this work as:
   * C. Bannwarth, E. Caldeweyher, S. Ehlert, A. Hansen, P. Pracht,
     J. Seibert, S. Spicher, S. Grimme, WIREs Comput. Mol. Sci., 2020, 11,
     e01493. DOI: 10.1002/wcms.1493
   
   for GFN2-xTB:
   * C. Bannwarth, S. Ehlert and S. Grimme., J. Chem. Theory Comput., 2019,
     15, 1652-1671. DOI: 10.1021/acs.jctc.8b01176
   for GFN1-xTB:
   * S. Grimme, C. Bannwarth, P. Shushkov, J. Chem. Theory Comput., 2017,
     13, 1989-2009. DOI: 10.1021/acs.jctc.7b00118
   for GFN0-xTB:
   * P. Pracht, E. Caldeweyher, S. Ehlert, S. Grimme, ChemRxiv, 2019, preprint.
     DOI: 10.26434/chemrxiv.8326202.v1
   for GFN-FF:
   * S. Spicher and S. Grimme, Angew. Chem. Int. Ed., 2020, 59, 15665-15673.
     DOI: 10.1002/anie.202004239
   
   for DFT-D4:
   * E. Caldeweyher, C. Bannwarth and S. Grimme, J. Chem. Phys., 2017,
     147, 034112. DOI: 10.1063/1.4993215
   * E. Caldeweyher, S. Ehlert, A. Hansen, H. Neugebauer, S. Spicher,
     C. Bannwarth and S. Grimme, J. Chem. Phys., 2019, 150, 154122.
     DOI: 10.1063/1.5090222
   * E. Caldeweyher, J.-M. Mewes, S. Ehlert and S. Grimme, Phys. Chem. Chem. Phys.
     2020, 22, 8499-8512. DOI: 10.1039/D0CP00502A
   
   for sTDA-xTB:
   * S. Grimme and C. Bannwarth, J. Chem. Phys., 2016, 145, 054103.
     DOI: 10.1063/1.4959605
   
   in the mass-spec context:
   * V. Asgeirsson, C. Bauer and S. Grimme, Chem. Sci., 2017, 8, 4879.
     DOI: 10.1039/c7sc00601b
   * J. Koopman and S. Grimme, ACS Omega 2019, 4, 12, 15120-15133.
     DOI: 10.1021/acsomega.9b02011
   
   for metadynamics refer to:
   * S. Grimme, J. Chem. Theory Comput., 2019, 155, 2847-2862
     DOI: 10.1021/acs.jctc.9b00143
   
   for SPH calculations refer to:
   * S. Spicher and S. Grimme, J. Chem. Theory Comput., 2021, 17, 1701-1714
     DOI: 10.1021/acs.jctc.0c01306
   
   with help from (in alphabetical order)
   P. Atkinson, C. Bannwarth, F. Bohle, G. Brandenburg, E. Caldeweyher
   M. Checinski, S. Dohm, S. Ehlert, S. Ehrlich, I. Gerasimov, J. Koopman
   C. Lavigne, S. Lehtola, F. März, M. Müller, F. Musil, H. Neugebauer
   J. Pisarek, C. Plett, P. Pracht, J. Seibert, P. Shushkov, S. Spicher
   M. Stahn, M. Steiner, T. Strunk, J. Stückrath, T. Rose, and J. Unsleber
   
 * started run on 2022/02/11 at 01:19:15.285     

           -------------------------------------------------
          |                Calculation Setup                |
           -------------------------------------------------

          program call               : /ihome/ghutchison/oda6/xtb/xtb-641/bin/xtb ../../FF_optimized/15_89_86_89_9.mol -opt
          hostname                   : smp-n25
          coordinate file            : ../../FF_optimized/15_89_86_89_9.mol
          omp threads                :                     8
          number of atoms            :                   136
          number of electrons        :                   454
          charge                     :                     0
          spin                       :                   0.0
          first test random number   :      0.54570433981012

   ID    Z sym.   atoms
    1    6 C      1-3, 5-14, 16, 18, 21, 23-33, 35-38, 42, 43, 45-55, 57, 58,
                  60, 61, 63, 64, 66-70, 73, 75-77, 79-84, 86-92, 94
    2    8 O      4, 78
    3    7 N      15, 17, 19, 20, 39, 41, 59, 62, 71, 72, 93, 95
    4   16 S      22, 34, 40, 44, 56, 65, 74
    5    9 F      85
    6    1 H      96-136
########################################################################
[WARNING] Please study the warnings concerning your input carefully
-1- prog_main_parseArguments: the use of '-opt' is discouraged, please use '--opt' next time
########################################################################

           -------------------------------------------------
          |                 G F N 2 - x T B                 |
           -------------------------------------------------

        Reference                      10.1021/acs.jctc.8b01176
      * Hamiltonian:
        H0-scaling (s, p, d)           1.850000    2.230000    2.230000
        zeta-weighting                 0.500000
      * Dispersion:
        s8                             2.700000
        a1                             0.520000
        a2                             5.000000
        s9                             5.000000
      * Repulsion:
        kExp                           1.500000    1.000000
        rExp                           1.000000
      * Coulomb:
        alpha                          2.000000
        third order                    shell-resolved
        anisotropic                    true
        a3                             3.000000
        a5                             4.000000
        cn-shift                       1.200000
        cn-exp                         4.000000
        max-rad                        5.000000


          ...................................................
          :                      SETUP                      :
          :.................................................:
          :  # basis functions                 463          :
          :  # atomic orbitals                 456          :
          :  # shells                          238          :
          :  # electrons                       454          :
          :  max. iterations                   250          :
          :  Hamiltonian                  GFN2-xTB          :
          :  restarted?                      false          :
          :  GBSA solvation                  false          :
          :  PC potential                    false          :
          :  electronic temp.          300.0000000     K    :
          :  accuracy                    1.0000000          :
          :  -> integral cutoff          0.2500000E+02      :
          :  -> integral neglect         0.1000000E-07      :
          :  -> SCF convergence          0.1000000E-05 Eh   :
          :  -> wf. convergence          0.1000000E-03 e    :
          :  Broyden damping             0.4000000          :
          ...................................................

 iter      E             dE          RMSdq      gap      omega  full diag
   1   -250.9862649 -0.250986E+03  0.484E+00    1.21       0.0  T
   2   -251.1600955 -0.173831E+00  0.303E+00    0.76       1.0  T
   3   -250.9900131  0.170082E+00  0.204E+00    0.65       1.0  T
   4   -251.3382514 -0.348238E+00  0.741E-01    0.77       1.0  T
   5   -251.3919192 -0.536678E-01  0.233E-01    0.55       1.0  T
   6   -251.3953846 -0.346537E-02  0.120E-01    0.64       1.0  T
   7   -251.3963174 -0.932794E-03  0.480E-02    0.64       1.0  T
   8   -251.3964906 -0.173191E-03  0.222E-02    0.63       1.0  T
   9   -251.3965098 -0.191702E-04  0.111E-02    0.63       1.0  T
  10   -251.3965183 -0.854056E-05  0.480E-03    0.63       1.8  T
  11   -251.3965195 -0.116293E-05  0.223E-03    0.63       3.8  T
  12   -251.3965197 -0.208838E-06  0.120E-03    0.63       7.1  T
  13   -251.3965197 -0.711599E-07  0.571E-04    0.63      15.0  T
  14   -251.3965198 -0.145118E-07  0.297E-04    0.63      28.8  T

   *** convergence criteria satisfied after 14 iterations ***

         #    Occupation            Energy/Eh            Energy/eV
      -------------------------------------------------------------
         1        2.0000           -0.8383745             -22.8133
       ...           ...                  ...                  ...
       221        2.0000           -0.3977513             -10.8234
       222        2.0000           -0.3963095             -10.7841
       223        2.0000           -0.3943805             -10.7316
       224        2.0000           -0.3895125             -10.5992
       225        2.0000           -0.3836995             -10.4410
       226        2.0000           -0.3760510             -10.2329
       227        2.0000           -0.3704605             -10.0807 (HOMO)
       228        0.0000           -0.3473084              -9.4507 (LUMO)
       229                         -0.3379968              -9.1974
       230                         -0.3337041              -9.0806
       231                         -0.3292170              -8.9585
       232                         -0.3109022              -8.4601
       ...                                ...                  ...
       456                          1.0694784              29.1020
      -------------------------------------------------------------
                  HL-Gap            0.0231520 Eh            0.6300 eV
             Fermi-level           -0.3588831 Eh           -9.7657 eV

 SCC (total)                   0 d,  0 h,  0 min,  0.381 sec
 SCC setup                      ...        0 min,  0.002 sec (  0.437%)
 Dispersion                     ...        0 min,  0.005 sec (  1.379%)
 classical contributions        ...        0 min,  0.000 sec (  0.052%)
 integral evaluation            ...        0 min,  0.018 sec (  4.804%)
 iterations                     ...        0 min,  0.297 sec ( 77.938%)
 molecular gradient             ...        0 min,  0.057 sec ( 14.939%)
 printout                       ...        0 min,  0.002 sec (  0.428%)

         :::::::::::::::::::::::::::::::::::::::::::::::::::::
         ::                     SUMMARY                     ::
         :::::::::::::::::::::::::::::::::::::::::::::::::::::
         :: total energy            -247.654746000315 Eh    ::
         :: gradient norm              0.320079389799 Eh/a0 ::
         :: HOMO-LUMO gap              0.629999086321 eV    ::
         ::.................................................::
         :: SCC energy              -251.396519757261 Eh    ::
         :: -> isotropic ES            0.149856846044 Eh    ::
         :: -> anisotropic ES          0.022335287063 Eh    ::
         :: -> anisotropic XC          0.173338286690 Eh    ::
         :: -> dispersion             -0.220977578672 Eh    ::
         :: repulsion energy           3.740145919441 Eh    ::
         :: add. restraining           0.000000000000 Eh    ::
         :: total charge               0.000000000000 e     ::
         :::::::::::::::::::::::::::::::::::::::::::::::::::::

      ----------------------------------------------------------- 
     |                   =====================                   |
     |                        A N C O P T                        |
     |                   =====================                   |
     |               Approximate Normal Coordinate               |
     |                Rational Function Optimizer                |
      ----------------------------------------------------------- 

          ...................................................
          :                      SETUP                      :
          :.................................................:
          :   optimization level            normal          :
          :   max. optcycles                   408          :
          :   ANC micro-cycles                  20          :
          :   degrees of freedom               402          :
          :.................................................:
          :   RF solver                   davidson          :
          :   write xtbopt.log                true          :
          :   linear?                        false          :
          :   energy convergence         0.5000000E-05 Eh   :
          :   grad. convergence          0.1000000E-02 Eh/α :
          :   maximium RF displ.         1.0000000          :
          :   Hlow (freq-cutoff)         0.1000000E-01      :
          :   Hmax (freq-cutoff)         5.0000000          :
          :   S6 in model hess.         20.0000000          :
          ...................................................

generating ANC from model Hessian ...
Using Lindh-Hessian (1995)
 Shifting diagonal of input Hessian by   1.009971476575374E-002
 Lowest  eigenvalues of input Hessian
    0.010000    0.010061    0.010088    0.000000    0.000000    0.000000
    0.000000    0.000000    0.000000    0.010111    0.010125    0.010144
    0.010172    0.010198    0.010226    0.010271    0.010312    0.010327
 Highest eigenvalues
    2.239500    2.249784    2.503217    2.504315    2.553207    2.558983
 

........................................................................
.............................. CYCLE    1 ..............................
........................................................................
   1   -251.3965198 -0.251397E+03  0.135E-04    0.63       0.0  T
   2   -251.3965198  0.370221E-09  0.121E-04    0.63      70.9  T
   3   -251.3965198 -0.181186E-08  0.556E-05    0.63     154.1  T
     SCC iter.                  ...        0 min,  0.067 sec
     gradient                   ...        0 min,  0.057 sec
 * total energy  :  -247.6547460 Eh     change       -0.6864241E-08 Eh
   gradient norm :     0.3200789 Eh/α   predicted     0.0000000E+00 (-100.00%)
   displ. norm   :     0.4798640 α      lambda       -0.1088365E+00
   maximum displ.:     0.1010086 α      in ANC's #135, #226, #245, ...

........................................................................
.............................. CYCLE    2 ..............................
........................................................................
   1   -251.5603226 -0.251560E+03  0.323E-01    0.65       0.0  T
   2   -251.5617720 -0.144940E-02  0.187E-01    0.65       1.0  T
   3   -251.5614814  0.290644E-03  0.936E-02    0.65       1.0  T
   4   -251.5619955 -0.514129E-03  0.482E-02    0.64       1.0  T
   5   -251.5622036 -0.208117E-03  0.187E-02    0.64       1.0  T
   6   -251.5622231 -0.195140E-04  0.779E-03    0.64       1.1  T
   7   -251.5622276 -0.444056E-05  0.376E-03    0.64       2.3  T
   8   -251.5622286 -0.977469E-06  0.173E-03    0.64       5.0  T
   9   -251.5622286 -0.807812E-07  0.885E-04    0.64       9.7  T
  10   -251.5622287 -0.700429E-07  0.359E-04    0.64      23.9  T
     SCC iter.                  ...        0 min,  0.212 sec
     gradient                   ...        0 min,  0.057 sec
 * total energy  :  -247.7349780 Eh     change       -0.8023199E-01 Eh
   gradient norm :     0.1590789 Eh/α   predicted    -0.6699947E-01 ( -16.49%)
   displ. norm   :     0.4877007 α      lambda       -0.4957240E-01
   maximum displ.:     0.1152437 α      in ANC's #135, #86, #133, ...

........................................................................
.............................. CYCLE    3 ..............................
........................................................................
   1   -251.6507172 -0.251651E+03  0.279E-01    0.63       0.0  T
   2   -251.6520745 -0.135724E-02  0.158E-01    0.66       1.0  T
   3   -251.6520318  0.426383E-04  0.794E-02    0.64       1.0  T
   4   -251.6522477 -0.215878E-03  0.448E-02    0.65       1.0  T
   5   -251.6524511 -0.203345E-03  0.151E-02    0.65       1.0  T
   6   -251.6524620 -0.109584E-04  0.627E-03    0.65       1.4  T
   7   -251.6524646 -0.258648E-05  0.318E-03    0.65       2.7  T
   8   -251.6524652 -0.646175E-06  0.137E-03    0.65       6.3  T
   9   -251.6524653 -0.658692E-07  0.746E-04    0.65      11.5  T
  10   -251.6524653 -0.362340E-07  0.348E-04    0.65      24.6  T
     SCC iter.                  ...        0 min,  0.217 sec
     gradient                   ...        0 min,  0.057 sec
 * total energy  :  -247.7656393 Eh     change       -0.3066132E-01 Eh
   gradient norm :     0.0523009 Eh/α   predicted    -0.3068166E-01 (   0.07%)
   displ. norm   :     0.5011911 α      lambda       -0.1332987E-01
   maximum displ.:     0.1348756 α      in ANC's #49, #82, #91, ...

........................................................................
.............................. CYCLE    4 ..............................
........................................................................
   1   -251.6722099 -0.251672E+03  0.240E-01    0.65       0.0  T
   2   -251.6724548 -0.244832E-03  0.136E-01    0.67       1.0  T
   3   -251.6720490  0.405761E-03  0.590E-02    0.65       1.0  T
   4   -251.6724919 -0.442864E-03  0.236E-02    0.67       1.0  T
   5   -251.6725737 -0.818555E-04  0.741E-03    0.67       1.2  T
   6   -251.6725753 -0.154961E-05  0.381E-03    0.67       2.3  T
   7   -251.6725764 -0.110110E-05  0.164E-03    0.67       5.2  T
   8   -251.6725765 -0.113417E-06  0.896E-04    0.67       9.6  T
   9   -251.6725765 -0.394585E-07  0.469E-04    0.67      18.3  T
     SCC iter.                  ...        0 min,  0.189 sec
     gradient                   ...        0 min,  0.056 sec
 * total energy  :  -247.7713439 Eh     change       -0.5704606E-02 Eh
   gradient norm :     0.0404785 Eh/α   predicted    -0.8339183E-02 (  46.18%)
   displ. norm   :     0.5834144 α      lambda       -0.1282860E-01
   maximum displ.:     0.1366450 α      in ANC's #86, #84, #49, ...

........................................................................
.............................. CYCLE    5 ..............................
........................................................................
   1   -251.6914094 -0.251691E+03  0.358E-01    0.66       0.0  T
   2   -251.6917270 -0.317540E-03  0.200E-01    0.69       1.0  T
   3   -251.6910431  0.683867E-03  0.739E-02    0.66       1.0  T
   4   -251.6918697 -0.826643E-03  0.178E-02    0.68       1.0  T
   5   -251.6919065 -0.367718E-04  0.772E-03    0.68       1.1  T
   6   -251.6919089 -0.238262E-05  0.375E-03    0.68       2.3  T
   7   -251.6919099 -0.103179E-05  0.149E-03    0.68       5.8  T
   8   -251.6919100 -0.531988E-07  0.895E-04    0.68       9.6  T
   9   -251.6919100 -0.287658E-07  0.506E-04    0.68      16.9  T
     SCC iter.                  ...        0 min,  0.189 sec
     gradient                   ...        0 min,  0.057 sec
 * total energy  :  -247.7753383 Eh     change       -0.3994415E-02 Eh
   gradient norm :     0.0386502 Eh/α   predicted    -0.8597567E-02 ( 115.24%)
   displ. norm   :     0.2917475 α      lambda       -0.4562910E-02
   maximum displ.:     0.0821410 α      in ANC's #45, #49, #29, ...

........................................................................
.............................. CYCLE    6 ..............................
........................................................................
   1   -251.6872454 -0.251687E+03  0.155E-01    0.67       0.0  T
   2   -251.6873164 -0.709932E-04  0.865E-02    0.68       1.0  T
   3   -251.6871883  0.128145E-03  0.347E-02    0.67       1.0  T
   4   -251.6873380 -0.149731E-03  0.106E-02    0.68       1.0  T
   5   -251.6873514 -0.134112E-04  0.352E-03    0.68       2.4  T
   6   -251.6873518 -0.415592E-06  0.182E-03    0.68       4.7  T
   7   -251.6873521 -0.311622E-06  0.640E-04    0.68      13.4  T
   8   -251.6873522 -0.213865E-07  0.310E-04    0.68      27.6  T
     SCC iter.                  ...        0 min,  0.172 sec
     gradient                   ...        0 min,  0.056 sec
 * total energy  :  -247.7779989 Eh     change       -0.2660562E-02 Eh
   gradient norm :     0.0283082 Eh/α   predicted    -0.2475644E-02 (  -6.95%)
   displ. norm   :     0.5511431 α      lambda       -0.6529857E-02
   maximum displ.:     0.1782115 α      in ANC's #27, #29, #41, ...

........................................................................
.............................. CYCLE    7 ..............................
........................................................................
   1   -251.6709482 -0.251671E+03  0.295E-01    0.68       0.0  T
   2   -251.6712026 -0.254338E-03  0.165E-01    0.70       1.0  T
   3   -251.6705504  0.652116E-03  0.767E-02    0.67       1.0  T
   4   -251.6713101 -0.759671E-03  0.196E-02    0.70       1.0  T
   5   -251.6713539 -0.438039E-04  0.662E-03    0.69       1.3  T
   6   -251.6713555 -0.154055E-05  0.345E-03    0.69       2.5  T
   7   -251.6713566 -0.109021E-05  0.127E-03    0.69       6.7  T
   8   -251.6713566 -0.906021E-07  0.579E-04    0.69      14.8  T
   9   -251.6713567 -0.186863E-07  0.257E-04    0.69      33.3  T
     SCC iter.                  ...        0 min,  0.190 sec
     gradient                   ...        0 min,  0.056 sec
 * total energy  :  -247.7771532 Eh     change        0.8457177E-03 Eh
   gradient norm :     0.0452876 Eh/α   predicted    -0.4256673E-02 (-603.32%)
   displ. norm   :     0.2580480 α      lambda       -0.6371735E-02
   maximum displ.:     0.0643179 α      in ANC's #20, #27, #16, ...

........................................................................
.............................. CYCLE    8 ..............................
........................................................................
   1   -251.6888609 -0.251689E+03  0.163E-01    0.68       0.0  T
   2   -251.6889353 -0.744308E-04  0.923E-02    0.69       1.0  T
   3   -251.6887026  0.232714E-03  0.442E-02    0.69       1.0  T
   4   -251.6889789 -0.276313E-03  0.998E-03    0.69       1.0  T
   5   -251.6889908 -0.119255E-04  0.399E-03    0.69       2.2  T
   6   -251.6889915 -0.621416E-06  0.199E-03    0.69       4.3  T
   7   -251.6889918 -0.307684E-06  0.784E-04    0.69      10.9  T
   8   -251.6889918 -0.293277E-07  0.433E-04    0.69      19.8  T
     SCC iter.                  ...        0 min,  0.172 sec
     gradient                   ...        0 min,  0.057 sec
 * total energy  :  -247.7809202 Eh     change       -0.3767035E-02 Eh
   gradient norm :     0.0232766 Eh/α   predicted    -0.3397991E-02 (  -9.80%)
   displ. norm   :     0.4343437 α      lambda       -0.2971945E-02
   maximum displ.:     0.1739059 α      in ANC's #45, #12, #29, ...

........................................................................
.............................. CYCLE    9 ..............................
........................................................................
   1   -251.6771711 -0.251677E+03  0.250E-01    0.67       0.0  T
   2   -251.6773040 -0.132853E-03  0.139E-01    0.69       1.0  T
   3   -251.6768109  0.493030E-03  0.587E-02    0.65       1.0  T
   4   -251.6773938 -0.582885E-03  0.916E-03    0.68       1.0  T
   5   -251.6773984 -0.455425E-05  0.519E-03    0.68       1.7  T
   6   -251.6774001 -0.169937E-05  0.242E-03    0.68       3.6  T
   7   -251.6774006 -0.545481E-06  0.810E-04    0.68      10.6  T
   8   -251.6774006 -0.315584E-07  0.421E-04    0.68      20.4  T
     SCC iter.                  ...        0 min,  0.169 sec
     gradient                   ...        0 min,  0.057 sec
 * total energy  :  -247.7804206 Eh     change        0.4996079E-03 Eh
   gradient norm :     0.0545462 Eh/α   predicted    -0.1766296E-02 (-453.54%)
   displ. norm   :     0.3116654 α      lambda       -0.5012977E-02
   maximum displ.:     0.1003958 α      in ANC's #11, #43, #41, ...

........................................................................
.............................. CYCLE   10 ..............................
........................................................................
   1   -251.6903188 -0.251690E+03  0.193E-01    0.68       0.0  T
   2   -251.6903971 -0.783426E-04  0.107E-01    0.69       1.0  T
   3   -251.6903516  0.454707E-04  0.233E-02    0.68       1.0  T
   4   -251.6904249 -0.732797E-04  0.637E-03    0.69       1.3  T
   5   -251.6904287 -0.377546E-05  0.311E-03    0.69       2.8  T
   6   -251.6904293 -0.577965E-06  0.142E-03    0.69       6.0  T
   7   -251.6904295 -0.215719E-06  0.427E-04    0.69      20.1  T
   8   -251.6904295 -0.994518E-08  0.204E-04    0.69      42.1  T
     SCC iter.                  ...        0 min,  0.169 sec
     gradient                   ...        0 min,  0.056 sec
 * total energy  :  -247.7831528 Eh     change       -0.2732170E-02 Eh
   gradient norm :     0.0148546 Eh/α   predicted    -0.2749947E-02 (   0.65%)
   displ. norm   :     0.4565475 α      lambda       -0.1464705E-02
   maximum displ.:     0.1615990 α      in ANC's #29, #20, #10, ...

........................................................................
.............................. CYCLE   11 ..............................
........................................................................
   1   -251.6897815 -0.251690E+03  0.932E-02    0.68       0.0  T
   2   -251.6898086 -0.271082E-04  0.519E-02    0.70       1.0  T
   3   -251.6896901  0.118493E-03  0.288E-02    0.68       1.0  T
   4   -251.6898262 -0.136035E-03  0.772E-03    0.70       1.1  T
   5   -251.6898327 -0.655112E-05  0.320E-03    0.69       2.7  T
   6   -251.6898331 -0.412819E-06  0.161E-03    0.69       5.3  T
   7   -251.6898334 -0.270619E-06  0.521E-04    0.69      16.4  T
   8   -251.6898334 -0.149829E-07  0.270E-04    0.69      31.8  T
     SCC iter.                  ...        0 min,  0.169 sec
     gradient                   ...        0 min,  0.056 sec
 * total energy  :  -247.7844440 Eh     change       -0.1291201E-02 Eh
   gradient norm :     0.0123260 Eh/α   predicted    -0.8849993E-03 ( -31.46%)
   displ. norm   :     0.7624557 α      lambda       -0.2417196E-02
   maximum displ.:     0.2725571 α      in ANC's #29, #20, #10, ...

........................................................................
.............................. CYCLE   12 ..............................
........................................................................
   1   -251.6947639 -0.251695E+03  0.158E-01    0.68       0.0  T
   2   -251.6948398 -0.758706E-04  0.881E-02    0.71       1.0  T
   3   -251.6945437  0.296140E-03  0.452E-02    0.67       1.0  T
   4   -251.6948770 -0.333362E-03  0.130E-02    0.70       1.0  T
   5   -251.6948978 -0.208032E-04  0.493E-03    0.70       1.7  T
   6   -251.6948988 -0.956141E-06  0.252E-03    0.70       3.4  T
   7   -251.6948995 -0.658535E-06  0.882E-04    0.70       9.7  T
   8   -251.6948995 -0.489743E-07  0.426E-04    0.70      20.1  T
     SCC iter.                  ...        0 min,  0.174 sec
     gradient                   ...        0 min,  0.056 sec
 * total energy  :  -247.7861139 Eh     change       -0.1669877E-02 Eh
   gradient norm :     0.0222477 Eh/α   predicted    -0.1911185E-02 (  14.45%)
   displ. norm   :     0.7146878 α      lambda       -0.2824141E-02
   maximum displ.:     0.2554314 α      in ANC's #29, #20, #10, ...

........................................................................
.............................. CYCLE   13 ..............................
........................................................................
   1   -251.6976818 -0.251698E+03  0.210E-01    0.69       0.0  T
   2   -251.6977916 -0.109876E-03  0.117E-01    0.71       1.0  T
   3   -251.6975600  0.231614E-03  0.409E-02    0.68       1.0  T
   4   -251.6978268 -0.266798E-03  0.124E-02    0.71       1.0  T
   5   -251.6978469 -0.201282E-04  0.489E-03    0.70       1.8  T
   6   -251.6978478 -0.899603E-06  0.230E-03    0.70       3.7  T
   7   -251.6978483 -0.485052E-06  0.882E-04    0.70       9.7  T
   8   -251.6978484 -0.508118E-07  0.408E-04    0.70      21.0  T
     SCC iter.                  ...        0 min,  0.183 sec
     gradient                   ...        0 min,  0.057 sec
 * total energy  :  -247.7875453 Eh     change       -0.1431394E-02 Eh
   gradient norm :     0.0316630 Eh/α   predicted    -0.2133309E-02 (  49.04%)
   displ. norm   :     0.5848557 α      lambda       -0.2052573E-02
   maximum displ.:     0.1866253 α      in ANC's #29, #20, #10, ...

........................................................................
.............................. CYCLE   14 ..............................
........................................................................
   1   -251.6853771 -0.251685E+03  0.140E-01    0.69       0.0  T
   2   -251.6854450 -0.679250E-04  0.790E-02    0.71       1.0  T
   3   -251.6851974  0.247626E-03  0.426E-02    0.68       1.0  T
   4   -251.6854853 -0.287963E-03  0.117E-02    0.71       1.0  T
   5   -251.6855019 -0.165207E-04  0.479E-03    0.70       1.8  T
   6   -251.6855025 -0.613717E-06  0.240E-03    0.70       3.6  T
   7   -251.6855031 -0.647882E-06  0.789E-04    0.70      10.9  T
   8   -251.6855031 -0.304516E-07  0.436E-04    0.70      19.7  T
     SCC iter.                  ...        0 min,  0.164 sec
     gradient                   ...        0 min,  0.056 sec
 * total energy  :  -247.7888297 Eh     change       -0.1284457E-02 Eh
   gradient norm :     0.0237056 Eh/α   predicted    -0.1377334E-02 (   7.23%)
   displ. norm   :     0.4902506 α      lambda       -0.1869024E-02
   maximum displ.:     0.1603495 α      in ANC's #29, #10, #12, ...

........................................................................
.............................. CYCLE   15 ..............................
........................................................................
   1   -251.6934425 -0.251693E+03  0.103E-01    0.69       0.0  T
   2   -251.6934680 -0.254340E-04  0.599E-02    0.70       1.0  T
   3   -251.6932942  0.173770E-03  0.340E-02    0.70       1.0  T
   4   -251.6934978 -0.203605E-03  0.637E-03    0.70       1.3  T
   5   -251.6935014 -0.358802E-05  0.363E-03    0.70       2.4  T
   6   -251.6935023 -0.882307E-06  0.166E-03    0.70       5.2  T
   7   -251.6935026 -0.328584E-06  0.642E-04    0.70      13.4  T
   8   -251.6935026 -0.148080E-07  0.349E-04    0.70      24.5  T
     SCC iter.                  ...        0 min,  0.160 sec
     gradient                   ...        0 min,  0.056 sec
 * total energy  :  -247.7899453 Eh     change       -0.1115632E-02 Eh
   gradient norm :     0.0235899 Eh/α   predicted    -0.1159119E-02 (   3.90%)
   displ. norm   :     0.6325548 α      lambda       -0.1728955E-02
   maximum displ.:     0.2020622 α      in ANC's #10, #12, #6, ...

........................................................................
.............................. CYCLE   16 ..............................
........................................................................
   1   -251.6939495 -0.251694E+03  0.133E-01    0.70       0.0  T
   2   -251.6940174 -0.678993E-04  0.752E-02    0.71       1.0  T
   3   -251.6938582  0.159204E-03  0.374E-02    0.69       1.0  T
   4   -251.6940500 -0.191779E-03  0.110E-02    0.71       1.0  T
   5   -251.6940636 -0.135921E-04  0.450E-03    0.70       1.9  T
   6   -251.6940642 -0.643173E-06  0.193E-03    0.70       4.4  T
   7   -251.6940646 -0.415816E-06  0.735E-04    0.70      11.7  T
   8   -251.6940646 -0.281040E-07  0.413E-04    0.70      20.8  T
     SCC iter.                  ...        0 min,  0.166 sec
     gradient                   ...        0 min,  0.056 sec
 * total energy  :  -247.7910874 Eh     change       -0.1142042E-02 Eh
   gradient norm :     0.0208838 Eh/α   predicted    -0.1210376E-02 (   5.98%)
   displ. norm   :     0.5819990 α      lambda       -0.1518416E-02
   maximum displ.:     0.2008835 α      in ANC's #10, #12, #6, ...

........................................................................
.............................. CYCLE   17 ..............................
........................................................................
   1   -251.6938930 -0.251694E+03  0.115E-01    0.70       0.0  T
   2   -251.6939178 -0.248118E-04  0.650E-02    0.71       1.0  T
   3   -251.6937620  0.155787E-03  0.322E-02    0.70       1.0  T
   4   -251.6939370 -0.174930E-03  0.626E-03    0.71       1.4  T
   5   -251.6939398 -0.284951E-05  0.315E-03    0.71       2.7  T
   6   -251.6939405 -0.681972E-06  0.123E-03    0.71       7.0  T
   7   -251.6939407 -0.165721E-06  0.476E-04    0.71      18.0  T
   8   -251.6939407 -0.122972E-07  0.261E-04    0.71      32.9  T
     SCC iter.                  ...        0 min,  0.168 sec
     gradient                   ...        0 min,  0.056 sec
 * total energy  :  -247.7921494 Eh     change       -0.1061969E-02 Eh
   gradient norm :     0.0159609 Eh/α   predicted    -0.1016366E-02 (  -4.29%)
   displ. norm   :     0.5911780 α      lambda       -0.1035917E-02
   maximum displ.:     0.2230783 α      in ANC's #10, #12, #6, ...

........................................................................
.............................. CYCLE   18 ..............................
........................................................................
   1   -251.6928743 -0.251693E+03  0.883E-02    0.71       0.0  T
   2   -251.6928871 -0.127315E-04  0.503E-02    0.71       1.0  T
   3   -251.6928206  0.664677E-04  0.211E-02    0.71       1.0  T
   4   -251.6928961 -0.755306E-04  0.447E-03    0.71       1.9  T
   5   -251.6928966 -0.497634E-06  0.296E-03    0.71       2.9  T
   6   -251.6928975 -0.892290E-06  0.981E-04    0.71       8.7  T
   7   -251.6928976 -0.985747E-07  0.394E-04    0.71      21.7  T
     SCC iter.                  ...        0 min,  0.149 sec
     gradient                   ...        0 min,  0.056 sec
 * total energy  :  -247.7929812 Eh     change       -0.8318175E-03 Eh
   gradient norm :     0.0095411 Eh/α   predicted    -0.6989787E-03 ( -15.97%)
   displ. norm   :     0.6154733 α      lambda       -0.9319734E-03
   maximum displ.:     0.2530108 α      in ANC's #10, #6, #12, ...

........................................................................
.............................. CYCLE   19 ..............................
........................................................................
   1   -251.6943128 -0.251694E+03  0.909E-02    0.71       0.0  T
   2   -251.6943296 -0.167861E-04  0.517E-02    0.71       1.0  T
   3   -251.6942821  0.475397E-04  0.184E-02    0.71       1.0  T
   4   -251.6943378 -0.556931E-04  0.466E-03    0.71       1.8  T
   5   -251.6943392 -0.141774E-05  0.228E-03    0.71       3.8  T
   6   -251.6943395 -0.283873E-06  0.784E-04    0.71      10.9  T
   7   -251.6943395 -0.499126E-07  0.389E-04    0.71      22.0  T
     SCC iter.                  ...        0 min,  0.152 sec
     gradient                   ...        0 min,  0.056 sec
 * total energy  :  -247.7936948 Eh     change       -0.7136535E-03 Eh
   gradient norm :     0.0096693 Eh/α   predicted    -0.6425052E-03 (  -9.97%)
   displ. norm   :     0.6818618 α      lambda       -0.8360968E-03
   maximum displ.:     0.2859507 α      in ANC's #10, #6, #12, ...

........................................................................
.............................. CYCLE   20 ..............................
........................................................................
   1   -251.6901046 -0.251690E+03  0.937E-02    0.70       0.0  T
   2   -251.6901237 -0.190368E-04  0.539E-02    0.71       1.0  T
   3   -251.6900567  0.670088E-04  0.214E-02    0.70       1.0  T
   4   -251.6901309 -0.742467E-04  0.598E-03    0.71       1.4  T
   5   -251.6901345 -0.362539E-05  0.302E-03    0.71       2.8  T
   6   -251.6901352 -0.711446E-06  0.121E-03    0.71       7.1  T
   7   -251.6901354 -0.154734E-06  0.452E-04    0.71      19.0  T
   8   -251.6901354 -0.111385E-07  0.239E-04    0.71      35.9  T
     SCC iter.                  ...        0 min,  0.170 sec
     gradient                   ...        0 min,  0.056 sec
 * total energy  :  -247.7942683 Eh     change       -0.5734640E-03 Eh
   gradient norm :     0.0117840 Eh/α   predicted    -0.6124140E-03 (   6.79%)
   displ. norm   :     0.5740842 α      lambda       -0.7995744E-03
   maximum displ.:     0.2495841 α      in ANC's #10, #6, #12, ...
 * RMSD in coord.:     0.6748358 α      energy gain  -0.1395223E+00 Eh

generating ANC from model Hessian ...
Using Lindh-Hessian (1995)
 Shifting diagonal of input Hessian by   1.007127450795607E-002
 Lowest  eigenvalues of input Hessian
    0.010000    0.010003    0.010051    0.000000    0.000000    0.000000
    0.000000    0.000000    0.000000    0.010084    0.010109    0.010141
    0.010164    0.010193    0.010270    0.010322    0.010332    0.010408
 Highest eigenvalues
    2.284370    2.288329    2.612661    2.618238    2.651234    2.652016
 

........................................................................
.............................. CYCLE   21 ..............................
........................................................................
   1   -251.7011817 -0.251701E+03  0.772E-02    0.71       0.0  T
   2   -251.7012000 -0.182528E-04  0.438E-02    0.71       1.0  T
   3   -251.7011520  0.480332E-04  0.193E-02    0.72       1.0  T
   4   -251.7012057 -0.537330E-04  0.495E-03    0.71       1.7  T
   5   -251.7012083 -0.262949E-05  0.225E-03    0.71       3.8  T
   6   -251.7012087 -0.412670E-06  0.113E-03    0.71       7.6  T
   7   -251.7012089 -0.127578E-06  0.429E-04    0.71      20.0  T
   8   -251.7012089 -0.143393E-07  0.180E-04    0.71      47.6  T
     SCC iter.                  ...        0 min,  0.170 sec
     gradient                   ...        0 min,  0.056 sec
 * total energy  :  -247.7947729 Eh     change       -0.5045983E-03 Eh
   gradient norm :     0.0143091 Eh/α   predicted     0.0000000E+00 (-100.00%)
   displ. norm   :     0.1290272 α      lambda       -0.4624206E-03
   maximum displ.:     0.0500225 α      in ANC's #6, #9, #4, ...

........................................................................
.............................. CYCLE   22 ..............................
........................................................................
   1   -251.6979672 -0.251698E+03  0.329E-02    0.71       0.0  T
   2   -251.6979723 -0.504059E-05  0.186E-02    0.71       1.0  T
   3   -251.6979634  0.886617E-05  0.893E-03    0.71       1.0  T
   4   -251.6979738 -0.103749E-04  0.256E-03    0.71       3.4  T
   5   -251.6979745 -0.726087E-06  0.114E-03    0.71       7.5  T
   6   -251.6979746 -0.771979E-07  0.586E-04    0.71      14.6  T
   7   -251.6979746 -0.295837E-07  0.250E-04    0.71      34.3  T
     SCC iter.                  ...        0 min,  0.147 sec
     gradient                   ...        0 min,  0.056 sec
 * total energy  :  -247.7951140 Eh     change       -0.3411572E-03 Eh
   gradient norm :     0.0062943 Eh/α   predicted    -0.2350665E-03 ( -31.10%)
   displ. norm   :     0.3652502 α      lambda       -0.8004888E-03
   maximum displ.:     0.1142867 α      in ANC's #6, #9, #12, ...

........................................................................
.............................. CYCLE   23 ..............................
........................................................................
   1   -251.6914841 -0.251691E+03  0.116E-01    0.70       0.0  T
   2   -251.6915215 -0.374019E-04  0.645E-02    0.71       1.0  T
   3   -251.6914595  0.620356E-04  0.225E-02    0.70       1.0  T
   4   -251.6915348 -0.753354E-04  0.605E-03    0.71       1.4  T
   5   -251.6915385 -0.372855E-05  0.283E-03    0.71       3.0  T
   6   -251.6915389 -0.380034E-06  0.146E-03    0.71       5.9  T
   7   -251.6915391 -0.228632E-06  0.574E-04    0.71      14.9  T
   8   -251.6915392 -0.247387E-07  0.298E-04    0.71      28.8  T
     SCC iter.                  ...        0 min,  0.169 sec
     gradient                   ...        0 min,  0.056 sec
 * total energy  :  -247.7950512 Eh     change        0.6285320E-04 Eh
   gradient norm :     0.0190126 Eh/α   predicted    -0.4538513E-03 (-822.08%)
   displ. norm   :     0.2148433 α      lambda       -0.1172276E-02
   maximum displ.:     0.0965809 α      in ANC's #6, #9, #4, ...

........................................................................
.............................. CYCLE   24 ..............................
........................................................................
   1   -251.6952695 -0.251695E+03  0.112E-01    0.71       0.0  T
   2   -251.6952914 -0.218587E-04  0.618E-02    0.71       1.0  T
   3   -251.6952927 -0.132661E-05  0.716E-03    0.71       1.2  T
   4   -251.6952991 -0.640867E-05  0.301E-03    0.71       2.8  T
   5   -251.6952998 -0.681347E-06  0.136E-03    0.71       6.3  T
   6   -251.6952999 -0.113362E-06  0.470E-04    0.71      18.3  T
   7   -251.6952999 -0.224006E-07  0.220E-04    0.71      38.9  T
     SCC iter.                  ...        0 min,  0.147 sec
     gradient                   ...        0 min,  0.056 sec
 * total energy  :  -247.7956211 Eh     change       -0.5698977E-03 Eh
   gradient norm :     0.0123172 Eh/α   predicted    -0.6131946E-03 (   7.60%)
   displ. norm   :     0.1559493 α      lambda       -0.4522163E-03
   maximum displ.:     0.0609494 α      in ANC's #6, #9, #7, ...

........................................................................
.............................. CYCLE   25 ..............................
........................................................................
   1   -251.6970723 -0.251697E+03  0.776E-02    0.71       0.0  T
   2   -251.6970835 -0.112201E-04  0.430E-02    0.71       1.0  T
   3   -251.6970745  0.901458E-05  0.907E-03    0.71       1.0  T
   4   -251.6970878 -0.133049E-04  0.223E-03    0.71       3.8  T
   5   -251.6970882 -0.382615E-06  0.124E-03    0.71       6.9  T
   6   -251.6970883 -0.104047E-06  0.606E-04    0.71      14.2  T
   7   -251.6970884 -0.388127E-07  0.204E-04    0.71      42.1  T
     SCC iter.                  ...        0 min,  0.149 sec
     gradient                   ...        0 min,  0.056 sec
 * total energy  :  -247.7958027 Eh     change       -0.1815998E-03 Eh
   gradient norm :     0.0072856 Eh/α   predicted    -0.2316082E-03 (  27.54%)
   displ. norm   :     0.2842184 α      lambda       -0.5027994E-03
   maximum displ.:     0.1261721 α      in ANC's #6, #9, #7, ...

........................................................................
.............................. CYCLE   26 ..............................
........................................................................
   1   -251.6988361 -0.251699E+03  0.453E-02    0.71       0.0  T
   2   -251.6988403 -0.417980E-05  0.254E-02    0.71       1.0  T
   3   -251.6988335  0.680629E-05  0.722E-03    0.71       1.2  T
   4   -251.6988418 -0.830380E-05  0.204E-03    0.71       4.2  T
   5   -251.6988421 -0.330421E-06  0.105E-03    0.71       8.2  T
   6   -251.6988422 -0.604326E-07  0.516E-04    0.71      16.6  T
   7   -251.6988422 -0.305962E-07  0.187E-04    0.71      45.8  T
     SCC iter.                  ...        0 min,  0.146 sec
     gradient                   ...        0 min,  0.056 sec
 * total energy  :  -247.7962013 Eh     change       -0.3986641E-03 Eh
   gradient norm :     0.0046734 Eh/α   predicted    -0.2717083E-03 ( -31.85%)
   displ. norm   :     0.6725976 α      lambda       -0.8863214E-03
   maximum displ.:     0.3038522 α      in ANC's #6, #9, #4, ...

........................................................................
.............................. CYCLE   27 ..............................
........................................................................
   1   -251.6955597 -0.251696E+03  0.138E-01    0.71       0.0  T
   2   -251.6955936 -0.338763E-04  0.766E-02    0.71       1.0  T
   3   -251.6955768  0.167887E-04  0.148E-02    0.70       1.0  T
   4   -251.6956059 -0.291470E-04  0.479E-03    0.71       1.8  T
   5   -251.6956072 -0.123873E-05  0.255E-03    0.71       3.4  T
   6   -251.6956077 -0.486013E-06  0.107E-03    0.71       8.0  T
   7   -251.6956078 -0.146286E-06  0.353E-04    0.71      24.3  T
   8   -251.6956078 -0.428841E-08  0.185E-04    0.71      46.4  T
     SCC iter.                  ...        0 min,  0.173 sec
     gradient                   ...        0 min,  0.056 sec
 * total energy  :  -247.7964653 Eh     change       -0.2639486E-03 Eh
   gradient norm :     0.0151911 Eh/α   predicted    -0.6436417E-03 ( 143.85%)
   displ. norm   :     0.4816973 α      lambda       -0.1122698E-02
   maximum displ.:     0.2174368 α      in ANC's #6, #9, #4, ...

........................................................................
.............................. CYCLE   28 ..............................
........................................................................
   1   -251.6968112 -0.251697E+03  0.944E-02    0.71       0.0  T
   2   -251.6968266 -0.154186E-04  0.523E-02    0.71       1.0  T
   3   -251.6968217  0.487102E-05  0.877E-03    0.70       1.0  T
   4   -251.6968312 -0.948586E-05  0.371E-03    0.71       2.3  T
   5   -251.6968323 -0.113888E-05  0.170E-03    0.71       5.1  T
   6   -251.6968325 -0.152669E-06  0.734E-04    0.71      11.7  T
   7   -251.6968326 -0.652629E-07  0.264E-04    0.71      32.5  T
     SCC iter.                  ...        0 min,  0.149 sec
     gradient                   ...        0 min,  0.056 sec
 * total energy  :  -247.7971834 Eh     change       -0.7181328E-03 Eh
   gradient norm :     0.0076048 Eh/α   predicted    -0.6916025E-03 (  -3.69%)
   displ. norm   :     0.6087056 α      lambda       -0.5977742E-03
   maximum displ.:     0.2877004 α      in ANC's #6, #9, #4, ...

........................................................................
.............................. CYCLE   29 ..............................
........................................................................
   1   -251.6967324 -0.251697E+03  0.632E-02    0.71       0.0  T
   2   -251.6967383 -0.587015E-05  0.357E-02    0.71       1.0  T
   3   -251.6967273  0.109488E-04  0.945E-03    0.71       1.0  T
   4   -251.6967398 -0.124198E-04  0.342E-03    0.71       2.5  T
   5   -251.6967408 -0.106048E-05  0.163E-03    0.71       5.2  T
   6   -251.6967410 -0.156607E-06  0.716E-04    0.71      12.0  T
   7   -251.6967411 -0.689950E-07  0.235E-04    0.71      36.5  T
     SCC iter.                  ...        0 min,  0.150 sec
     gradient                   ...        0 min,  0.056 sec
 * total energy  :  -247.7977305 Eh     change       -0.5470972E-03 Eh
   gradient norm :     0.0077505 Eh/α   predicted    -0.4096363E-03 ( -25.13%)
   displ. norm   :     0.6808258 α      lambda       -0.7941818E-03
   maximum displ.:     0.3223891 α      in ANC's #6, #9, #4, ...

........................................................................
.............................. CYCLE   30 ..............................
........................................................................
   1   -251.7002662 -0.251700E+03  0.772E-02    0.71       0.0  T
   2   -251.7002750 -0.881447E-05  0.438E-02    0.71       1.0  T
   3   -251.7002521  0.229541E-04  0.124E-02    0.71       1.0  T
   4   -251.7002783 -0.262319E-04  0.380E-03    0.71       2.3  T
   5   -251.7002797 -0.138435E-05  0.189E-03    0.71       4.5  T
   6   -251.7002799 -0.172798E-06  0.827E-04    0.71      10.4  T
   7   -251.7002800 -0.878092E-07  0.287E-04    0.71      29.8  T
     SCC iter.                  ...        0 min,  0.155 sec
     gradient                   ...        0 min,  0.056 sec
 * total energy  :  -247.7984225 Eh     change       -0.6919576E-03 Eh
   gradient norm :     0.0055251 Eh/α   predicted    -0.5811525E-03 ( -16.01%)
   displ. norm   :     0.8129236 α      lambda       -0.8068874E-03
   maximum displ.:     0.3843354 α      in ANC's #6, #9, #4, ...

........................................................................
.............................. CYCLE   31 ..............................
........................................................................
   1   -251.6986990 -0.251699E+03  0.905E-02    0.71       0.0  T
   2   -251.6987104 -0.114634E-04  0.512E-02    0.71       1.0  T
   3   -251.6986821  0.283523E-04  0.140E-02    0.71       1.0  T
   4   -251.6987137 -0.316110E-04  0.476E-03    0.71       1.8  T
   5   -251.6987161 -0.245482E-05  0.226E-03    0.71       3.8  T
   6   -251.6987164 -0.275166E-06  0.947E-04    0.71       9.1  T
   7   -251.6987165 -0.105009E-06  0.339E-04    0.71      25.3  T
     SCC iter.                  ...        0 min,  0.152 sec
     gradient                   ...        0 min,  0.056 sec
 * total energy  :  -247.7991501 Eh     change       -0.7276536E-03 Eh
   gradient norm :     0.0059978 Eh/α   predicted    -0.6700614E-03 (  -7.91%)
   displ. norm   :     0.8535589 α      lambda       -0.8620059E-03
   maximum displ.:     0.4058173 α      in ANC's #6, #9, #4, ...

........................................................................
.............................. CYCLE   32 ..............................
........................................................................
   1   -251.6963272 -0.251696E+03  0.915E-02    0.71       0.0  T
   2   -251.6963392 -0.119562E-04  0.520E-02    0.72       1.0  T
   3   -251.6963124  0.268008E-04  0.142E-02    0.71       1.0  T
   4   -251.6963418 -0.294022E-04  0.499E-03    0.72       1.7  T
   5   -251.6963447 -0.290409E-05  0.232E-03    0.71       3.7  T
   6   -251.6963450 -0.300575E-06  0.977E-04    0.71       8.8  T
   7   -251.6963451 -0.111426E-06  0.354E-04    0.71      24.2  T
     SCC iter.                  ...        0 min,  0.153 sec
     gradient                   ...        0 min,  0.056 sec
 * total energy  :  -247.7998935 Eh     change       -0.7433320E-03 Eh
   gradient norm :     0.0082736 Eh/α   predicted    -0.7450183E-03 (   0.23%)
   displ. norm   :     0.8311938 α      lambda       -0.8207247E-03
   maximum displ.:     0.3950030 α      in ANC's #6, #9, #4, ...

........................................................................
.............................. CYCLE   33 ..............................
........................................................................
   1   -251.6966702 -0.251697E+03  0.892E-02    0.71       0.0  T
   2   -251.6966819 -0.116941E-04  0.507E-02    0.72       1.0  T
   3   -251.6966645  0.174019E-04  0.125E-02    0.71       1.0  T
   4   -251.6966847 -0.202057E-04  0.435E-03    0.72       2.0  T
   5   -251.6966867 -0.196040E-05  0.212E-03    0.72       4.0  T
   6   -251.6966869 -0.219577E-06  0.946E-04    0.72       9.1  T
   7   -251.6966870 -0.112073E-06  0.331E-04    0.72      25.9  T
     SCC iter.                  ...        0 min,  0.154 sec
     gradient                   ...        0 min,  0.056 sec
 * total energy  :  -247.8006470 Eh     change       -0.7535208E-03 Eh
   gradient norm :     0.0078011 Eh/α   predicted    -0.6938751E-03 (  -7.92%)
   displ. norm   :     0.8402004 α      lambda       -0.8296798E-03
   maximum displ.:     0.3995411 α      in ANC's #6, #9, #4, ...

........................................................................
.............................. CYCLE   34 ..............................
........................................................................
   1   -251.6981041 -0.251698E+03  0.865E-02    0.72       0.0  T
   2   -251.6981169 -0.127786E-04  0.493E-02    0.72       1.0  T
   3   -251.6981015  0.153280E-04  0.129E-02    0.72       1.0  T
   4   -251.6981197 -0.181811E-04  0.428E-03    0.72       2.0  T
   5   -251.6981216 -0.187114E-05  0.192E-03    0.72       4.5  T
   6   -251.6981218 -0.195759E-06  0.695E-04    0.72      12.3  T
   7   -251.6981218 -0.469482E-07  0.283E-04    0.72      30.3  T
     SCC iter.                  ...        0 min,  0.144 sec
     gradient                   ...        0 min,  0.055 sec
 * total energy  :  -247.8014144 Eh     change       -0.7673621E-03 Eh
   gradient norm :     0.0065111 Eh/α   predicted    -0.7076929E-03 (  -7.78%)
   displ. norm   :     0.8544974 α      lambda       -0.8185101E-03
   maximum displ.:     0.4096806 α      in ANC's #9, #6, #4, ...

........................................................................
.............................. CYCLE   35 ..............................
........................................................................
   1   -251.6993885 -0.251699E+03  0.843E-02    0.72       0.0  T
   2   -251.6994007 -0.122183E-04  0.481E-02    0.72       1.0  T
   3   -251.6993837  0.170051E-04  0.132E-02    0.72       1.0  T
   4   -251.6994027 -0.189616E-04  0.462E-03    0.72       1.9  T
   5   -251.6994053 -0.255502E-05  0.192E-03    0.72       4.5  T
   6   -251.6994055 -0.220417E-06  0.855E-04    0.72      10.0  T
   7   -251.6994056 -0.851088E-07  0.362E-04    0.72      23.7  T
     SCC iter.                  ...        0 min,  0.144 sec
     gradient                   ...        0 min,  0.055 sec
 * total energy  :  -247.8021763 Eh     change       -0.7619089E-03 Eh
   gradient norm :     0.0054589 Eh/α   predicted    -0.7080794E-03 (  -7.07%)
   displ. norm   :     0.8658970 α      lambda       -0.7944555E-03
   maximum displ.:     0.4189349 α      in ANC's #9, #6, #4, ...

........................................................................
.............................. CYCLE   36 ..............................
........................................................................
   1   -251.6994053 -0.251699E+03  0.859E-02    0.72       0.0  T
   2   -251.6994175 -0.121885E-04  0.490E-02    0.72       1.0  T
   3   -251.6993984  0.191297E-04  0.135E-02    0.72       1.0  T
   4   -251.6994195 -0.211789E-04  0.474E-03    0.72       1.8  T
   5   -251.6994223 -0.273326E-05  0.194E-03    0.72       4.4  T
   6   -251.6994225 -0.216624E-06  0.873E-04    0.72       9.8  T
   7   -251.6994226 -0.908658E-07  0.364E-04    0.72      23.6  T
     SCC iter.                  ...        0 min,  0.141 sec
     gradient                   ...        0 min,  0.055 sec
 * total energy  :  -247.8029154 Eh     change       -0.7391411E-03 Eh
   gradient norm :     0.0054861 Eh/α   predicted    -0.6950611E-03 (  -5.96%)
   displ. norm   :     0.8708799 α      lambda       -0.7569382E-03
   maximum displ.:     0.4223785 α      in ANC's #9, #6, #4, ...

........................................................................
.............................. CYCLE   37 ..............................
........................................................................
   1   -251.7000938 -0.251700E+03  0.837E-02    0.72       0.0  T
   2   -251.7001039 -0.101330E-04  0.479E-02    0.72       1.0  T
   3   -251.7000843  0.195540E-04  0.131E-02    0.72       1.0  T
   4   -251.7001059 -0.215534E-04  0.439E-03    0.72       2.0  T
   5   -251.7001081 -0.221611E-05  0.198E-03    0.72       4.3  T
   6   -251.7001084 -0.287587E-06  0.970E-04    0.72       8.8  T
   7   -251.7001085 -0.118414E-06  0.325E-04    0.72      26.4  T
     SCC iter.                  ...        0 min,  0.146 sec
     gradient                   ...        0 min,  0.055 sec
 * total energy  :  -247.8036188 Eh     change       -0.7033806E-03 Eh
   gradient norm :     0.0053225 Eh/α   predicted    -0.6655204E-03 (  -5.38%)
   displ. norm   :     0.8773428 α      lambda       -0.7206234E-03
   maximum displ.:     0.4279377 α      in ANC's #9, #6, #4, ...

........................................................................
.............................. CYCLE   38 ..............................
........................................................................
   1   -251.6989714 -0.251699E+03  0.860E-02    0.73       0.0  T
   2   -251.6989805 -0.906987E-05  0.491E-02    0.72       1.0  T
   3   -251.6989571  0.234083E-04  0.138E-02    0.73       1.0  T
   4   -251.6989841 -0.270789E-04  0.372E-03    0.72       2.3  T
   5   -251.6989851 -0.968806E-06  0.196E-03    0.72       4.4  T
   6   -251.6989854 -0.292501E-06  0.880E-04    0.72       9.7  T
   7   -251.6989855 -0.996058E-07  0.301E-04    0.72      28.5  T
     SCC iter.                  ...        0 min,  0.150 sec
     gradient                   ...        0 min,  0.055 sec
 * total energy  :  -247.8042907 Eh     change       -0.6719633E-03 Eh
   gradient norm :     0.0059404 Eh/α   predicted    -0.6376610E-03 (  -5.10%)
   displ. norm   :     0.8683093 α      lambda       -0.7149483E-03
   maximum displ.:     0.4233036 α      in ANC's #9, #6, #4, ...

........................................................................
.............................. CYCLE   39 ..............................
........................................................................
   1   -251.7045788 -0.251705E+03  0.783E-02    0.73       0.0  T
   2   -251.7045856 -0.682575E-05  0.451E-02    0.73       1.0  T
   3   -251.7045452  0.404319E-04  0.162E-02    0.74       1.0  T
   4   -251.7045899 -0.447612E-04  0.359E-03    0.73       2.4  T
   5   -251.7045906 -0.673250E-06  0.219E-03    0.73       3.9  T
   6   -251.7045911 -0.497472E-06  0.816E-04    0.73      10.5  T
   7   -251.7045912 -0.625872E-07  0.283E-04    0.73      30.3  T
     SCC iter.                  ...        0 min,  0.149 sec
     gradient                   ...        0 min,  0.055 sec
 * total energy  :  -247.8049414 Eh     change       -0.6506848E-03 Eh
   gradient norm :     0.0067038 Eh/α   predicted    -0.6269971E-03 (  -3.64%)
   displ. norm   :     0.8873619 α      lambda       -0.7038946E-03
   maximum displ.:     0.4328876 α      in ANC's #9, #6, #4, ...

........................................................................
.............................. CYCLE   40 ..............................
........................................................................
   1   -251.6971233 -0.251697E+03  0.881E-02    0.73       0.0  T
   2   -251.6971320 -0.866318E-05  0.503E-02    0.73       1.0  T
   3   -251.6971112  0.207693E-04  0.135E-02    0.73       1.0  T
   4   -251.6971362 -0.249726E-04  0.343E-03    0.73       2.5  T
   5   -251.6971365 -0.343042E-06  0.188E-03    0.73       4.6  T
   6   -251.6971368 -0.285464E-06  0.694E-04    0.73      12.4  T
   7   -251.6971368 -0.506681E-07  0.307E-04    0.73      27.9  T
     SCC iter.                  ...        0 min,  0.148 sec
     gradient                   ...        0 min,  0.055 sec
 * total energy  :  -247.8055759 Eh     change       -0.6344552E-03 Eh
   gradient norm :     0.0063253 Eh/α   predicted    -0.6290754E-03 (  -0.85%)
   displ. norm   :     0.8251623 α      lambda       -0.7178023E-03
   maximum displ.:     0.3963915 α      in ANC's #9, #6, #4, ...

........................................................................
.............................. CYCLE   41 ..............................
........................................................................
   1   -251.7063621 -0.251706E+03  0.776E-02    0.73       0.0  T
   2   -251.7063711 -0.897049E-05  0.444E-02    0.73       1.0  T
   3   -251.7063229  0.481487E-04  0.173E-02    0.74       1.0  T
   4   -251.7063769 -0.539447E-04  0.385E-03    0.73       2.2  T
   5   -251.7063777 -0.812870E-06  0.228E-03    0.73       3.8  T
   6   -251.7063781 -0.471530E-06  0.935E-04    0.73       9.2  T
   7   -251.7063782 -0.930315E-07  0.341E-04    0.73      25.1  T
     SCC iter.                  ...        0 min,  0.151 sec
     gradient                   ...        0 min,  0.055 sec
 * total energy  :  -247.8061888 Eh     change       -0.6128827E-03 Eh
   gradient norm :     0.0084146 Eh/α   predicted    -0.6032758E-03 (  -1.57%)
   displ. norm   :     0.8509167 α      lambda       -0.6864288E-03
   maximum displ.:     0.4063832 α      in ANC's #9, #6, #4, ...

........................................................................
.............................. CYCLE   42 ..............................
........................................................................
   1   -251.7039891 -0.251704E+03  0.814E-02    0.73       0.0  T
   2   -251.7039968 -0.773611E-05  0.466E-02    0.73       1.0  T
   3   -251.7039776  0.191820E-04  0.126E-02    0.73       1.0  T
   4   -251.7040000 -0.224123E-04  0.348E-03    0.73       2.5  T
   5   -251.7040004 -0.406690E-06  0.197E-03    0.73       4.4  T
   6   -251.7040009 -0.442576E-06  0.746E-04    0.73      11.5  T
   7   -251.7040009 -0.640730E-07  0.285E-04    0.73      30.1  T
     SCC iter.                  ...        0 min,  0.149 sec
     gradient                   ...        0 min,  0.055 sec
 * total energy  :  -247.8067852 Eh     change       -0.5964042E-03 Eh
   gradient norm :     0.0092794 Eh/α   predicted    -0.5917257E-03 (  -0.78%)
   displ. norm   :     0.8364206 α      lambda       -0.6342432E-03
   maximum displ.:     0.3986444 α      in ANC's #9, #4, #6, ...
 * RMSD in coord.:     1.1990068 α      energy gain  -0.1251689E-01 Eh

generating ANC from model Hessian ...
Using Lindh-Hessian (1995)
 Shifting diagonal of input Hessian by   1.002462441412924E-002
 Lowest  eigenvalues of input Hessian
    0.010000    0.000000    0.000000    0.000000    0.000000    0.000000
    0.000000    0.010033    0.010037    0.010056    0.010082    0.010109
    0.010122    0.010193    0.010250    0.010294    0.010351    0.010462
 Highest eigenvalues
    2.274696    2.276631    2.614059    2.615708    2.640329    2.651018
 

........................................................................
.............................. CYCLE   43 ..............................
........................................................................
   1   -251.7033065 -0.251703E+03  0.746E-02    0.73       0.0  T
   2   -251.7033115 -0.503014E-05  0.429E-02    0.73       1.0  T
   3   -251.7032955  0.159942E-04  0.108E-02    0.73       1.0  T
   4   -251.7033139 -0.183944E-04  0.291E-03    0.73       2.9  T
   5   -251.7033141 -0.234668E-06  0.166E-03    0.73       5.2  T
   6   -251.7033145 -0.346998E-06  0.594E-04    0.73      14.4  T
   7   -251.7033145 -0.383765E-07  0.253E-04    0.73      33.9  T
     SCC iter.                  ...        0 min,  0.150 sec
     gradient                   ...        0 min,  0.055 sec
 * total energy  :  -247.8073775 Eh     change       -0.5923258E-03 Eh
   gradient norm :     0.0071773 Eh/α   predicted     0.0000000E+00 (-100.00%)
   displ. norm   :     0.0900850 α      lambda       -0.1617358E-03
   maximum displ.:     0.0371924 α      in ANC's #3, #7, #9, ...

........................................................................
.............................. CYCLE   44 ..............................
........................................................................
   1   -251.7052497 -0.251705E+03  0.277E-02    0.73       0.0  T
   2   -251.7052515 -0.179032E-05  0.154E-02    0.73       1.0  T
   3   -251.7052479  0.358171E-05  0.536E-03    0.73       1.6  T
   4   -251.7052523 -0.436246E-05  0.136E-03    0.73       6.3  T
   5   -251.7052524 -0.137312E-06  0.720E-04    0.73      11.9  T
   6   -251.7052524 -0.310436E-07  0.324E-04    0.73      26.4  T
     SCC iter.                  ...        0 min,  0.127 sec
     gradient                   ...        0 min,  0.055 sec
 * total energy  :  -247.8074955 Eh     change       -0.1179743E-03 Eh
   gradient norm :     0.0039931 Eh/α   predicted    -0.8152473E-04 ( -30.90%)
   displ. norm   :     0.3561259 α      lambda       -0.4891977E-03
   maximum displ.:     0.1469247 α      in ANC's #3, #7, #1, ...

........................................................................
.............................. CYCLE   45 ..............................
........................................................................
   1   -251.7103405 -0.251710E+03  0.971E-02    0.73       0.0  T
   2   -251.7103641 -0.235985E-04  0.538E-02    0.74       1.0  T
   3   -251.7103088  0.552983E-04  0.202E-02    0.72       1.0  T
   4   -251.7103748 -0.659381E-04  0.525E-03    0.74       1.6  T
   5   -251.7103769 -0.213462E-05  0.281E-03    0.74       3.0  T
   6   -251.7103775 -0.562643E-06  0.124E-03    0.74       6.9  T
   7   -251.7103776 -0.172406E-06  0.435E-04    0.74      19.7  T
   8   -251.7103776 -0.121927E-07  0.212E-04    0.74      40.4  T
     SCC iter.                  ...        0 min,  0.170 sec
     gradient                   ...        0 min,  0.055 sec
 * total energy  :  -247.8075819 Eh     change       -0.8642125E-04 Eh
   gradient norm :     0.0164548 Eh/α   predicted    -0.2756233E-03 ( 218.93%)
   displ. norm   :     0.2193850 α      lambda       -0.5473687E-03
   maximum displ.:     0.0847111 α      in ANC's #3, #9, #6, ...

........................................................................
.............................. CYCLE   46 ..............................
........................................................................
   1   -251.7110138 -0.251711E+03  0.847E-02    0.74       0.0  T
   2   -251.7110253 -0.115197E-04  0.469E-02    0.74       1.0  T
   3   -251.7110188  0.653452E-05  0.827E-03    0.73       1.0  T
   4   -251.7110300 -0.111880E-04  0.235E-03    0.74       3.6  T
   5   -251.7110301 -0.156848E-06  0.145E-03    0.74       5.9  T
   6   -251.7110303 -0.222021E-06  0.504E-04    0.74      17.0  T
   7   -251.7110304 -0.272535E-07  0.204E-04    0.74      42.1  T
     SCC iter.                  ...        0 min,  0.150 sec
     gradient                   ...        0 min,  0.055 sec
 * total energy  :  -247.8077874 Eh     change       -0.2054955E-03 Eh
   gradient norm :     0.0121571 Eh/α   predicted    -0.2868574E-03 (  39.59%)
   displ. norm   :     0.1539735 α      lambda       -0.4886324E-03
   maximum displ.:     0.0595378 α      in ANC's #3, #7, #9, ...

........................................................................
.............................. CYCLE   47 ..............................
........................................................................
   1   -251.7070026 -0.251707E+03  0.785E-02    0.74       0.0  T
   2   -251.7070132 -0.106054E-04  0.435E-02    0.74       1.0  T
   3   -251.7069995  0.137650E-04  0.107E-02    0.74       1.0  T
   4   -251.7070175 -0.180265E-04  0.273E-03    0.74       3.1  T
   5   -251.7070182 -0.678084E-06  0.131E-03    0.74       6.6  T
   6   -251.7070182 -0.620901E-07  0.638E-04    0.74      13.4  T
   7   -251.7070183 -0.490577E-07  0.237E-04    0.74      36.2  T
     SCC iter.                  ...        0 min,  0.148 sec
     gradient                   ...        0 min,  0.055 sec
 * total energy  :  -247.8079622 Eh     change       -0.1747930E-03 Eh
   gradient norm :     0.0086709 Eh/α   predicted    -0.2501087E-03 (  43.09%)
   displ. norm   :     0.2344566 α      lambda       -0.3560740E-03
   maximum displ.:     0.1009318 α      in ANC's #3, #7, #4, ...

........................................................................
.............................. CYCLE   48 ..............................
........................................................................
   1   -251.7044987 -0.251704E+03  0.769E-02    0.74       0.0  T
   2   -251.7045085 -0.978761E-05  0.425E-02    0.74       1.0  T
   3   -251.7045100 -0.155190E-05  0.417E-03    0.74       2.1  T
   4   -251.7045117 -0.167849E-05  0.224E-03    0.74       3.8  T
   5   -251.7045121 -0.354387E-06  0.106E-03    0.74       8.1  T
   6   -251.7045122 -0.156337E-06  0.283E-04    0.74      30.3  T
   7   -251.7045122 -0.700143E-08  0.132E-04    0.74      64.7  T
     SCC iter.                  ...        0 min,  0.148 sec
     gradient                   ...        0 min,  0.054 sec
 * total energy  :  -247.8081203 Eh     change       -0.1581483E-03 Eh
   gradient norm :     0.0072925 Eh/α   predicted    -0.1878239E-03 (  18.76%)
   displ. norm   :     0.3920480 α      lambda       -0.5292805E-03
   maximum displ.:     0.1684081 α      in ANC's #3, #7, #1, ...

........................................................................
.............................. CYCLE   49 ..............................
........................................................................
   1   -251.7031544 -0.251703E+03  0.846E-02    0.74       0.0  T
   2   -251.7031666 -0.121582E-04  0.472E-02    0.74       1.0  T
   3   -251.7031550  0.115891E-04  0.104E-02    0.74       1.0  T
   4   -251.7031714 -0.164442E-04  0.312E-03    0.74       2.8  T
   5   -251.7031717 -0.261866E-06  0.158E-03    0.74       5.4  T
   6   -251.7031720 -0.338822E-06  0.513E-04    0.74      16.7  T
   7   -251.7031720 -0.257426E-07  0.222E-04    0.74      38.6  T
     SCC iter.                  ...        0 min,  0.152 sec
     gradient                   ...        0 min,  0.055 sec
 * total energy  :  -247.8084097 Eh     change       -0.2893282E-03 Eh
   gradient norm :     0.0094210 Eh/α   predicted    -0.3053164E-03 (   5.53%)
   displ. norm   :     0.4309445 α      lambda       -0.3247541E-03
   maximum displ.:     0.1891118 α      in ANC's #3, #7, #9, ...

........................................................................
.............................. CYCLE   50 ..............................
........................................................................
   1   -251.7027228 -0.251703E+03  0.577E-02    0.74       0.0  T
   2   -251.7027273 -0.457317E-05  0.327E-02    0.74       1.0  T
   3   -251.7027220  0.538689E-05  0.688E-03    0.74       1.2  T
   4   -251.7027288 -0.682606E-05  0.257E-03    0.74       3.3  T
   5   -251.7027291 -0.347228E-06  0.127E-03    0.74       6.7  T
   6   -251.7027293 -0.191473E-06  0.421E-04    0.74      20.4  T
   7   -251.7027293 -0.194832E-07  0.189E-04    0.74      45.3  T
     SCC iter.                  ...        0 min,  0.149 sec
     gradient                   ...        0 min,  0.055 sec
 * total energy  :  -247.8086909 Eh     change       -0.2812303E-03 Eh
   gradient norm :     0.0068251 Eh/α   predicted    -0.1925359E-03 ( -31.54%)
   displ. norm   :     0.6669271 α      lambda       -0.5483992E-03
   maximum displ.:     0.2997188 α      in ANC's #3, #7, #9, ...

........................................................................
.............................. CYCLE   51 ..............................
........................................................................
   1   -251.7051549 -0.251705E+03  0.844E-02    0.75       0.0  T
   2   -251.7051636 -0.866739E-05  0.481E-02    0.74       1.0  T
   3   -251.7051163  0.472699E-04  0.170E-02    0.75       1.0  T
   4   -251.7051686 -0.523138E-04  0.404E-03    0.74       2.1  T
   5   -251.7051701 -0.144314E-05  0.210E-03    0.74       4.1  T
   6   -251.7051703 -0.278837E-06  0.898E-04    0.74       9.5  T
   7   -251.7051704 -0.879693E-07  0.315E-04    0.74      27.2  T
     SCC iter.                  ...        0 min,  0.149 sec
     gradient                   ...        0 min,  0.054 sec
 * total energy  :  -247.8091040 Eh     change       -0.4131329E-03 Eh
   gradient norm :     0.0080687 Eh/α   predicted    -0.3961686E-03 (  -4.11%)
   displ. norm   :     0.7057019 α      lambda       -0.4923245E-03
   maximum displ.:     0.3227092 α      in ANC's #3, #7, #9, ...

........................................................................
.............................. CYCLE   52 ..............................
........................................................................
   1   -251.7058617 -0.251706E+03  0.880E-02    0.74       0.0  T
   2   -251.7058712 -0.953837E-05  0.500E-02    0.74       1.0  T
   3   -251.7058333  0.379321E-04  0.151E-02    0.75       1.0  T
   4   -251.7058763 -0.430212E-04  0.385E-03    0.74       2.2  T
   5   -251.7058773 -0.104096E-05  0.215E-03    0.74       4.0  T
   6   -251.7058777 -0.312826E-06  0.834E-04    0.74      10.3  T
   7   -251.7058777 -0.760944E-07  0.312E-04    0.74      27.5  T
     SCC iter.                  ...        0 min,  0.150 sec
     gradient                   ...        0 min,  0.054 sec
 * total energy  :  -247.8095251 Eh     change       -0.4210760E-03 Eh
   gradient norm :     0.0082533 Eh/α   predicted    -0.3687611E-03 ( -12.42%)
   displ. norm   :     0.7429928 α      lambda       -0.5084514E-03
   maximum displ.:     0.3436245 α      in ANC's #3, #7, #9, ...

........................................................................
.............................. CYCLE   53 ..............................
........................................................................
   1   -251.7064081 -0.251706E+03  0.829E-02    0.74       0.0  T
   2   -251.7064162 -0.813937E-05  0.473E-02    0.74       1.0  T
   3   -251.7064065  0.975992E-05  0.938E-03    0.74       1.0  T
   4   -251.7064187 -0.122372E-04  0.359E-03    0.74       2.4  T
   5   -251.7064195 -0.775652E-06  0.185E-03    0.74       4.6  T
   6   -251.7064199 -0.357771E-06  0.646E-04    0.74      13.3  T
   7   -251.7064199 -0.410357E-07  0.303E-04    0.74      28.3  T
     SCC iter.                  ...        0 min,  0.149 sec
     gradient                   ...        0 min,  0.055 sec
 * total energy  :  -247.8099882 Eh     change       -0.4631429E-03 Eh
   gradient norm :     0.0063284 Eh/α   predicted    -0.3945748E-03 ( -14.80%)
   displ. norm   :     0.7501229 α      lambda       -0.5985389E-03
   maximum displ.:     0.3569894 α      in ANC's #3, #7, #9, ...

........................................................................
.............................. CYCLE   54 ..............................
........................................................................
   1   -251.7133596 -0.251713E+03  0.799E-02    0.75       0.0  T
   2   -251.7133665 -0.696872E-05  0.460E-02    0.74       1.0  T
   3   -251.7133184  0.481599E-04  0.172E-02    0.75       1.0  T
   4   -251.7133717 -0.533743E-04  0.368E-03    0.74       2.3  T
   5   -251.7133728 -0.110387E-05  0.208E-03    0.74       4.1  T
   6   -251.7133732 -0.338830E-06  0.734E-04    0.74      11.7  T
   7   -251.7133732 -0.465585E-07  0.308E-04    0.74      27.8  T
     SCC iter.                  ...        0 min,  0.150 sec
     gradient                   ...        0 min,  0.054 sec
 * total energy  :  -247.8104917 Eh     change       -0.5034693E-03 Eh
   gradient norm :     0.0080799 Eh/α   predicted    -0.4676661E-03 (  -7.11%)
   displ. norm   :     0.8474927 α      lambda       -0.5864280E-03
   maximum displ.:     0.3962598 α      in ANC's #3, #7, #9, ...

........................................................................
.............................. CYCLE   55 ..............................
........................................................................
   1   -251.7071106 -0.251707E+03  0.903E-02    0.74       0.0  T
   2   -251.7071180 -0.740458E-05  0.520E-02    0.74       1.0  T
   3   -251.7070843  0.336626E-04  0.149E-02    0.73       1.0  T
   4   -251.7071220 -0.376842E-04  0.377E-03    0.74       2.3  T
   5   -251.7071229 -0.908031E-06  0.200E-03    0.74       4.3  T
   6   -251.7071232 -0.305113E-06  0.800E-04    0.74      10.7  T
   7   -251.7071233 -0.738704E-07  0.327E-04    0.74      26.2  T
     SCC iter.                  ...        0 min,  0.151 sec
     gradient                   ...        0 min,  0.056 sec
 * total energy  :  -247.8110170 Eh     change       -0.5252397E-03 Eh
   gradient norm :     0.0074406 Eh/α   predicted    -0.5038195E-03 (  -4.08%)
   displ. norm   :     0.8041005 α      lambda       -0.5716877E-03
   maximum displ.:     0.3884757 α      in ANC's #3, #7, #9, ...

........................................................................
.............................. CYCLE   56 ..............................
........................................................................
   1   -251.7071726 -0.251707E+03  0.796E-02    0.74       0.0  T
   2   -251.7071781 -0.557169E-05  0.459E-02    0.75       1.0  T
   3   -251.7071290  0.491174E-04  0.168E-02    0.74       1.0  T
   4   -251.7071821 -0.531133E-04  0.398E-03    0.75       2.2  T
   5   -251.7071839 -0.175372E-05  0.178E-03    0.75       4.8  T
   6   -251.7071840 -0.136778E-06  0.876E-04    0.75       9.8  T
   7   -251.7071841 -0.963846E-07  0.317E-04    0.75      27.0  T
     SCC iter.                  ...        0 min,  0.151 sec
     gradient                   ...        0 min,  0.054 sec
 * total energy  :  -247.8115239 Eh     change       -0.5069786E-03 Eh
   gradient norm :     0.0061139 Eh/α   predicted    -0.4706660E-03 (  -7.16%)
   displ. norm   :     0.8172918 α      lambda       -0.5504836E-03
   maximum displ.:     0.4016588 α      in ANC's #3, #7, #9, ...

........................................................................
.............................. CYCLE   57 ..............................
........................................................................
   1   -251.7054381 -0.251705E+03  0.827E-02    0.75       0.0  T
   2   -251.7054442 -0.613278E-05  0.475E-02    0.75       1.0  T
   3   -251.7054184  0.257651E-04  0.132E-02    0.75       1.0  T
   4   -251.7054475 -0.290496E-04  0.337E-03    0.75       2.5  T
   5   -251.7054481 -0.665927E-06  0.172E-03    0.75       5.0  T
   6   -251.7054484 -0.210900E-06  0.757E-04    0.75      11.3  T
   7   -251.7054484 -0.681006E-07  0.302E-04    0.75      28.4  T
     SCC iter.                  ...        0 min,  0.154 sec
     gradient                   ...        0 min,  0.054 sec
 * total energy  :  -247.8120049 Eh     change       -0.4809220E-03 Eh
   gradient norm :     0.0087665 Eh/α   predicted    -0.4590961E-03 (  -4.54%)
   displ. norm   :     0.7883196 α      lambda       -0.5376955E-03
   maximum displ.:     0.3964220 α      in ANC's #3, #6, #7, ...

........................................................................
.............................. CYCLE   58 ..............................
........................................................................
   1   -251.7083002 -0.251708E+03  0.735E-02    0.75       0.0  T
   2   -251.7083045 -0.437453E-05  0.424E-02    0.76       1.0  T
   3   -251.7082849  0.196376E-04  0.118E-02    0.75       1.0  T
   4   -251.7083067 -0.218360E-04  0.308E-03    0.75       2.8  T
   5   -251.7083074 -0.681981E-06  0.158E-03    0.75       5.4  T
   6   -251.7083076 -0.191463E-06  0.673E-04    0.75      12.7  T
   7   -251.7083077 -0.480314E-07  0.285E-04    0.75      30.1  T
     SCC iter.                  ...        0 min,  0.154 sec
     gradient                   ...        0 min,  0.054 sec
 * total energy  :  -247.8124651 Eh     change       -0.4602655E-03 Eh
   gradient norm :     0.0078856 Eh/α   predicted    -0.4359237E-03 (  -5.29%)
   displ. norm   :     0.7988291 α      lambda       -0.5173828E-03
   maximum displ.:     0.4093162 α      in ANC's #3, #7, #4, ...

........................................................................
.............................. CYCLE   59 ..............................
........................................................................
   1   -251.7085014 -0.251709E+03  0.772E-02    0.76       0.0  T
   2   -251.7085067 -0.532732E-05  0.445E-02    0.76       1.0  T
   3   -251.7084765  0.302811E-04  0.140E-02    0.76       1.0  T
   4   -251.7085105 -0.339926E-04  0.294E-03    0.76       2.9  T
   5   -251.7085109 -0.407453E-06  0.174E-03    0.76       4.9  T
   6   -251.7085111 -0.249655E-06  0.727E-04    0.76      11.8  T
   7   -251.7085112 -0.613330E-07  0.259E-04    0.76      33.2  T
     SCC iter.                  ...        0 min,  0.142 sec
     gradient                   ...        0 min,  0.054 sec
[...]
    33   6 C    3.928 --    64 C    1.335    24 C    1.276    34 S    1.095
    34  16 S    2.523 --    35 C    1.117    33 C    1.095
    35   6 C    3.922 --    63 C    1.315    36 C    1.260    34 S    1.117
    36   6 C    3.954 --    61 C    1.281    35 C    1.260    37 C    1.173
    37   6 C    3.973 --    41 N    1.429    36 C    1.173    38 C    1.163
                            40 S    0.102
    38   6 C    3.973 --    39 N    1.430    42 C    1.171    37 C    1.163
                            40 S    0.102
    39   7 N    3.075 --    38 C    1.430    40 S    1.390    41 N    0.148
    40  16 S    3.104 --    41 N    1.392    39 N    1.390    37 C    0.102
                            38 C    0.102
    41   7 N    3.075 --    37 C    1.429    40 S    1.392    39 N    0.148
    42   6 C    3.953 --    43 C    1.272    60 C    1.269    38 C    1.171
    43   6 C    3.920 --    58 C    1.306    42 C    1.272    44 S    1.113
    44  16 S    2.521 --    43 C    1.113    45 C    1.094
    45   6 C    3.924 --    57 C    1.326    46 C    1.285    44 S    1.094
    46   6 C    3.966 --    55 C    1.399    45 C    1.285    47 C    1.046
    47   6 C    3.986 --    48 C    1.383    54 C    1.381    46 C    1.046
                            50 C    0.102
    48   6 C    3.985 --    49 C    1.442    47 C    1.383   112 H    0.968
                            51 C    0.104
    49   6 C    3.990 --    50 C    1.445    48 C    1.442   113 H    0.970
                            54 C    0.104
    50   6 C    3.982 --    49 C    1.445    51 C    1.399   114 H    0.969
                            47 C    0.102
    51   6 C    3.985 --    54 C    1.424    50 C    1.399    52 C    1.013
                            48 C    0.104
    52   6 C    3.996 --    51 C    1.013    53 C    1.001   115 H    0.977
                           116 H    0.969
    53   6 C    3.993 --    52 C    1.001   118 H    0.988   119 H    0.986
                           117 H    0.979
    54   6 C    3.988 --    51 C    1.424    47 C    1.381   120 H    0.965
                            49 C    0.104
    55   6 C    3.918 --    46 C    1.399    70 C    1.206    56 S    1.077
    56  16 S    2.587 --    57 C    1.136    55 C    1.077
    57   6 C    3.933 --    45 C    1.326    58 C    1.249    56 S    1.136
    58   6 C    3.935 --    43 C    1.306    57 C    1.249    59 N    1.154
    59   7 N    3.557 --    60 C    1.171    58 C    1.154    68 C    0.981
    60   6 C    3.930 --    42 C    1.269    61 C    1.227    59 N    1.171
    61   6 C    3.930 --    36 C    1.281    60 C    1.227    62 N    1.156
    62   7 N    3.528 --    61 C    1.156    63 C    1.146    66 C    0.976
    63   6 C    3.936 --    35 C    1.315    64 C    1.250    62 N    1.146
    64   6 C    3.932 --    33 C    1.335    63 C    1.250    65 S    1.123
    65  16 S    2.556 --    64 C    1.123    23 C    1.089
    66   6 C    3.963 --    67 C    1.006    62 N    0.976   122 H    0.968
                           121 H    0.960
    67   6 C    3.989 --    66 C    1.006   125 H    0.987   123 H    0.984
                           124 H    0.983
    68   6 C    3.964 --    69 C    1.007    59 N    0.981   127 H    0.967
                           126 H    0.964
    69   6 C    3.986 --    68 C    1.007   129 H    0.983   128 H    0.978
                           130 H    0.978
    70   6 C    3.942 --    71 N    1.413    55 C    1.206    74 S    1.165
    71   7 N    3.094 --    70 C    1.413    72 N    1.376
    72   7 N    3.127 --    73 C    1.455    71 N    1.376    74 S    0.144
    73   6 C    3.937 --    72 N    1.455    75 C    1.234    74 S    1.086
    74  16 S    2.780 --    70 C    1.165    73 C    1.086    72 N    0.144
                            78 O    0.104
    75   6 C    3.946 --    76 C    1.551    73 C    1.234   131 H    0.938
    76   6 C    3.959 --    75 C    1.551    90 C    1.122    77 C    1.046
    77   6 C    3.923 --    78 O    1.721    76 C    1.046    79 C    1.033
    78   8 O    2.105 --    77 C    1.721    74 S    0.104
    79   6 C    3.976 --    80 C    1.516    89 C    1.200    77 C    1.033
    80   6 C    3.978 --    79 C    1.516    81 C    1.275   132 H    0.963
    81   6 C    3.980 --    82 C    1.285    80 C    1.275    87 C    1.239
    82   6 C    3.981 --    83 C    1.549    81 C    1.285   133 H    0.966
                            86 C    0.111
    83   6 C    3.975 --    82 C    1.549    84 C    1.290   134 H    0.966
    84   6 C    3.881 --    86 C    1.490    83 C    1.290    85 F    0.970
    85   9 F    1.101 --    84 C    0.970
    86   6 C    3.976 --    84 C    1.490    87 C    1.290   135 H    0.963
                            82 C    0.111
    87   6 C    3.984 --    86 C    1.290    88 C    1.273    81 C    1.239
    88   6 C    3.971 --    89 C    1.503    87 C    1.273   136 H    0.957
    89   6 C    3.983 --    88 C    1.503    79 C    1.200    90 C    1.089
    90   6 C    3.972 --    91 C    1.502    76 C    1.122    89 C    1.089
    91   6 C    3.946 --    90 C    1.502    92 C    1.093    94 C    1.093
    92   6 C    3.946 --    93 N    2.768    91 C    1.093
    93   7 N    2.974 --    92 C    2.768
    94   6 C    3.947 --    95 N    2.766    91 C    1.093
    95   7 N    2.974 --    94 C    2.766
    96   1 H    0.991 --     1 C    0.938
    97   1 H    0.996 --     6 C    0.964
    98   1 H    0.997 --     8 C    0.985
    99   1 H    0.994 --     8 C    0.966
   100   1 H    0.994 --     8 C    0.967
   101   1 H    0.997 --     9 C    0.968
   102   1 H    0.996 --    10 C    0.961
   103   1 H    0.998 --    26 C    0.969
   104   1 H    0.997 --    27 C    0.970
   105   1 H    0.998 --    28 C    0.969
   106   1 H    0.998 --    30 C    0.974
   107   1 H    0.998 --    30 C    0.974
   108   1 H    0.999 --    31 C    0.988
   109   1 H    0.998 --    31 C    0.986
   110   1 H    0.998 --    31 C    0.988
   111   1 H    0.998 --    32 C    0.966
   112   1 H    0.998 --    48 C    0.968
   113   1 H    0.997 --    49 C    0.970
   114   1 H    0.998 --    50 C    0.969
   115   1 H    0.998 --    52 C    0.977
   116   1 H    0.998 --    52 C    0.969
   117   1 H    0.997 --    53 C    0.979
   118   1 H    0.999 --    53 C    0.988
   119   1 H    0.998 --    53 C    0.986
   120   1 H    0.999 --    54 C    0.965
   121   1 H    0.995 --    66 C    0.960
   122   1 H    0.995 --    66 C    0.968
   123   1 H    0.997 --    67 C    0.984
   124   1 H    0.997 --    67 C    0.983
   125   1 H    0.998 --    67 C    0.987
   126   1 H    0.994 --    68 C    0.964
   127   1 H    0.995 --    68 C    0.967
   128   1 H    0.998 --    69 C    0.978
   129   1 H    0.996 --    69 C    0.983
   130   1 H    0.996 --    69 C    0.978
   131   1 H    0.991 --    75 C    0.938
   132   1 H    0.995 --    80 C    0.963
   133   1 H    0.996 --    82 C    0.966
   134   1 H    0.995 --    83 C    0.966
   135   1 H    0.994 --    86 C    0.963
   136   1 H    0.995 --    88 C    0.957
 ---------------------------------------------------------------------------

Topologies differ in bond orders
Writing corrected topology to xtbtopo.mol

molecular dipole:
                 x           y           z       tot (Debye)
 q only:        1.974       0.288      -0.053
   full:        2.493      -0.646      -0.032       6.548
molecular quadrupole (traceless):
                xx          xy          yy          xz          yz          zz
 q only:       20.159      95.817     -76.186     -44.255      42.859      56.028
  q+dip:       38.733      99.269    -101.884     -51.105      65.133      63.151
   full:       32.802     100.254    -105.944     -44.849      74.920      73.142

           -------------------------------------------------
          |                Geometry Summary                 |
           -------------------------------------------------

      molecular mass/u    :     1361.6404548
   center of mass at/Å    :       -0.1884069      -0.4955051       0.0999550
  moments of inertia/u·Å² :        0.2321226E+05   0.1173631E+06   0.1358801E+06
rotational constants/cm⁻¹ :        0.7262384E-03   0.1436366E-03   0.1240626E-03

 * 133 selected distances

     #   Z          #   Z                                           value/Å
     1   6 C        2   6 C                                       1.3623754
     3   6 C        4   8 O                                       1.2155844
     5   6 C        6   6 C                                       1.3806296
     6   6 C        7   6 C                                       1.3914482
     7   6 C        9   6 C                                       1.3954219
     9   6 C       10   6 C                                       1.3855429
     5   6 C       11   6 C                                       1.4053453
    10   6 C       11   6 C                                       1.3881893
    12   6 C       13   6 C                                       1.3679576
    14   6 C       15   7 N                                       1.1476507
    16   6 C       17   7 N                                       1.1479786
     1   6 C       18   6 C                                       1.4133148
    18   6 C       19   7 N                                       1.3143052
    19   7 N       20   7 N                                       1.2902473
    20   7 N       21   6 C                                       1.3164453
    18   6 C       22  16 S                                       1.7596836 (max)
    21   6 C       22  16 S                                       1.7510444
    21   6 C       23   6 C                                       1.4155648
    23   6 C       24   6 C                                       1.3894876
    25   6 C       26   6 C                                       1.3914007
    26   6 C       27   6 C                                       1.3809324
    27   6 C       28   6 C                                       1.3839305
    28   6 C       29   6 C                                       1.3892408
    30   6 C       31   6 C                                       1.5299643
    25   6 C       32   6 C                                       1.3915684
    29   6 C       32   6 C                                       1.3861114
    24   6 C       33   6 C                                       1.4070100
    33   6 C       34  16 S                                       1.7499840
    34  16 S       35   6 C                                       1.7319160
    35   6 C       36   6 C                                       1.4066963
    36   6 C       37   6 C                                       1.4130071
    37   6 C       38   6 C                                       1.4377938
    38   6 C       39   7 N                                       1.3233477
    39   7 N       40  16 S                                       1.6186101
    37   6 C       41   7 N                                       1.3234160
    40  16 S       41   7 N                                       1.6181960
    38   6 C       42   6 C                                       1.4137964
    42   6 C       43   6 C                                       1.4036097
    43   6 C       44  16 S                                       1.7312945
    44  16 S       45   6 C                                       1.7502636
    45   6 C       46   6 C                                       1.4053530
    47   6 C       48   6 C                                       1.3918989
    48   6 C       49   6 C                                       1.3820782
    49   6 C       50   6 C                                       1.3826170
    50   6 C       51   6 C                                       1.3907009
    52   6 C       53   6 C                                       1.5297460
    47   6 C       54   6 C                                       1.3919883
    51   6 C       54   6 C                                       1.3855118
    46   6 C       55   6 C                                       1.3888439
    55   6 C       56  16 S                                       1.7564053
    45   6 C       57   6 C                                       1.4015064
    56  16 S       57   6 C                                       1.7248390
    43   6 C       58   6 C                                       1.4003159
    57   6 C       58   6 C                                       1.3983167
    58   6 C       59   7 N                                       1.3687994
    42   6 C       60   6 C                                       1.4239343
    59   7 N       60   6 C                                       1.3799076
    36   6 C       61   6 C                                       1.4220846
    60   6 C       61   6 C                                       1.4156790
    61   6 C       62   7 N                                       1.3847037
    35   6 C       63   6 C                                       1.3988164
    62   7 N       63   6 C                                       1.3716899
    33   6 C       64   6 C                                       1.3989994
    63   6 C       64   6 C                                       1.3968042
    23   6 C       65  16 S                                       1.7559183
    64   6 C       65  16 S                                       1.7231603
    62   7 N       66   6 C                                       1.4485758
    66   6 C       67   6 C                                       1.5286727
    59   7 N       68   6 C                                       1.4466092
    68   6 C       69   6 C                                       1.5282424
    55   6 C       70   6 C                                       1.4123273
    70   6 C       71   7 N                                       1.3237489
    71   7 N       72   7 N                                       1.2860147
    72   7 N       73   6 C                                       1.3140380
    70   6 C       74  16 S                                       1.7416598
    73   6 C       75   6 C                                       1.4104243
    75   6 C       76   6 C                                       1.3638679
    77   6 C       78   8 O                                       1.2170932
    79   6 C       80   6 C                                       1.3654156
    80   6 C       81   6 C                                       1.4119822
    81   6 C       82   6 C                                       1.4099722
    82   6 C       83   6 C                                       1.3670524
    83   6 C       84   6 C                                       1.4017870
    84   6 C       86   6 C                                       1.3673193
    81   6 C       87   6 C                                       1.4256188
    86   6 C       87   6 C                                       1.4083975
    87   6 C       88   6 C                                       1.4144237
    79   6 C       89   6 C                                       1.4235699
    88   6 C       89   6 C                                       1.3696410
    90   6 C       91   6 C                                       1.3686872
    92   6 C       93   7 N                                       1.1477759
    94   6 C       95   7 N                                       1.1479317
     1   6 C       96   1 H                                       1.0831130
     6   6 C       97   1 H                                       1.0797774
     8   6 C       98   1 H                                       1.0864950
     8   6 C       99   1 H                                       1.0893429
     8   6 C      100   1 H                                       1.0891192
     9   6 C      101   1 H                                       1.0803395
    10   6 C      102   1 H                                       1.0774099 (min)
    26   6 C      103   1 H                                       1.0781964
    27   6 C      104   1 H                                       1.0796634
    28   6 C      105   1 H                                       1.0805441
    30   6 C      106   1 H                                       1.0917901
    30   6 C      107   1 H                                       1.0916839
    31   6 C      108   1 H                                       1.0875720
    31   6 C      109   1 H                                       1.0875688
    31   6 C      110   1 H                                       1.0875331
    32   6 C      111   1 H                                       1.0808084
    48   6 C      112   1 H                                       1.0793846
    49   6 C      113   1 H                                       1.0799204
    50   6 C      114   1 H                                       1.0803084
    52   6 C      115   1 H                                       1.0914559
    52   6 C      116   1 H                                       1.0929441
    53   6 C      117   1 H                                       1.0873167
    53   6 C      118   1 H                                       1.0874548
    53   6 C      119   1 H                                       1.0878403
    54   6 C      120   1 H                                       1.0809409
    66   6 C      121   1 H                                       1.0843526
    66   6 C      122   1 H                                       1.0946746
    67   6 C      123   1 H                                       1.0860990
    67   6 C      124   1 H                                       1.0864855
    67   6 C      125   1 H                                       1.0881213
    68   6 C      126   1 H                                       1.0957219
    68   6 C      127   1 H                                       1.0898620
    69   6 C      128   1 H                                       1.0878080
    69   6 C      129   1 H                                       1.0860199
    69   6 C      130   1 H                                       1.0862822
    75   6 C      131   1 H                                       1.0832594
    80   6 C      132   1 H                                       1.0797915
    82   6 C      133   1 H                                       1.0795908
    83   6 C      134   1 H                                       1.0784352
    86   6 C      135   1 H                                       1.0788025
    88   6 C      136   1 H                                       1.0779076

 * 7 distinct bonds (by element types)

   Z      Z             #   av. dist./Å        max./Å        min./Å
   1 H    6 C          41     1.0849204     1.0957219     1.0774099
   6 C    6 C          59     1.4053040     1.5299643     1.3623754
   6 C    7 N          16     1.3066827     1.4485758     1.1476507
   7 N    7 N           2     1.2881310     1.2902473     1.2860147
   6 C    8 O           2     1.2163388     1.2170932     1.2155844
   6 C   16 S          11     1.7432881     1.7596836     1.7231603
   7 N   16 S           2     1.6184030     1.6186101     1.6181960


optimized geometry written to: xtbopt.mol


           -------------------------------------------------
          | TOTAL ENERGY             -247.830222689634 Eh   |
          | GRADIENT NORM               0.000432111185 Eh/α |
          | HOMO-LUMO GAP               0.765060167791 eV   |
           -------------------------------------------------

------------------------------------------------------------------------
 * finished run on 2022/02/11 at 01:20:04.314     
------------------------------------------------------------------------
 total:
 * wall-time:     0 d,  0 h,  0 min, 49.030 sec
 *  cpu-time:     0 d,  0 h,  6 min, 32.095 sec
 * ratio c/w:     7.997 speedup
 SCF:
 * wall-time:     0 d,  0 h,  0 min,  0.383 sec
 *  cpu-time:     0 d,  0 h,  0 min,  3.047 sec
 * ratio c/w:     7.950 speedup
 ANC optimizer:
 * wall-time:     0 d,  0 h,  0 min, 48.578 sec
 *  cpu-time:     0 d,  0 h,  6 min, 28.583 sec
 * ratio c/w:     7.999 speedup

