      -----------------------------------------------------------      
     |                   =====================                   |     
     |                           x T B                           |     
     |                   =====================                   |     
     |                         S. Grimme                         |     
     |          Mulliken Center for Theoretical Chemistry        |     
     |                    University of Bonn                     |     
      -----------------------------------------------------------      

   * xtb version 6.4.1 (unknown) compiled by 'oda6@login1.crc.pitt.edu' on 2021-06-25

   xtb is free software: you can redistribute it and/or modify it under
   the terms of the GNU Lesser General Public License as published by
   the Free Software Foundation, either version 3 of the License, or
   (at your option) any later version.
   
   xtb is distributed in the hope that it will be useful,
   but WITHOUT ANY WARRANTY; without even the implied warranty of
   MERCHANTABILITY or FITNESS FOR A PARTICULAR PURPOSE.  See the
   GNU Lesser General Public License for more details.
   
   Cite this work as:
   * C. Bannwarth, E. Caldeweyher, S. Ehlert, A. Hansen, P. Pracht,
     J. Seibert, S. Spicher, S. Grimme, WIREs Comput. Mol. Sci., 2020, 11,
     e01493. DOI: 10.1002/wcms.1493
   
   for GFN2-xTB:
   * C. Bannwarth, S. Ehlert and S. Grimme., J. Chem. Theory Comput., 2019,
     15, 1652-1671. DOI: 10.1021/acs.jctc.8b01176
   for GFN1-xTB:
   * S. Grimme, C. Bannwarth, P. Shushkov, J. Chem. Theory Comput., 2017,
     13, 1989-2009. DOI: 10.1021/acs.jctc.7b00118
   for GFN0-xTB:
   * P. Pracht, E. Caldeweyher, S. Ehlert, S. Grimme, ChemRxiv, 2019, preprint.
     DOI: 10.26434/chemrxiv.8326202.v1
   for GFN-FF:
   * S. Spicher and S. Grimme, Angew. Chem. Int. Ed., 2020, 59, 15665-15673.
     DOI: 10.1002/anie.202004239
   
   for DFT-D4:
   * E. Caldeweyher, C. Bannwarth and S. Grimme, J. Chem. Phys., 2017,
     147, 034112. DOI: 10.1063/1.4993215
   * E. Caldeweyher, S. Ehlert, A. Hansen, H. Neugebauer, S. Spicher,
     C. Bannwarth and S. Grimme, J. Chem. Phys., 2019, 150, 154122.
     DOI: 10.1063/1.5090222
   * E. Caldeweyher, J.-M. Mewes, S. Ehlert and S. Grimme, Phys. Chem. Chem. Phys.
     2020, 22, 8499-8512. DOI: 10.1039/D0CP00502A
   
   for sTDA-xTB:
   * S. Grimme and C. Bannwarth, J. Chem. Phys., 2016, 145, 054103.
     DOI: 10.1063/1.4959605
   
   in the mass-spec context:
   * V. Asgeirsson, C. Bauer and S. Grimme, Chem. Sci., 2017, 8, 4879.
     DOI: 10.1039/c7sc00601b
   * J. Koopman and S. Grimme, ACS Omega 2019, 4, 12, 15120-15133.
     DOI: 10.1021/acsomega.9b02011
   
   for metadynamics refer to:
   * S. Grimme, J. Chem. Theory Comput., 2019, 155, 2847-2862
     DOI: 10.1021/acs.jctc.9b00143
   
   for SPH calculations refer to:
   * S. Spicher and S. Grimme, J. Chem. Theory Comput., 2021, 17, 1701-1714
     DOI: 10.1021/acs.jctc.0c01306
   
   with help from (in alphabetical order)
   P. Atkinson, C. Bannwarth, F. Bohle, G. Brandenburg, E. Caldeweyher
   M. Checinski, S. Dohm, S. Ehlert, S. Ehrlich, I. Gerasimov, J. Koopman
   C. Lavigne, S. Lehtola, F. März, M. Müller, F. Musil, H. Neugebauer
   J. Pisarek, C. Plett, P. Pracht, J. Seibert, P. Shushkov, S. Spicher
   M. Stahn, M. Steiner, T. Strunk, J. Stückrath, T. Rose, and J. Unsleber
   
 * started run on 2022/02/11 at 04:46:45.150     

           -------------------------------------------------
          |                Calculation Setup                |
           -------------------------------------------------

          program call               : /ihome/ghutchison/oda6/xtb/xtb-641/bin/xtb ../../FF_optimized/25_6_86_6_25.mol -opt
          hostname                   : smp-n25
          coordinate file            : ../../FF_optimized/25_6_86_6_25.mol
          omp threads                :                     8
          number of atoms            :                   157
          number of electrons        :                   516
          charge                     :                     0
          spin                       :                   0.0
          first test random number   :      0.81821488288616

   ID    Z sym.   atoms
    1    6 C      1-3, 5-7, 9-14, 16, 18, 20-22, 24-29, 31-41, 43-46, 50, 51,
                  53-63, 65, 66, 68, 69, 71, 72, 74-78, 80-82, 84-89, 91-93,
                  95-97, 99-104, 106
    2    8 O      4, 94
    3   17 Cl     8, 98
    4    7 N      15, 17, 23, 47, 49, 67, 70, 83, 105, 107
    5   16 S      19, 30, 42, 48, 52, 64, 73, 79, 90
    6    1 H      108-157
########################################################################
[WARNING] Please study the warnings concerning your input carefully
-1- prog_main_parseArguments: the use of '-opt' is discouraged, please use '--opt' next time
########################################################################

           -------------------------------------------------
          |                 G F N 2 - x T B                 |
           -------------------------------------------------

        Reference                      10.1021/acs.jctc.8b01176
      * Hamiltonian:
        H0-scaling (s, p, d)           1.850000    2.230000    2.230000
        zeta-weighting                 0.500000
      * Dispersion:
        s8                             2.700000
        a1                             0.520000
        a2                             5.000000
        s9                             5.000000
      * Repulsion:
        kExp                           1.500000    1.000000
        rExp                           1.000000
      * Coulomb:
        alpha                          2.000000
        third order                    shell-resolved
        anisotropic                    true
        a3                             3.000000
        a5                             4.000000
        cn-shift                       1.200000
        cn-exp                         4.000000
        max-rad                        5.000000


          ...................................................
          :                      SETUP                      :
          :.................................................:
          :  # basis functions                 544          :
          :  # atomic orbitals                 533          :
          :  # shells                          275          :
          :  # electrons                       516          :
          :  max. iterations                   250          :
          :  Hamiltonian                  GFN2-xTB          :
          :  restarted?                      false          :
          :  GBSA solvation                  false          :
          :  PC potential                    false          :
          :  electronic temp.          300.0000000     K    :
          :  accuracy                    1.0000000          :
          :  -> integral cutoff          0.2500000E+02      :
          :  -> integral neglect         0.1000000E-07      :
          :  -> SCF convergence          0.1000000E-05 Eh   :
          :  -> wf. convergence          0.1000000E-03 e    :
          :  Broyden damping             0.4000000          :
          ...................................................

 iter      E             dE          RMSdq      gap      omega  full diag
   1   -284.6207291 -0.284621E+03  0.460E+00    1.22       0.0  T
   2   -284.8839330 -0.263204E+00  0.284E+00    0.91       1.0  T
   3   -284.7422637  0.141669E+00  0.187E+00    0.64       1.0  T
   4   -285.0386635 -0.296400E+00  0.780E-01    0.91       1.0  T
   5   -285.1139307 -0.752672E-01  0.228E-01    0.59       1.0  T
   6   -285.1189041 -0.497339E-02  0.122E-01    0.72       1.0  T
   7   -285.1202893 -0.138516E-02  0.531E-02    0.68       1.0  T
   8   -285.1205359 -0.246646E-03  0.297E-02    0.69       1.0  T
   9   -285.1205768 -0.408891E-04  0.211E-02    0.69       1.0  T
  10   -285.1205969 -0.200667E-04  0.160E-02    0.69       1.0  T
  11   -285.1206093 -0.124122E-04  0.115E-02    0.69       1.0  T
  12   -285.1206174 -0.816998E-05  0.749E-03    0.69       1.1  T
  13   -285.1206218 -0.433875E-05  0.372E-03    0.69       2.1  T
  14   -285.1206228 -0.991210E-06  0.182E-03    0.69       4.4  T
  15   -285.1206231 -0.303191E-06  0.849E-04    0.69       9.4  T
  16   -285.1206231 -0.446807E-07  0.468E-04    0.69      17.0  T

   *** convergence criteria satisfied after 16 iterations ***

         #    Occupation            Energy/Eh            Energy/eV
      -------------------------------------------------------------
         1        2.0000           -1.0700034             -29.1163
       ...           ...                  ...                  ...
       252        2.0000           -0.3799134             -10.3380
       253        2.0000           -0.3775861             -10.2746
       254        2.0000           -0.3758532             -10.2275
       255        2.0000           -0.3721109             -10.1257
       256        2.0000           -0.3711930             -10.1007
       257        2.0000           -0.3684068             -10.0249
       258        2.0000           -0.3562772              -9.6948 (HOMO)
       259        0.0000           -0.3308187              -9.0020 (LUMO)
       260                         -0.3244499              -8.8287
       261                         -0.3240613              -8.8182
       262                         -0.3181846              -8.6582
       263                         -0.3006558              -8.1813
       ...                                ...                  ...
       533                          1.0823804              29.4531
      -------------------------------------------------------------
                  HL-Gap            0.0254584 Eh            0.6928 eV
             Fermi-level           -0.3435489 Eh           -9.3484 eV

 SCC (total)                   0 d,  0 h,  0 min,  0.556 sec
 SCC setup                      ...        0 min,  0.002 sec (  0.410%)
 Dispersion                     ...        0 min,  0.006 sec (  1.116%)
 classical contributions        ...        0 min,  0.000 sec (  0.041%)
 integral evaluation            ...        0 min,  0.024 sec (  4.239%)
 iterations                     ...        0 min,  0.445 sec ( 80.063%)
 molecular gradient             ...        0 min,  0.076 sec ( 13.744%)
 printout                       ...        0 min,  0.002 sec (  0.372%)

         :::::::::::::::::::::::::::::::::::::::::::::::::::::
         ::                     SUMMARY                     ::
         :::::::::::::::::::::::::::::::::::::::::::::::::::::
         :: total energy            -280.830820680369 Eh    ::
         :: gradient norm              0.348360514720 Eh/a0 ::
         :: HOMO-LUMO gap              0.692758676113 eV    ::
         ::.................................................::
         :: SCC energy              -285.120623111618 Eh    ::
         :: -> isotropic ES            0.128294930948 Eh    ::
         :: -> anisotropic ES          0.019091593389 Eh    ::
         :: -> anisotropic XC          0.168893237915 Eh    ::
         :: -> dispersion             -0.254091064013 Eh    ::
         :: repulsion energy           4.288589632161 Eh    ::
         :: add. restraining           0.000000000000 Eh    ::
         :: total charge              -0.000000000000 e     ::
         :::::::::::::::::::::::::::::::::::::::::::::::::::::

      ----------------------------------------------------------- 
     |                   =====================                   |
     |                        A N C O P T                        |
     |                   =====================                   |
     |               Approximate Normal Coordinate               |
     |                Rational Function Optimizer                |
      ----------------------------------------------------------- 

          ...................................................
          :                      SETUP                      :
          :.................................................:
          :   optimization level            normal          :
          :   max. optcycles                   471          :
          :   ANC micro-cycles                  20          :
          :   degrees of freedom               465          :
          :.................................................:
          :   RF solver                   davidson          :
          :   write xtbopt.log                true          :
          :   linear?                        false          :
          :   energy convergence         0.5000000E-05 Eh   :
          :   grad. convergence          0.1000000E-02 Eh/α :
          :   maximium RF displ.         1.0000000          :
          :   Hlow (freq-cutoff)         0.1000000E-01      :
          :   Hmax (freq-cutoff)         5.0000000          :
          :   S6 in model hess.         20.0000000          :
          ...................................................

generating ANC from model Hessian ...
Using Lindh-Hessian (1995)
 Shifting diagonal of input Hessian by   1.011716521993042E-002
 Lowest  eigenvalues of input Hessian
    0.010000    0.010078    0.000000    0.000000    0.000000    0.000000
    0.000000    0.000000    0.010123    0.010128    0.010134    0.010166
    0.010182    0.010197    0.010225    0.010235    0.010251    0.010305
 Highest eigenvalues
    2.269563    2.286660    2.501172    2.504153    2.552066    2.556799
 

........................................................................
.............................. CYCLE    1 ..............................
........................................................................
   1   -285.1206231 -0.285121E+03  0.218E-04    0.69       0.0  T
   2   -285.1206231  0.391310E-09  0.188E-04    0.69      42.4  T
   3   -285.1206231 -0.427860E-08  0.100E-04    0.69      79.5  T
     SCC iter.                  ...        0 min,  0.086 sec
     gradient                   ...        0 min,  0.074 sec
 * total energy  :  -280.8308207 Eh     change       -0.1394318E-07 Eh
   gradient norm :     0.3483615 Eh/α   predicted     0.0000000E+00 (-100.00%)
   displ. norm   :     0.5122860 α      lambda       -0.1343185E+00
   maximum displ.:     0.1212200 α      in ANC's #129, #311, #309, ...

........................................................................
.............................. CYCLE    2 ..............................
........................................................................
   1   -285.2596425 -0.285260E+03  0.322E-01    0.67       0.0  T
   2   -285.2609492 -0.130672E-02  0.204E-01    0.72       1.0  T
   3   -285.2604472  0.502047E-03  0.117E-01    0.69       1.0  T
   4   -285.2619179 -0.147075E-02  0.468E-02    0.72       1.0  T
   5   -285.2620942 -0.176286E-03  0.242E-02    0.71       1.0  T
   6   -285.2621405 -0.463383E-04  0.103E-02    0.72       1.0  T
   7   -285.2621484 -0.783945E-05  0.566E-03    0.71       1.4  T
   8   -285.2621510 -0.264243E-05  0.383E-03    0.72       2.1  T
   9   -285.2621515 -0.466194E-06  0.281E-03    0.72       2.8  T
  10   -285.2621521 -0.579738E-06  0.182E-03    0.72       4.4  T
  11   -285.2621522 -0.170438E-06  0.127E-03    0.72       6.3  T
  12   -285.2621523 -0.100740E-06  0.696E-04    0.72      11.5  T
  13   -285.2621524 -0.498510E-07  0.279E-04    0.72      28.6  T
     SCC iter.                  ...        0 min,  0.356 sec
     gradient                   ...        0 min,  0.075 sec
 * total energy  :  -280.9308394 Eh     change       -0.1000187E+00 Eh
   gradient norm :     0.1704963 Eh/α   predicted    -0.8483782E-01 ( -15.18%)
   displ. norm   :     0.5280893 α      lambda       -0.6203148E-01
   maximum displ.:     0.1545020 α      in ANC's #129, #159, #162, ...

........................................................................
.............................. CYCLE    3 ..............................
........................................................................
   1   -285.3349129 -0.285335E+03  0.277E-01    0.68       0.0  T
   2   -285.3358064 -0.893567E-03  0.169E-01    0.74       1.0  T
   3   -285.3355688  0.237626E-03  0.112E-01    0.70       1.0  T
   4   -285.3368170 -0.124814E-02  0.456E-02    0.74       1.0  T
   5   -285.3370857 -0.268758E-03  0.223E-02    0.73       1.0  T
   6   -285.3371274 -0.416544E-04  0.933E-03    0.73       1.0  T
   7   -285.3371323 -0.487590E-05  0.544E-03    0.73       1.5  T
   8   -285.3371341 -0.188506E-05  0.393E-03    0.73       2.0  T
   9   -285.3371347 -0.556393E-06  0.296E-03    0.73       2.7  T
  10   -285.3371354 -0.661551E-06  0.182E-03    0.73       4.4  T
  11   -285.3371355 -0.174601E-06  0.122E-03    0.73       6.5  T
  12   -285.3371357 -0.122743E-06  0.662E-04    0.73      12.1  T
  13   -285.3371357 -0.414983E-07  0.268E-04    0.73      29.8  T
     SCC iter.                  ...        0 min,  0.349 sec
     gradient                   ...        0 min,  0.074 sec
 * total energy  :  -280.9710799 Eh     change       -0.4024050E-01 Eh
   gradient norm :     0.0533568 Eh/α   predicted    -0.3966536E-01 (  -1.43%)
   displ. norm   :     0.5154674 α      lambda       -0.1711972E-01
   maximum displ.:     0.1417006 α      in ANC's #129, #98, #80, ...

........................................................................
.............................. CYCLE    4 ..............................
........................................................................
   1   -285.3627039 -0.285363E+03  0.155E-01    0.73       0.0  T
   2   -285.3627903 -0.864157E-04  0.910E-02    0.76       1.0  T
   3   -285.3624121  0.378277E-03  0.693E-02    0.74       1.0  T
   4   -285.3630676 -0.655544E-03  0.220E-02    0.76       1.0  T
   5   -285.3631449 -0.773500E-04  0.102E-02    0.75       1.0  T
   6   -285.3631534 -0.849915E-05  0.432E-03    0.76       1.8  T
   7   -285.3631543 -0.880520E-06  0.278E-03    0.75       2.9  T
   8   -285.3631547 -0.416498E-06  0.214E-03    0.75       3.7  T
   9   -285.3631549 -0.198878E-06  0.152E-03    0.75       5.2  T
  10   -285.3631551 -0.160387E-06  0.911E-04    0.75       8.8  T
  11   -285.3631552 -0.724678E-07  0.540E-04    0.75      14.8  T
     SCC iter.                  ...        0 min,  0.294 sec
     gradient                   ...        0 min,  0.075 sec
 * total energy  :  -280.9833039 Eh     change       -0.1222399E-01 Eh
   gradient norm :     0.0330436 Eh/α   predicted    -0.1083428E-01 ( -11.37%)
   displ. norm   :     0.6331157 α      lambda       -0.1103452E-01
   maximum displ.:     0.1538713 α      in ANC's #40, #31, #1, ...

........................................................................
.............................. CYCLE    5 ..............................
........................................................................
   1   -285.3611127 -0.285361E+03  0.252E-01    0.76       0.0  T
   2   -285.3612276 -0.114968E-03  0.140E-01    0.79       1.0  T
   3   -285.3595956  0.163206E-02  0.887E-02    0.76       1.0  T
   4   -285.3614156 -0.182001E-02  0.170E-02    0.79       1.0  T
   5   -285.3614584 -0.427716E-04  0.891E-03    0.78       1.0  T
   6   -285.3614651 -0.678360E-05  0.349E-03    0.78       2.3  T
   7   -285.3614658 -0.612655E-06  0.206E-03    0.78       3.9  T
   8   -285.3614660 -0.216440E-06  0.156E-03    0.78       5.1  T
   9   -285.3614661 -0.105391E-06  0.111E-03    0.78       7.2  T
  10   -285.3614661 -0.661082E-07  0.784E-04    0.78      10.2  T
  11   -285.3614662 -0.437324E-07  0.484E-04    0.78      16.5  T
     SCC iter.                  ...        0 min,  0.314 sec
     gradient                   ...        0 min,  0.079 sec
 * total energy  :  -280.9883957 Eh     change       -0.5091826E-02 Eh
   gradient norm :     0.0499695 Eh/α   predicted    -0.7728779E-02 (  51.79%)
   displ. norm   :     0.6177280 α      lambda       -0.1183443E-01
   maximum displ.:     0.1686995 α      in ANC's #55, #36, #1, ...

........................................................................
.............................. CYCLE    6 ..............................
........................................................................
   1   -285.3734135 -0.285373E+03  0.284E-01    0.79       0.0  T
   2   -285.3735562 -0.142710E-03  0.157E-01    0.80       1.0  T
   3   -285.3725323  0.102383E-02  0.670E-02    0.78       1.0  T
   4   -285.3736784 -0.114602E-02  0.123E-02    0.80       1.0  T
   5   -285.3736926 -0.142107E-04  0.729E-03    0.80       1.1  T
   6   -285.3736975 -0.493869E-05  0.287E-03    0.80       2.8  T
   7   -285.3736982 -0.709951E-06  0.148E-03    0.80       5.4  T
   8   -285.3736983 -0.116469E-06  0.105E-03    0.80       7.6  T
   9   -285.3736984 -0.406367E-07  0.764E-04    0.80      10.4  T
  10   -285.3736984 -0.358124E-07  0.550E-04    0.80      14.5  T
     SCC iter.                  ...        0 min,  0.296 sec
     gradient                   ...        0 min,  0.078 sec
 * total energy  :  -280.9935877 Eh     change       -0.5192028E-02 Eh
   gradient norm :     0.0423424 Eh/α   predicted    -0.8175163E-02 (  57.46%)
   displ. norm   :     0.4496493 α      lambda       -0.5197396E-02
   maximum displ.:     0.1663076 α      in ANC's #40, #26, #31, ...

........................................................................
.............................. CYCLE    7 ..............................
........................................................................
   1   -285.3763929 -0.285376E+03  0.174E-01    0.80       0.0  T
   2   -285.3764591 -0.662092E-04  0.967E-02    0.80       1.0  T
   3   -285.3762570  0.202138E-03  0.359E-02    0.81       1.0  T
   4   -285.3764920 -0.235020E-03  0.847E-03    0.80       1.0  T
   5   -285.3765006 -0.861865E-05  0.454E-03    0.80       1.8  T
   6   -285.3765029 -0.230111E-05  0.164E-03    0.80       4.9  T
   7   -285.3765031 -0.252358E-06  0.762E-04    0.80      10.5  T
   8   -285.3765032 -0.575688E-07  0.407E-04    0.80      19.6  T
     SCC iter.                  ...        0 min,  0.214 sec
     gradient                   ...        0 min,  0.075 sec
 * total energy  :  -280.9967987 Eh     change       -0.3210923E-02 Eh
   gradient norm :     0.0356427 Eh/α   predicted    -0.3124119E-02 (  -2.70%)
   displ. norm   :     0.6192886 α      lambda       -0.6832485E-02
   maximum displ.:     0.2083163 α      in ANC's #26, #31, #40, ...

........................................................................
.............................. CYCLE    8 ..............................
........................................................................
   1   -285.3745671 -0.285375E+03  0.169E-01    0.81       0.0  T
   2   -285.3746588 -0.916591E-04  0.946E-02    0.82       1.0  T
   3   -285.3743712  0.287576E-03  0.495E-02    0.81       1.0  T
   4   -285.3747163 -0.345127E-03  0.115E-02    0.81       1.0  T
   5   -285.3747307 -0.144008E-04  0.594E-03    0.81       1.3  T
   6   -285.3747346 -0.388116E-05  0.270E-03    0.81       3.0  T
   7   -285.3747353 -0.641081E-06  0.132E-03    0.81       6.1  T
   8   -285.3747354 -0.962097E-07  0.960E-04    0.81       8.3  T
   9   -285.3747354 -0.515802E-07  0.690E-04    0.81      11.6  T
     SCC iter.                  ...        0 min,  0.235 sec
     gradient                   ...        0 min,  0.077 sec
 * total energy  :  -281.0010898 Eh     change       -0.4291115E-02 Eh
   gradient norm :     0.0203042 Eh/α   predicted    -0.4726440E-02 (  10.14%)
   displ. norm   :     0.6752602 α      lambda       -0.4188630E-02
   maximum displ.:     0.2523005 α      in ANC's #31, #26, #40, ...

........................................................................
.............................. CYCLE    9 ..............................
........................................................................
   1   -285.3549348 -0.285355E+03  0.217E-01    0.80       0.0  T
   2   -285.3550141 -0.792973E-04  0.120E-01    0.80       1.0  T
   3   -285.3547857  0.228346E-03  0.341E-02    0.80       1.0  T
   4   -285.3550538 -0.268113E-03  0.823E-03    0.81       1.0  T
   5   -285.3550587 -0.485941E-05  0.464E-03    0.80       1.7  T
   6   -285.3550608 -0.205813E-05  0.166E-03    0.80       4.8  T
   7   -285.3550611 -0.293104E-06  0.754E-04    0.80      10.6  T
   8   -285.3550611 -0.375695E-07  0.441E-04    0.80      18.1  T
     SCC iter.                  ...        0 min,  0.219 sec
     gradient                   ...        0 min,  0.075 sec
 * total energy  :  -281.0032173 Eh     change       -0.2127520E-02 Eh
   gradient norm :     0.0393545 Eh/α   predicted    -0.3049280E-02 (  43.33%)
   displ. norm   :     0.6214647 α      lambda       -0.5367796E-02
   maximum displ.:     0.2155181 α      in ANC's #26, #31, #40, ...

........................................................................
.............................. CYCLE   10 ..............................
........................................................................
   1   -285.3565063 -0.285357E+03  0.181E-01    0.81       0.0  T
   2   -285.3565663 -0.599677E-04  0.101E-01    0.81       1.0  T
   3   -285.3564016  0.164681E-03  0.306E-02    0.81       1.0  T
   4   -285.3565907 -0.189075E-03  0.852E-03    0.81       1.0  T
   5   -285.3565970 -0.636088E-05  0.511E-03    0.81       1.6  T
   6   -285.3566003 -0.328086E-05  0.168E-03    0.81       4.7  T
   7   -285.3566006 -0.273936E-06  0.849E-04    0.81       9.4  T
   8   -285.3566007 -0.836133E-07  0.416E-04    0.81      19.2  T
     SCC iter.                  ...        0 min,  0.218 sec
     gradient                   ...        0 min,  0.075 sec
 * total energy  :  -281.0061406 Eh     change       -0.2923261E-02 Eh
   gradient norm :     0.0212754 Eh/α   predicted    -0.3720469E-02 (  27.27%)
   displ. norm   :     0.5645488 α      lambda       -0.2587621E-02
   maximum displ.:     0.2269679 α      in ANC's #31, #26, #40, ...

........................................................................
.............................. CYCLE   11 ..............................
........................................................................
   1   -285.3628006 -0.285363E+03  0.964E-02    0.81       0.0  T
   2   -285.3628222 -0.216251E-04  0.547E-02    0.81       1.0  T
   3   -285.3626850  0.137185E-03  0.274E-02    0.82       1.0  T
   4   -285.3628348 -0.149842E-03  0.664E-03    0.81       1.2  T
   5   -285.3628411 -0.627087E-05  0.338E-03    0.81       2.4  T
   6   -285.3628425 -0.137921E-05  0.146E-03    0.81       5.5  T
   7   -285.3628427 -0.215861E-06  0.602E-04    0.81      13.3  T
   8   -285.3628427 -0.251349E-07  0.400E-04    0.81      20.0  T
     SCC iter.                  ...        0 min,  0.212 sec
     gradient                   ...        0 min,  0.075 sec
 * total energy  :  -281.0082187 Eh     change       -0.2078119E-02 Eh
   gradient norm :     0.0142470 Eh/α   predicted    -0.1706168E-02 ( -17.90%)
   displ. norm   :     0.7094753 α      lambda       -0.2814787E-02
   maximum displ.:     0.2734801 α      in ANC's #26, #31, #8, ...

........................................................................
.............................. CYCLE   12 ..............................
........................................................................
   1   -285.3745515 -0.285375E+03  0.143E-01    0.80       0.0  T
   2   -285.3745908 -0.393943E-04  0.802E-02    0.80       1.0  T
   3   -285.3744454  0.145473E-03  0.289E-02    0.80       1.0  T
   4   -285.3746106 -0.165207E-03  0.693E-03    0.80       1.2  T
   5   -285.3746149 -0.428743E-05  0.415E-03    0.80       1.9  T
   6   -285.3746173 -0.244518E-05  0.162E-03    0.80       4.9  T
   7   -285.3746176 -0.260083E-06  0.726E-04    0.80      11.0  T
   8   -285.3746176 -0.339091E-07  0.466E-04    0.80      17.1  T
     SCC iter.                  ...        0 min,  0.213 sec
     gradient                   ...        0 min,  0.075 sec
 * total energy  :  -281.0099543 Eh     change       -0.1735638E-02 Eh
   gradient norm :     0.0241566 Eh/α   predicted    -0.2115813E-02 (  21.90%)
   displ. norm   :     0.6480057 α      lambda       -0.2556657E-02
   maximum displ.:     0.2432345 α      in ANC's #26, #31, #8, ...

........................................................................
.............................. CYCLE   13 ..............................
........................................................................
   1   -285.3750895 -0.285375E+03  0.136E-01    0.80       0.0  T
   2   -285.3751285 -0.390247E-04  0.762E-02    0.80       1.0  T
   3   -285.3750291  0.993493E-04  0.256E-02    0.81       1.0  T
   4   -285.3751463 -0.117168E-03  0.626E-03    0.80       1.3  T
   5   -285.3751486 -0.234589E-05  0.397E-03    0.80       2.0  T
   6   -285.3751509 -0.220617E-05  0.139E-03    0.80       5.7  T
   7   -285.3751511 -0.203044E-06  0.609E-04    0.80      13.1  T
   8   -285.3751511 -0.331270E-07  0.336E-04    0.80      23.7  T
     SCC iter.                  ...        0 min,  0.218 sec
     gradient                   ...        0 min,  0.076 sec
 * total energy  :  -281.0116981 Eh     change       -0.1743792E-02 Eh
   gradient norm :     0.0170418 Eh/α   predicted    -0.1815124E-02 (   4.09%)
   displ. norm   :     0.6332726 α      lambda       -0.1580355E-02
   maximum displ.:     0.2379400 α      in ANC's #26, #8, #31, ...

........................................................................
.............................. CYCLE   14 ..............................
........................................................................
   1   -285.3728276 -0.285373E+03  0.863E-02    0.80       0.0  T
   2   -285.3728467 -0.190638E-04  0.494E-02    0.80       1.0  T
   3   -285.3727751  0.716225E-04  0.203E-02    0.80       1.0  T
   4   -285.3728541 -0.790419E-04  0.558E-03    0.80       1.4  T
   5   -285.3728570 -0.291900E-05  0.282E-03    0.80       2.8  T
   6   -285.3728577 -0.653996E-06  0.136E-03    0.80       5.9  T
   7   -285.3728579 -0.239245E-06  0.547E-04    0.80      14.6  T
   8   -285.3728579 -0.313134E-07  0.318E-04    0.80      25.1  T
     SCC iter.                  ...        0 min,  0.217 sec
     gradient                   ...        0 min,  0.075 sec
 * total energy  :  -281.0129769 Eh     change       -0.1278811E-02 Eh
   gradient norm :     0.0156413 Eh/α   predicted    -0.1107068E-02 ( -13.43%)
   displ. norm   :     0.7007903 α      lambda       -0.1641501E-02
   maximum displ.:     0.2782021 α      in ANC's #8, #26, #18, ...

........................................................................
.............................. CYCLE   15 ..............................
........................................................................
   1   -285.3756330 -0.285376E+03  0.873E-02    0.81       0.0  T
   2   -285.3756485 -0.154935E-04  0.503E-02    0.81       1.0  T
   3   -285.3755890  0.594996E-04  0.188E-02    0.81       1.0  T
   4   -285.3756542 -0.652512E-04  0.509E-03    0.81       1.6  T
   5   -285.3756567 -0.245599E-05  0.271E-03    0.81       2.9  T
   6   -285.3756574 -0.669885E-06  0.128E-03    0.81       6.2  T
   7   -285.3756576 -0.194302E-06  0.571E-04    0.81      14.0  T
   8   -285.3756576 -0.243158E-07  0.378E-04    0.81      21.1  T
     SCC iter.                  ...        0 min,  0.216 sec
     gradient                   ...        0 min,  0.075 sec
 * total energy  :  -281.0142865 Eh     change       -0.1309626E-02 Eh
   gradient norm :     0.0119636 Eh/α   predicted    -0.1223832E-02 (  -6.55%)
   displ. norm   :     0.7110642 α      lambda       -0.1480903E-02
   maximum displ.:     0.3060073 α      in ANC's #8, #26, #18, ...

........................................................................
.............................. CYCLE   16 ..............................
........................................................................
   1   -285.3772071 -0.285377E+03  0.100E-01    0.81       0.0  T
   2   -285.3772266 -0.195252E-04  0.574E-02    0.81       1.0  T
   3   -285.3771736  0.529881E-04  0.183E-02    0.81       1.0  T
   4   -285.3772340 -0.603824E-04  0.479E-03    0.81       1.7  T
   5   -285.3772360 -0.203100E-05  0.268E-03    0.81       3.0  T
   6   -285.3772368 -0.730632E-06  0.134E-03    0.81       6.0  T
   7   -285.3772370 -0.242087E-06  0.516E-04    0.81      15.5  T
   8   -285.3772370 -0.162146E-07  0.336E-04    0.81      23.7  T
     SCC iter.                  ...        0 min,  0.215 sec
     gradient                   ...        0 min,  0.075 sec
 * total energy  :  -281.0154673 Eh     change       -0.1180794E-02 Eh
   gradient norm :     0.0130526 Eh/α   predicted    -0.1114839E-02 (  -5.59%)
   displ. norm   :     0.7213455 α      lambda       -0.1296508E-02
   maximum displ.:     0.3187252 α      in ANC's #8, #15, #18, ...

........................................................................
.............................. CYCLE   17 ..............................
........................................................................
   1   -285.3717607 -0.285372E+03  0.895E-02    0.81       0.0  T
   2   -285.3717724 -0.116756E-04  0.518E-02    0.81       1.0  T
   3   -285.3716757  0.966984E-04  0.229E-02    0.81       1.0  T
   4   -285.3717819 -0.106202E-03  0.508E-03    0.81       1.6  T
   5   -285.3717846 -0.268566E-05  0.278E-03    0.81       2.9  T
   6   -285.3717853 -0.750996E-06  0.115E-03    0.81       7.0  T
   7   -285.3717855 -0.148999E-06  0.518E-04    0.81      15.4  T
   8   -285.3717855 -0.270051E-07  0.282E-04    0.81      28.3  T
     SCC iter.                  ...        0 min,  0.222 sec
     gradient                   ...        0 min,  0.078 sec
 * total energy  :  -281.0165468 Eh     change       -0.1079438E-02 Eh
   gradient norm :     0.0109557 Eh/α   predicted    -0.9855721E-03 (  -8.70%)
   displ. norm   :     0.7395718 α      lambda       -0.1321079E-02
   maximum displ.:     0.3422530 α      in ANC's #8, #15, #18, ...

........................................................................
.............................. CYCLE   18 ..............................
........................................................................
   1   -285.3801427 -0.285380E+03  0.922E-02    0.82       0.0  T
   2   -285.3801526 -0.986223E-05  0.531E-02    0.82       1.0  T
   3   -285.3800867  0.658674E-04  0.195E-02    0.82       1.0  T
   4   -285.3801582 -0.715132E-04  0.480E-03    0.82       1.7  T
   5   -285.3801608 -0.259832E-05  0.267E-03    0.82       3.0  T
   6   -285.3801616 -0.767835E-06  0.104E-03    0.82       7.7  T
   7   -285.3801617 -0.964733E-07  0.536E-04    0.82      14.9  T
   8   -285.3801617 -0.144738E-07  0.398E-04    0.82      20.1  T
     SCC iter.                  ...        0 min,  0.225 sec
     gradient                   ...        0 min,  0.078 sec
 * total energy  :  -281.0176373 Eh     change       -0.1090565E-02 Eh
   gradient norm :     0.0113323 Eh/α   predicted    -0.1021836E-02 (  -6.30%)
   displ. norm   :     0.7566356 α      lambda       -0.1322926E-02
   maximum displ.:     0.3572565 α      in ANC's #8, #15, #18, ...

........................................................................
.............................. CYCLE   19 ..............................
........................................................................
   1   -285.3724598 -0.285372E+03  0.965E-02    0.82       0.0  T
   2   -285.3724725 -0.126593E-04  0.558E-02    0.82       1.0  T
   3   -285.3723921  0.803807E-04  0.217E-02    0.82       1.0  T
   4   -285.3724805 -0.883965E-04  0.462E-03    0.82       1.7  T
   5   -285.3724825 -0.194928E-05  0.281E-03    0.82       2.8  T
   6   -285.3724834 -0.960219E-06  0.114E-03    0.82       7.0  T
   7   -285.3724836 -0.150807E-06  0.547E-04    0.82      14.6  T
   8   -285.3724836 -0.164051E-07  0.374E-04    0.82      21.4  T
     SCC iter.                  ...        0 min,  0.226 sec
     gradient                   ...        0 min,  0.078 sec
 * total energy  :  -281.0187113 Eh     change       -0.1074004E-02 Eh
   gradient norm :     0.0152771 Eh/α   predicted    -0.1040151E-02 (  -3.15%)
   displ. norm   :     0.7351372 α      lambda       -0.1329817E-02
   maximum displ.:     0.3403952 α      in ANC's #8, #15, #18, ...

........................................................................
.............................. CYCLE   20 ..............................
........................................................................
   1   -285.3821304 -0.285382E+03  0.901E-02    0.82       0.0  T
   2   -285.3821495 -0.191111E-04  0.519E-02    0.82       1.0  T
   3   -285.3820941  0.553406E-04  0.175E-02    0.81       1.0  T
   4   -285.3821532 -0.590933E-04  0.529E-03    0.82       1.5  T
   5   -285.3821578 -0.461022E-05  0.228E-03    0.82       3.5  T
   6   -285.3821583 -0.421969E-06  0.115E-03    0.82       6.9  T
   7   -285.3821584 -0.148030E-06  0.528E-04    0.82      15.1  T
   8   -285.3821584 -0.345333E-07  0.273E-04    0.82      29.2  T
     SCC iter.                  ...        0 min,  0.230 sec
     gradient                   ...        0 min,  0.078 sec
 * total energy  :  -281.0197624 Eh     change       -0.1051074E-02 Eh
   gradient norm :     0.0156896 Eh/α   predicted    -0.1024242E-02 (  -2.55%)
   displ. norm   :     0.7628412 α      lambda       -0.1325338E-02
   maximum displ.:     0.3659122 α      in ANC's #8, #15, #18, ...
 * RMSD in coord.:     0.7685364 α      energy gain  -0.1889417E+00 Eh

generating ANC from model Hessian ...
Using Lindh-Hessian (1995)
 Shifting diagonal of input Hessian by   1.009178137272108E-002
 Lowest  eigenvalues of input Hessian
    0.010000    0.010069    0.000000    0.000000    0.000000    0.000000
    0.000000    0.000000    0.010097    0.010104    0.010111    0.010111
    0.010146    0.010167    0.010200    0.010217    0.010283    0.010304
 Highest eigenvalues
    2.267778    2.270408    2.594876    2.606725    2.645610    2.655324
 

........................................................................
.............................. CYCLE   21 ..............................
........................................................................
   1   -285.3778253 -0.285378E+03  0.109E-01    0.82       0.0  T
   2   -285.3778471 -0.218292E-04  0.625E-02    0.82       1.0  T
   3   -285.3777478  0.993761E-04  0.240E-02    0.82       1.0  T
   4   -285.3778574 -0.109617E-03  0.528E-03    0.82       1.5  T
   5   -285.3778605 -0.311712E-05  0.302E-03    0.82       2.6  T
   6   -285.3778617 -0.122195E-05  0.134E-03    0.82       5.9  T
   7   -285.3778619 -0.211472E-06  0.523E-04    0.82      15.2  T
   8   -285.3778620 -0.281405E-07  0.251E-04    0.82      31.8  T
     SCC iter.                  ...        0 min,  0.223 sec
     gradient                   ...        0 min,  0.077 sec
 * total energy  :  -281.0207795 Eh     change       -0.1017059E-02 Eh
   gradient norm :     0.0195815 Eh/α   predicted     0.0000000E+00 (-100.00%)
   displ. norm   :     0.1599190 α      lambda       -0.6583831E-03
   maximum displ.:     0.0507411 α      in ANC's #17, #14, #16, ...

........................................................................
.............................. CYCLE   22 ..............................
........................................................................
   1   -285.3814554 -0.285381E+03  0.504E-02    0.82       0.0  T
   2   -285.3814613 -0.591345E-05  0.282E-02    0.82       1.0  T
   3   -285.3814456  0.157259E-04  0.101E-02    0.82       1.0  T
   4   -285.3814636 -0.180462E-04  0.260E-03    0.82       3.1  T
   5   -285.3814643 -0.693454E-06  0.146E-03    0.82       5.5  T
   6   -285.3814645 -0.242111E-06  0.638E-04    0.82      12.5  T
   7   -285.3814646 -0.429516E-07  0.324E-04    0.82      24.6  T
     SCC iter.                  ...        0 min,  0.198 sec
     gradient                   ...        0 min,  0.077 sec
 * total energy  :  -281.0212201 Eh     change       -0.4406614E-03 Eh
   gradient norm :     0.0068038 Eh/α   predicted    -0.3376660E-03 ( -23.37%)
   displ. norm   :     0.3932400 α      lambda       -0.1016350E-02
   maximum displ.:     0.1547821 α      in ANC's #2, #14, #10, ...

........................................................................
.............................. CYCLE   23 ..............................
........................................................................
   1   -285.3851713 -0.285385E+03  0.118E-01    0.83       0.0  T
   2   -285.3851977 -0.263804E-04  0.656E-02    0.82       1.0  T
   3   -285.3851287  0.689683E-04  0.221E-02    0.83       1.0  T
   4   -285.3852103 -0.815641E-04  0.515E-03    0.82       1.6  T
   5   -285.3852123 -0.205428E-05  0.314E-03    0.82       2.5  T
   6   -285.3852135 -0.115961E-05  0.124E-03    0.82       6.4  T
   7   -285.3852137 -0.153961E-06  0.678E-04    0.82      11.8  T
   8   -285.3852137 -0.201572E-07  0.494E-04    0.82      16.1  T
     SCC iter.                  ...        0 min,  0.215 sec
     gradient                   ...        0 min,  0.075 sec
 * total energy  :  -281.0211987 Eh     change        0.2142552E-04 Eh
   gradient norm :     0.0280826 Eh/α   predicted    -0.5867692E-03 (*******%)
   displ. norm   :     0.2311526 α      lambda       -0.1292436E-02
   maximum displ.:     0.0820914 α      in ANC's #17, #16, #14, ...

........................................................................
.............................. CYCLE   24 ..............................
........................................................................
   1   -285.3847678 -0.285385E+03  0.940E-02    0.82       0.0  T
   2   -285.3847844 -0.166377E-04  0.521E-02    0.82       1.0  T
   3   -285.3847767  0.775905E-05  0.948E-03    0.82       1.0  T
   4   -285.3847912 -0.145580E-04  0.254E-03    0.82       3.1  T
   5   -285.3847914 -0.168112E-06  0.155E-03    0.82       5.1  T
   6   -285.3847917 -0.353752E-06  0.554E-04    0.82      14.4  T
   7   -285.3847918 -0.295009E-07  0.333E-04    0.82      23.9  T
     SCC iter.                  ...        0 min,  0.188 sec
     gradient                   ...        0 min,  0.075 sec
 * total energy  :  -281.0219017 Eh     change       -0.7029619E-03 Eh
   gradient norm :     0.0172601 Eh/α   predicted    -0.6807467E-03 (  -3.16%)
   displ. norm   :     0.2817217 α      lambda       -0.1049035E-02
   maximum displ.:     0.0999320 α      in ANC's #80, #2, #17, ...

........................................................................
.............................. CYCLE   25 ..............................
........................................................................
   1   -285.3797175 -0.285380E+03  0.125E-01    0.82       0.0  T
   2   -285.3797445 -0.270398E-04  0.696E-02    0.82       1.0  T
   3   -285.3796810  0.635515E-04  0.231E-02    0.82       1.0  T
   4   -285.3797598 -0.788314E-04  0.359E-03    0.82       2.2  T
   5   -285.3797604 -0.572214E-06  0.239E-03    0.82       3.3  T
   6   -285.3797612 -0.771259E-06  0.883E-04    0.82       9.0  T
   7   -285.3797613 -0.924346E-07  0.328E-04    0.82      24.4  T
     SCC iter.                  ...        0 min,  0.192 sec
     gradient                   ...        0 min,  0.075 sec
 * total energy  :  -281.0220861 Eh     change       -0.1843824E-03 Eh
   gradient norm :     0.0167926 Eh/α   predicted    -0.5661614E-03 ( 207.06%)
   displ. norm   :     0.2871426 α      lambda       -0.9262722E-03
   maximum displ.:     0.1124443 α      in ANC's #2, #14, #17, ...

........................................................................
.............................. CYCLE   26 ..............................
........................................................................
   1   -285.3824684 -0.285382E+03  0.789E-02    0.83       0.0  T
   2   -285.3824777 -0.933079E-05  0.440E-02    0.82       1.0  T
   3   -285.3824665  0.112306E-04  0.103E-02    0.82       1.0  T
   4   -285.3824822 -0.156618E-04  0.215E-03    0.82       3.7  T
   5   -285.3824821  0.262687E-07  0.152E-03    0.82       5.2  T
   6   -285.3824825 -0.352442E-06  0.442E-04    0.82      18.0  T
   7   -285.3824825 -0.235380E-07  0.196E-04    0.82      40.8  T
     SCC iter.                  ...        0 min,  0.192 sec
     gradient                   ...        0 min,  0.075 sec
 * total energy  :  -281.0227729 Eh     change       -0.6868332E-03 Eh
   gradient norm :     0.0071326 Eh/α   predicted    -0.5013220E-03 ( -27.01%)
   displ. norm   :     0.5936608 α      lambda       -0.8812678E-03
   maximum displ.:     0.2252673 α      in ANC's #2, #14, #17, ...

........................................................................
.............................. CYCLE   27 ..............................
........................................................................
   1   -285.3800666 -0.285380E+03  0.100E-01    0.83       0.0  T
   2   -285.3800783 -0.116788E-04  0.566E-02    0.83       1.0  T
   3   -285.3800694  0.893247E-05  0.947E-03    0.82       1.0  T
   4   -285.3800832 -0.138080E-04  0.308E-03    0.82       2.6  T
   5   -285.3800833 -0.104144E-06  0.186E-03    0.83       4.3  T
   6   -285.3800837 -0.455887E-06  0.554E-04    0.82      14.4  T
   7   -285.3800838 -0.365295E-07  0.253E-04    0.82      31.6  T
     SCC iter.                  ...        0 min,  0.193 sec
     gradient                   ...        0 min,  0.075 sec
 * total energy  :  -281.0235152 Eh     change       -0.7423116E-03 Eh
   gradient norm :     0.0075508 Eh/α   predicted    -0.5959289E-03 ( -19.72%)
   displ. norm   :     0.7693589 α      lambda       -0.9799660E-03
   maximum displ.:     0.3016038 α      in ANC's #2, #14, #17, ...

........................................................................
.............................. CYCLE   28 ..............................
........................................................................
   1   -285.3794346 -0.285379E+03  0.108E-01    0.82       0.0  T
   2   -285.3794470 -0.124232E-04  0.618E-02    0.83       1.0  T
   3   -285.3794292  0.178045E-04  0.118E-02    0.82       1.0  T
   4   -285.3794516 -0.224295E-04  0.365E-03    0.83       2.2  T
   5   -285.3794520 -0.406228E-06  0.230E-03    0.83       3.5  T
   6   -285.3794527 -0.636186E-06  0.835E-04    0.83       9.6  T
   7   -285.3794527 -0.811102E-07  0.378E-04    0.83      21.1  T
     SCC iter.                  ...        0 min,  0.189 sec
     gradient                   ...        0 min,  0.075 sec
 * total energy  :  -281.0243273 Eh     change       -0.8121458E-03 Eh
   gradient norm :     0.0080578 Eh/α   predicted    -0.7800275E-03 (  -3.95%)
   displ. norm   :     0.7924288 α      lambda       -0.1064560E-02
   maximum displ.:     0.3134287 α      in ANC's #2, #14, #17, ...

........................................................................
.............................. CYCLE   29 ..............................
........................................................................
   1   -285.3763279 -0.285376E+03  0.143E-01    0.82       0.0  T
   2   -285.3763550 -0.270023E-04  0.805E-02    0.82       1.0  T
   3   -285.3763388  0.161820E-04  0.141E-02    0.82       1.0  T
   4   -285.3763659 -0.271207E-04  0.430E-03    0.82       1.9  T
   5   -285.3763660 -0.127518E-06  0.259E-03    0.82       3.1  T
   6   -285.3763668 -0.804767E-06  0.105E-03    0.82       7.6  T
   7   -285.3763670 -0.153891E-06  0.484E-04    0.82      16.5  T
   8   -285.3763670 -0.112079E-07  0.351E-04    0.82      22.7  T
     SCC iter.                  ...        0 min,  0.219 sec
     gradient                   ...        0 min,  0.077 sec
 * total energy  :  -281.0251510 Eh     change       -0.8236826E-03 Eh
   gradient norm :     0.0143900 Eh/α   predicted    -0.8665246E-03 (   5.20%)
   displ. norm   :     0.7178455 α      lambda       -0.1106507E-02
   maximum displ.:     0.2785750 α      in ANC's #2, #14, #10, ...

........................................................................
.............................. CYCLE   30 ..............................
........................................................................
   1   -285.3825232 -0.285383E+03  0.948E-02    0.82       0.0  T
   2   -285.3825331 -0.995310E-05  0.544E-02    0.82       1.0  T
   3   -285.3824878  0.452989E-04  0.156E-02    0.83       1.0  T
   4   -285.3825383 -0.504309E-04  0.371E-03    0.82       2.2  T
   5   -285.3825396 -0.131003E-05  0.197E-03    0.82       4.1  T
   6   -285.3825399 -0.297947E-06  0.865E-04    0.82       9.2  T
   7   -285.3825399 -0.798314E-07  0.438E-04    0.82      18.2  T
     SCC iter.                  ...        0 min,  0.196 sec
     gradient                   ...        0 min,  0.077 sec
 * total energy  :  -281.0259494 Eh     change       -0.7984240E-03 Eh
   gradient norm :     0.0163687 Eh/α   predicted    -0.8383501E-03 (   5.00%)
   displ. norm   :     0.7332916 α      lambda       -0.1042692E-02
   maximum displ.:     0.2886925 α      in ANC's #2, #14, #10, ...

........................................................................
.............................. CYCLE   31 ..............................
........................................................................
   1   -285.3849804 -0.285385E+03  0.962E-02    0.82       0.0  T
   2   -285.3849914 -0.110381E-04  0.552E-02    0.83       1.0  T
   3   -285.3849704  0.210256E-04  0.126E-02    0.82       1.0  T
   4   -285.3849963 -0.259292E-04  0.305E-03    0.82       2.6  T
   5   -285.3849964 -0.886935E-07  0.199E-03    0.82       4.0  T
   6   -285.3849969 -0.520780E-06  0.790E-04    0.82      10.1  T
   7   -285.3849970 -0.940836E-07  0.319E-04    0.82      25.0  T
     SCC iter.                  ...        0 min,  0.200 sec
     gradient                   ...        0 min,  0.077 sec
 * total energy  :  -281.0268430 Eh     change       -0.8935883E-03 Eh
   gradient norm :     0.0099279 Eh/α   predicted    -0.8016925E-03 ( -10.28%)
   displ. norm   :     0.8309109 α      lambda       -0.9905761E-03
   maximum displ.:     0.3172913 α      in ANC's #2, #14, #10, ...

........................................................................
.............................. CYCLE   32 ..............................
........................................................................
   1   -285.3826355 -0.285383E+03  0.111E-01    0.82       0.0  T
   2   -285.3826484 -0.129036E-04  0.636E-02    0.82       1.0  T
   3   -285.3826226  0.258053E-04  0.146E-02    0.82       1.0  T
   4   -285.3826550 -0.323976E-04  0.348E-03    0.82       2.3  T
   5   -285.3826549  0.103158E-06  0.212E-03    0.82       3.8  T
   6   -285.3826556 -0.692770E-06  0.720E-04    0.82      11.1  T
   7   -285.3826557 -0.686433E-07  0.300E-04    0.82      26.6  T
     SCC iter.                  ...        0 min,  0.198 sec
     gradient                   ...        0 min,  0.077 sec
 * total energy  :  -281.0277301 Eh     change       -0.8870486E-03 Eh
   gradient norm :     0.0083606 Eh/α   predicted    -0.8372493E-03 (  -5.61%)
   displ. norm   :     0.8255997 α      lambda       -0.1007448E-02
   maximum displ.:     0.2991326 α      in ANC's #2, #14, #10, ...

........................................................................
.............................. CYCLE   33 ..............................
........................................................................
   1   -285.3917210 -0.285392E+03  0.905E-02    0.83       0.0  T
   2   -285.3917268 -0.586041E-05  0.526E-02    0.83       1.0  T
   3   -285.3916548  0.719947E-04  0.203E-02    0.83       1.0  T
   4   -285.3917338 -0.789949E-04  0.354E-03    0.82       2.3  T
   5   -285.3917345 -0.647685E-06  0.221E-03    0.83       3.6  T
   6   -285.3917349 -0.472593E-06  0.828E-04    0.83       9.6  T
   7   -285.3917350 -0.682584E-07  0.508E-04    0.83      15.7  T
     SCC iter.                  ...        0 min,  0.200 sec
     gradient                   ...        0 min,  0.077 sec
 * total energy  :  -281.0285804 Eh     change       -0.8503297E-03 Eh
   gradient norm :     0.0101313 Eh/α   predicted    -0.8470759E-03 (  -0.38%)
   displ. norm   :     0.9034208 α      lambda       -0.9661143E-03
   maximum displ.:     0.3449603 α      in ANC's #2, #14, #10, ...

........................................................................
.............................. CYCLE   34 ..............................
........................................................................
   1   -285.3800278 -0.285380E+03  0.111E-01    0.83       0.0  T
   2   -285.3800386 -0.108297E-04  0.641E-02    0.83       1.0  T
   3   -285.3800165  0.221288E-04  0.137E-02    0.82       1.0  T
   4   -285.3800436 -0.271174E-04  0.347E-03    0.83       2.3  T
   5   -285.3800437 -0.271725E-07  0.217E-03    0.83       3.7  T
   6   -285.3800443 -0.636472E-06  0.917E-04    0.83       8.7  T
   7   -285.3800444 -0.134337E-06  0.346E-04    0.83      23.1  T
     SCC iter.                  ...        0 min,  0.198 sec
     gradient                   ...        0 min,  0.077 sec
 * total energy  :  -281.0294266 Eh     change       -0.8462338E-03 Eh
   gradient norm :     0.0127794 Eh/α   predicted    -0.8773252E-03 (   3.67%)
   displ. norm   :     0.8092198 α      lambda       -0.9084761E-03
   maximum displ.:     0.2857715 α      in ANC's #2, #10, #14, ...

........................................................................
.............................. CYCLE   35 ..............................
........................................................................
   1   -285.3840879 -0.285384E+03  0.981E-02    0.83       0.0  T
   2   -285.3840979 -0.100115E-04  0.562E-02    0.83       1.0  T
   3   -285.3840698  0.281127E-04  0.138E-02    0.83       1.0  T
   4   -285.3841026 -0.328831E-04  0.362E-03    0.83       2.2  T
   5   -285.3841031 -0.464048E-06  0.196E-03    0.83       4.1  T
   6   -285.3841035 -0.400774E-06  0.827E-04    0.83       9.7  T
   7   -285.3841036 -0.101078E-06  0.327E-04    0.83      24.4  T
     SCC iter.                  ...        0 min,  0.201 sec
     gradient                   ...        0 min,  0.076 sec
 * total energy  :  -281.0301816 Eh     change       -0.7549603E-03 Eh
   gradient norm :     0.0122541 Eh/α   predicted    -0.7516951E-03 (  -0.43%)
   displ. norm   :     0.8342882 α      lambda       -0.8828999E-03
   maximum displ.:     0.3108338 α      in ANC's #2, #10, #14, ...

........................................................................
.............................. CYCLE   36 ..............................
........................................................................
   1   -285.3820822 -0.285382E+03  0.935E-02    0.82       0.0  T
   2   -285.3820902 -0.795757E-05  0.541E-02    0.82       1.0  T
   3   -285.3820443  0.459194E-04  0.162E-02    0.82       1.0  T
   4   -285.3820955 -0.512151E-04  0.330E-03    0.82       2.4  T
   5   -285.3820960 -0.491361E-06  0.198E-03    0.82       4.0  T
   6   -285.3820963 -0.329681E-06  0.749E-04    0.82      10.7  T
   7   -285.3820964 -0.582997E-07  0.321E-04    0.82      24.9  T
     SCC iter.                  ...        0 min,  0.192 sec
     gradient                   ...        0 min,  0.074 sec
 * total energy  :  -281.0309511 Eh     change       -0.7694996E-03 Eh
   gradient norm :     0.0074637 Eh/α   predicted    -0.7487236E-03 (  -2.70%)
   displ. norm   :     0.8287780 α      lambda       -0.8103094E-03
   maximum displ.:     0.3047283 α      in ANC's #2, #10, #3, ...

........................................................................
.............................. CYCLE   37 ..............................
........................................................................
   1   -285.3839016 -0.285384E+03  0.978E-02    0.82       0.0  T
   2   -285.3839115 -0.988005E-05  0.558E-02    0.82       1.0  T
   3   -285.3838938  0.176290E-04  0.108E-02    0.82       1.0  T
   4   -285.3839151 -0.212597E-04  0.357E-03    0.82       2.2  T
   5   -285.3839159 -0.797514E-06  0.202E-03    0.82       4.0  T
   6   -285.3839164 -0.466883E-06  0.707E-04    0.82      11.3  T
   7   -285.3839164 -0.556436E-07  0.329E-04    0.82      24.3  T
     SCC iter.                  ...        0 min,  0.193 sec
     gradient                   ...        0 min,  0.075 sec
 * total energy  :  -281.0316801 Eh     change       -0.7290007E-03 Eh
   gradient norm :     0.0065247 Eh/α   predicted    -0.6834482E-03 (  -6.25%)
   displ. norm   :     0.8669094 α      lambda       -0.7799132E-03
   maximum displ.:     0.3087134 α      in ANC's #2, #10, #3, ...

........................................................................
.............................. CYCLE   38 ..............................
........................................................................
   1   -285.3869620 -0.285387E+03  0.960E-02    0.82       0.0  T
   2   -285.3869710 -0.893392E-05  0.552E-02    0.82       1.0  T
   3   -285.3869485  0.225138E-04  0.120E-02    0.82       1.0  T
   4   -285.3869747 -0.262505E-04  0.340E-03    0.82       2.3  T
   5   -285.3869753 -0.588032E-06  0.190E-03    0.82       4.2  T
   6   -285.3869757 -0.372218E-06  0.766E-04    0.82      10.4  T
   7   -285.3869757 -0.723067E-07  0.325E-04    0.82      24.6  T
     SCC iter.                  ...        0 min,  0.191 sec
     gradient                   ...        0 min,  0.074 sec
 * total energy  :  -281.0323909 Eh     change       -0.7107819E-03 Eh
   gradient norm :     0.0071488 Eh/α   predicted    -0.6830241E-03 (  -3.91%)
   displ. norm   :     0.8791371 α      lambda       -0.7822486E-03
   maximum displ.:     0.3386597 α      in ANC's #2, #3, #10, ...

........................................................................
.............................. CYCLE   39 ..............................
........................................................................
   1   -285.3845326 -0.285385E+03  0.123E-01    0.82       0.0  T
   2   -285.3845540 -0.213577E-04  0.694E-02    0.82       1.0  T
   3   -285.3845454  0.858848E-05  0.102E-02    0.82       1.0  T
   4   -285.3845602 -0.148392E-04  0.425E-03    0.82       1.9  T
   5   -285.3845614 -0.123810E-05  0.208E-03    0.82       3.8  T
   6   -285.3845619 -0.420986E-06  0.941E-04    0.82       8.5  T
   7   -285.3845620 -0.157533E-06  0.318E-04    0.82      25.1  T
     SCC iter.                  ...        0 min,  0.193 sec
     gradient                   ...        0 min,  0.075 sec
 * total energy  :  -281.0329940 Eh     change       -0.6031386E-03 Eh
   gradient norm :     0.0169576 Eh/α   predicted    -0.6934197E-03 (  14.97%)
   displ. norm   :     0.7851805 α      lambda       -0.8218467E-03
   maximum displ.:     0.2711611 α      in ANC's #3, #2, #10, ...

........................................................................
.............................. CYCLE   40 ..............................
........................................................................
   1   -285.3852856 -0.285385E+03  0.844E-02    0.81       0.0  T
   2   -285.3852939 -0.830450E-05  0.487E-02    0.81       1.0  T
   3   -285.3852581  0.357626E-04  0.161E-02    0.81       1.0  T
   4   -285.3852975 -0.393572E-04  0.356E-03    0.81       2.2  T
   5   -285.3852988 -0.133355E-05  0.183E-03    0.81       4.4  T
   6   -285.3852992 -0.379515E-06  0.849E-04    0.81       9.4  T
   7   -285.3852993 -0.100330E-06  0.340E-04    0.81      23.5  T
     SCC iter.                  ...        0 min,  0.191 sec
     gradient                   ...        0 min,  0.075 sec
 * total energy  :  -281.0336082 Eh     change       -0.6141918E-03 Eh
   gradient norm :     0.0126326 Eh/α   predicted    -0.6642630E-03 (   8.15%)
   displ. norm   :     0.7744833 α      lambda       -0.7118179E-03
   maximum displ.:     0.2884933 α      in ANC's #3, #2, #10, ...

........................................................................
.............................. CYCLE   41 ..............................
........................................................................
   1   -285.3947890 -0.285395E+03  0.803E-02    0.81       0.0  T
   2   -285.3948014 -0.123958E-04  0.470E-02    0.81       1.0  T
   3   -285.3947178  0.835386E-04  0.216E-02    0.82       1.0  T
   4   -285.3948098 -0.919374E-04  0.402E-03    0.81       2.0  T
   5   -285.3948114 -0.168478E-05  0.191E-03    0.81       4.2  T
   6   -285.3948117 -0.223397E-06  0.106E-03    0.81       7.5  T
   7   -285.3948117 -0.822977E-07  0.586E-04    0.81      13.6  T
   8   -285.3948118 -0.328918E-07  0.401E-04    0.81      19.9  T
     SCC iter.                  ...        0 min,  0.224 sec
     gradient                   ...        0 min,  0.074 sec
 * total energy  :  -281.0341622 Eh     change       -0.5539849E-03 Eh
   gradient norm :     0.0123040 Eh/α   predicted    -0.5693980E-03 (   2.78%)
   displ. norm   :     0.8735548 α      lambda       -0.7082644E-03
   maximum displ.:     0.3291508 α      in ANC's #2, #3, #10, ...

........................................................................
.............................. CYCLE   42 ..............................
........................................................................
   1   -285.3754139 -0.285375E+03  0.103E-01    0.81       0.0  T
   2   -285.3754250 -0.110890E-04  0.594E-02    0.81       1.0  T
   3   -285.3753809  0.441352E-04  0.174E-02    0.81       1.0  T
   4   -285.3754304 -0.495520E-04  0.391E-03    0.81       2.0  T
   5   -285.3754313 -0.890349E-06  0.243E-03    0.81       3.3  T
   6   -285.3754321 -0.759646E-06  0.101E-03    0.81       7.9  T
   7   -285.3754322 -0.108583E-06  0.554E-04    0.81      14.4  T
   8   -285.3754322 -0.117637E-07  0.428E-04    0.81      18.6  T
     SCC iter.                  ...        0 min,  0.226 sec
     gradient                   ...        0 min,  0.077 sec
 * total energy  :  -281.0346715 Eh     change       -0.5093355E-03 Eh
   gradient norm :     0.0122076 Eh/α   predicted    -0.6243785E-03 (  22.59%)
   displ. norm   :     0.6607180 α      lambda       -0.7534735E-03
   maximum displ.:     0.2727002 α      in ANC's #3, #7, #2, ...
 * RMSD in coord.:     1.1367689 α      energy gain  -0.1490913E-01 Eh

generating ANC from model Hessian ...
Using Lindh-Hessian (1995)
 Shifting diagonal of input Hessian by   1.010788851910871E-002
 Lowest  eigenvalues of input Hessian
    0.010000    0.010064    0.000000    0.000000    0.000000    0.000000
    0.000000    0.000000    0.010114    0.010120    0.010128    0.010139
    0.010161    0.010188    0.010220    0.010239    0.010298    0.010329
 Highest eigenvalues
    2.276967    2.297576    2.599467    2.603157    2.642337    2.642897
 

........................................................................
.............................. CYCLE   43 ..............................
........................................................................
   1   -285.3877112 -0.285388E+03  0.784E-02    0.81       0.0  T
   2   -285.3877426 -0.313801E-04  0.459E-02    0.82       1.0  T
   3   -285.3876870  0.556277E-04  0.184E-02    0.81       1.0  T
   4   -285.3877485 -0.615119E-04  0.559E-03    0.81       1.4  T
   5   -285.3877535 -0.503936E-05  0.187E-03    0.81       4.3  T
   6   -285.3877538 -0.227091E-06  0.104E-03    0.81       7.7  T
   7   -285.3877538 -0.544670E-07  0.558E-04    0.81      14.3  T
   8   -285.3877538 -0.226847E-07  0.370E-04    0.81      21.6  T
     SCC iter.                  ...        0 min,  0.225 sec
     gradient                   ...        0 min,  0.077 sec
 * total energy  :  -281.0350959 Eh     change       -0.4243492E-03 Eh
   gradient norm :     0.0208706 Eh/α   predicted     0.0000000E+00 (-100.00%)
   displ. norm   :     0.1127915 α      lambda       -0.4815836E-03
   maximum displ.:     0.0351149 α      in ANC's #41, #12, #15, ...

........................................................................
.............................. CYCLE   44 ..............................
........................................................................
   1   -285.3906332 -0.285391E+03  0.729E-02    0.81       0.0  T
   2   -285.3906491 -0.159852E-04  0.408E-02    0.81       1.0  T
   3   -285.3906123  0.368035E-04  0.145E-02    0.81       1.0  T
   4   -285.3906556 -0.433011E-04  0.292E-03    0.81       2.7  T
   5   -285.3906569 -0.124782E-05  0.137E-03    0.81       5.8  T
   6   -285.3906570 -0.158535E-06  0.786E-04    0.81      10.2  T
   7   -285.3906571 -0.686370E-07  0.361E-04    0.81      22.1  T
     SCC iter.                  ...        0 min,  0.199 sec
     gradient                   ...        0 min,  0.077 sec
 * total energy  :  -281.0352399 Eh     change       -0.1440199E-03 Eh
   gradient norm :     0.0069668 Eh/α   predicted    -0.2438752E-03 (  69.33%)
   displ. norm   :     0.1399211 α      lambda       -0.4287004E-03
   maximum displ.:     0.0574745 α      in ANC's #2, #41, #3, ...

........................................................................
.............................. CYCLE   45 ..............................
........................................................................
   1   -285.3948125 -0.285395E+03  0.725E-02    0.81       0.0  T
   2   -285.3948256 -0.130884E-04  0.405E-02    0.81       1.0  T
   3   -285.3947800  0.455402E-04  0.164E-02    0.82       1.0  T
   4   -285.3948327 -0.527222E-04  0.286E-03    0.81       2.8  T
   5   -285.3948337 -0.984699E-06  0.129E-03    0.81       6.2  T
   6   -285.3948338 -0.104796E-06  0.715E-04    0.81      11.2  T
   7   -285.3948339 -0.521914E-07  0.331E-04    0.81      24.1  T
     SCC iter.                  ...        0 min,  0.200 sec
     gradient                   ...        0 min,  0.077 sec
 * total energy  :  -281.0352860 Eh     change       -0.4606100E-04 Eh
   gradient norm :     0.0173661 Eh/α   predicted    -0.2185472E-03 ( 374.47%)
   displ. norm   :     0.0935408 α      lambda       -0.3477848E-03
   maximum displ.:     0.0435266 α      in ANC's #15, #12, #3, ...

........................................................................
.............................. CYCLE   46 ..............................
........................................................................
   1   -285.3927154 -0.285393E+03  0.589E-02    0.81       0.0  T
   2   -285.3927221 -0.672488E-05  0.327E-02    0.81       1.0  T
   3   -285.3927106  0.114814E-04  0.922E-03    0.81       1.0  T
   4   -285.3927253 -0.146043E-04  0.160E-03    0.81       5.0  T
   5   -285.3927254 -0.168225E-06  0.102E-03    0.81       7.8  T
   6   -285.3927256 -0.138118E-06  0.406E-04    0.81      19.7  T
   7   -285.3927256 -0.179585E-07  0.161E-04    0.81      49.5  T
     SCC iter.                  ...        0 min,  0.198 sec
     gradient                   ...        0 min,  0.077 sec
 * total energy  :  -281.0353943 Eh     change       -0.1083121E-03 Eh
   gradient norm :     0.0067549 Eh/α   predicted    -0.1754157E-03 (  61.95%)
   displ. norm   :     0.1368651 α      lambda       -0.4165624E-03
   maximum displ.:     0.0631815 α      in ANC's #2, #41, #7, ...

........................................................................
.............................. CYCLE   47 ..............................
........................................................................
   1   -285.3892029 -0.285389E+03  0.841E-02    0.81       0.0  T
   2   -285.3892187 -0.157731E-04  0.466E-02    0.81       1.0  T
   3   -285.3891827  0.360151E-04  0.148E-02    0.80       1.0  T
   4   -285.3892263 -0.435625E-04  0.283E-03    0.81       2.8  T
   5   -285.3892270 -0.796890E-06  0.137E-03    0.81       5.8  T
   6   -285.3892272 -0.122160E-06  0.687E-04    0.81      11.6  T
   7   -285.3892272 -0.467768E-07  0.304E-04    0.81      26.3  T
     SCC iter.                  ...        0 min,  0.201 sec
     gradient                   ...        0 min,  0.077 sec
 * total energy  :  -281.0354394 Eh     change       -0.4515352E-04 Eh
   gradient norm :     0.0159217 Eh/α   predicted    -0.2121832E-03 ( 369.92%)
   displ. norm   :     0.1235035 α      lambda       -0.3303511E-03
   maximum displ.:     0.0426996 α      in ANC's #3, #12, #2, ...

........................................................................
.............................. CYCLE   48 ..............................
........................................................................
   1   -285.3915788 -0.285392E+03  0.428E-02    0.81       0.0  T
   2   -285.3915835 -0.470565E-05  0.238E-02    0.81       1.0  T
   3   -285.3915746  0.894607E-05  0.768E-03    0.81       1.0  T
   4   -285.3915855 -0.109278E-04  0.151E-03    0.81       5.3  T
   5   -285.3915857 -0.196727E-06  0.835E-04    0.81       9.6  T
   6   -285.3915858 -0.653589E-07  0.381E-04    0.81      20.9  T
     SCC iter.                  ...        0 min,  0.170 sec
     gradient                   ...        0 min,  0.076 sec
 * total energy  :  -281.0356384 Eh     change       -0.1989643E-03 Eh
   gradient norm :     0.0042574 Eh/α   predicted    -0.1676959E-03 ( -15.72%)
   displ. norm   :     0.2590754 α      lambda       -0.2683026E-03
   maximum displ.:     0.0976206 α      in ANC's #3, #2, #7, ...

........................................................................
.............................. CYCLE   49 ..............................
........................................................................
   1   -285.3941475 -0.285394E+03  0.438E-02    0.81       0.0  T
   2   -285.3941514 -0.389513E-05  0.249E-02    0.81       1.0  T
   3   -285.3941356  0.157781E-04  0.946E-03    0.81       1.0  T
   4   -285.3941534 -0.178050E-04  0.186E-03    0.81       4.3  T
   5   -285.3941537 -0.319480E-06  0.103E-03    0.81       7.8  T
   6   -285.3941538 -0.106929E-06  0.512E-04    0.81      15.6  T
   7   -285.3941538 -0.304175E-07  0.216E-04    0.81      36.9  T
     SCC iter.                  ...        0 min,  0.193 sec
     gradient                   ...        0 min,  0.075 sec
 * total energy  :  -281.0357957 Eh     change       -0.1573145E-03 Eh
   gradient norm :     0.0099173 Eh/α   predicted    -0.1431616E-03 (  -9.00%)
   displ. norm   :     0.4176256 α      lambda       -0.2957542E-03
   maximum displ.:     0.1698779 α      in ANC's #2, #3, #7, ...

........................................................................
.............................. CYCLE   50 ..............................
........................................................................
   1   -285.3933131 -0.285393E+03  0.525E-02    0.81       0.0  T
   2   -285.3933159 -0.281042E-05  0.299E-02    0.81       1.0  T
   3   -285.3933096  0.636314E-05  0.604E-03    0.81       1.3  T
   4   -285.3933169 -0.729647E-05  0.222E-03    0.81       3.6  T
   5   -285.3933173 -0.402792E-06  0.114E-03    0.81       7.0  T
   6   -285.3933175 -0.196193E-06  0.337E-04    0.81      23.7  T
   7   -285.3933175 -0.113321E-07  0.147E-04    0.81      54.3  T
     SCC iter.                  ...        0 min,  0.195 sec
     gradient                   ...        0 min,  0.075 sec
 * total energy  :  -281.0360657 Eh     change       -0.2699769E-03 Eh
   gradient norm :     0.0098273 Eh/α   predicted    -0.1736725E-03 ( -35.67%)
   displ. norm   :     0.7483713 α      lambda       -0.5517197E-03
   maximum displ.:     0.3178524 α      in ANC's #2, #3, #7, ...

........................................................................
.............................. CYCLE   51 ..............................
........................................................................
   1   -285.3891295 -0.285389E+03  0.112E-01    0.81       0.0  T
   2   -285.3891458 -0.162326E-04  0.631E-02    0.81       1.0  T
   3   -285.3891280  0.177191E-04  0.110E-02    0.81       1.0  T
   4   -285.3891510 -0.230060E-04  0.438E-03    0.81       1.8  T
   5   -285.3891527 -0.165193E-05  0.204E-03    0.81       3.9  T
   6   -285.3891532 -0.477564E-06  0.656E-04    0.81      12.2  T
   7   -285.3891532 -0.467032E-07  0.274E-04    0.81      29.1  T
     SCC iter.                  ...        0 min,  0.194 sec
     gradient                   ...        0 min,  0.075 sec
 * total energy  :  -281.0365087 Eh     change       -0.4429622E-03 Eh
   gradient norm :     0.0066191 Eh/α   predicted    -0.4303598E-03 (  -2.85%)
   displ. norm   :     0.7368094 α      lambda       -0.5159127E-03
   maximum displ.:     0.3069584 α      in ANC's #2, #3, #7, ...

........................................................................
.............................. CYCLE   52 ..............................
........................................................................
   1   -285.3884469 -0.285388E+03  0.924E-02    0.81       0.0  T
   2   -285.3884565 -0.960206E-05  0.527E-02    0.81       1.0  T
   3   -285.3884370  0.194935E-04  0.109E-02    0.81       1.0  T
   4   -285.3884601 -0.230951E-04  0.360E-03    0.81       2.2  T
   5   -285.3884611 -0.100273E-05  0.188E-03    0.81       4.3  T
   6   -285.3884615 -0.409855E-06  0.602E-04    0.81      13.3  T
   7   -285.3884616 -0.356411E-07  0.237E-04    0.81      33.7  T
     SCC iter.                  ...        0 min,  0.191 sec
     gradient                   ...        0 min,  0.075 sec
 * total energy  :  -281.0368850 Eh     change       -0.3763750E-03 Eh
   gradient norm :     0.0063587 Eh/α   predicted    -0.3980006E-03 (   5.75%)
   displ. norm   :     0.6957490 α      lambda       -0.4254760E-03
   maximum displ.:     0.2853979 α      in ANC's #2, #3, #7, ...

........................................................................
.............................. CYCLE   53 ..............................
........................................................................
   1   -285.3884261 -0.285388E+03  0.814E-02    0.81       0.0  T
   2   -285.3884329 -0.677258E-05  0.464E-02    0.81       1.0  T
   3   -285.3884216  0.113064E-04  0.866E-03    0.81       1.0  T
   4   -285.3884355 -0.138423E-04  0.295E-03    0.81       2.7  T
   5   -285.3884360 -0.513031E-06  0.154E-03    0.81       5.2  T
   6   -285.3884363 -0.357011E-06  0.524E-04    0.81      15.2  T
   7   -285.3884364 -0.319922E-07  0.229E-04    0.81      34.9  T
     SCC iter.                  ...        0 min,  0.194 sec
     gradient                   ...        0 min,  0.076 sec
 * total energy  :  -281.0372721 Eh     change       -0.3870242E-03 Eh
   gradient norm :     0.0073281 Eh/α   predicted    -0.3157184E-03 ( -18.42%)
   displ. norm   :     0.6964973 α      lambda       -0.5794375E-03
   maximum displ.:     0.2908486 α      in ANC's #3, #2, #7, ...

........................................................................
.............................. CYCLE   54 ..............................
........................................................................
   1   -285.3982327 -0.285398E+03  0.731E-02    0.82       0.0  T
   2   -285.3982374 -0.474023E-05  0.422E-02    0.81       1.0  T
   3   -285.3981868  0.506338E-04  0.175E-02    0.82       1.0  T
   4   -285.3982426 -0.558102E-04  0.280E-03    0.81       2.8  T
   5   -285.3982430 -0.406106E-06  0.176E-03    0.81       4.5  T
   6   -285.3982434 -0.370927E-06  0.617E-04    0.81      12.9  T
   7   -285.3982434 -0.511274E-07  0.266E-04    0.81      30.0  T
     SCC iter.                  ...        0 min,  0.192 sec
     gradient                   ...        0 min,  0.076 sec
 * total energy  :  -281.0377575 Eh     change       -0.4854663E-03 Eh
   gradient norm :     0.0065022 Eh/α   predicted    -0.4302655E-03 ( -11.37%)
   displ. norm   :     0.8372152 α      lambda       -0.5467911E-03
   maximum displ.:     0.3463119 α      in ANC's #3, #2, #7, ...

........................................................................
.............................. CYCLE   55 ..............................
........................................................................
   1   -285.3957595 -0.285396E+03  0.988E-02    0.81       0.0  T
   2   -285.3957708 -0.113149E-04  0.562E-02    0.81       1.0  T
   3   -285.3957639  0.689382E-05  0.857E-03    0.81       1.0  T
   4   -285.3957748 -0.109009E-04  0.329E-03    0.81       2.4  T
   5   -285.3957751 -0.336967E-06  0.185E-03    0.81       4.3  T
   6   -285.3957757 -0.532573E-06  0.619E-04    0.81      12.9  T
   7   -285.3957757 -0.522341E-07  0.252E-04    0.81      31.7  T
     SCC iter.                  ...        0 min,  0.198 sec
     gradient                   ...        0 min,  0.077 sec
 * total energy  :  -281.0382561 Eh     change       -0.4985497E-03 Eh
   gradient norm :     0.0061451 Eh/α   predicted    -0.4650336E-03 (  -6.72%)
   displ. norm   :     0.8346882 α      lambda       -0.5728645E-03
   maximum displ.:     0.3496616 α      in ANC's #3, #2, #7, ...

........................................................................
.............................. CYCLE   56 ..............................
........................................................................
   1   -285.3960805 -0.285396E+03  0.846E-02    0.81       0.0  T
   2   -285.3960868 -0.626098E-05  0.486E-02    0.81       1.0  T
   3   -285.3960677  0.190584E-04  0.116E-02    0.81       1.0  T
   4   -285.3960901 -0.223078E-04  0.281E-03    0.81       2.8  T
   5   -285.3960903 -0.210780E-06  0.159E-03    0.81       5.0  T
   6   -285.3960906 -0.305488E-06  0.565E-04    0.81      14.1  T
   7   -285.3960906 -0.364110E-07  0.224E-04    0.81      35.7  T
     SCC iter.                  ...        0 min,  0.198 sec
     gradient                   ...        0 min,  0.077 sec
 * total energy  :  -281.0387607 Eh     change       -0.5045785E-03 Eh
   gradient norm :     0.0058707 Eh/α   predicted    -0.4859962E-03 (  -3.68%)
   displ. norm   :     0.8531243 α      lambda       -0.5176676E-03
   maximum displ.:     0.3629309 α      in ANC's #3, #2, #7, ...

........................................................................
.............................. CYCLE   57 ..............................
........................................................................
   1   -285.3920966 -0.285392E+03  0.891E-02    0.81       0.0  T
   2   -285.3921044 -0.785177E-05  0.510E-02    0.81       1.0  T
   3   -285.3920980  0.644819E-05  0.756E-03    0.81       1.1  T
   4   -285.3921068 -0.879191E-05  0.318E-03    0.81       2.5  T
   5   -285.3921074 -0.652917E-06  0.165E-03    0.81       4.8  T
   6   -285.3921078 -0.409799E-06  0.532E-04    0.81      15.0  T
   7   -285.3921079 -0.343678E-07  0.201E-04    0.81      39.8  T
     SCC iter.                  ...        0 min,  0.195 sec
     gradient                   ...        0 min,  0.077 sec
 * total energy  :  -281.0392203 Eh     change       -0.4596650E-03 Eh
   gradient norm :     0.0070288 Eh/α   predicted    -0.4472226E-03 (  -2.71%)
   displ. norm   :     0.8185789 α      lambda       -0.4915582E-03
   maximum displ.:     0.3541533 α      in ANC's #3, #2, #5, ...

........................................................................
.............................. CYCLE   58 ..............................
........................................................................
   1   -285.3890915 -0.285389E+03  0.911E-02    0.81       0.0  T
   2   -285.3891001 -0.860535E-05  0.519E-02    0.81       1.0  T
   3   -285.3890914  0.873839E-05  0.859E-03    0.81       1.0  T
   4   -285.3891033 -0.119263E-04  0.309E-03    0.81       2.6  T
   5   -285.3891038 -0.445943E-06  0.149E-03    0.81       5.4  T
   6   -285.3891041 -0.277138E-06  0.551E-04    0.81      14.5  T
[...]
    67   7 N    3.519 --    68 C    1.152    66 C    1.141    76 C    0.978
    68   6 C    3.936 --    50 C    1.287    69 C    1.232    67 N    1.152
    69   6 C    3.935 --    44 C    1.288    68 C    1.232    70 N    1.151
    70   7 N    3.517 --    69 C    1.151    71 C    1.139    74 C    0.978
    71   6 C    3.938 --    43 C    1.325    72 C    1.246    70 N    1.139
    72   6 C    3.927 --    41 C    1.352    71 C    1.246    73 S    1.108
    73  16 S    2.515 --    72 C    1.108    31 C    1.071
    74   6 C    3.968 --    75 C    1.006    70 N    0.978   138 H    0.969
                           137 H    0.968
    75   6 C    3.989 --    74 C    1.006   139 H    0.987   141 H    0.984
                           140 H    0.983
    76   6 C    3.967 --    77 C    1.005    67 N    0.978   142 H    0.969
                           143 H    0.966
    77   6 C    3.990 --    76 C    1.005   145 H    0.987   144 H    0.984
                           146 H    0.983
    78   6 C    3.899 --    87 C    1.464    63 C    1.188    79 S    1.105
    79  16 S    2.536 --    80 C    1.108    78 C    1.105
    80   6 C    3.922 --    81 C    1.333    86 C    1.253    79 S    1.108
    81   6 C    3.928 --    80 C    1.333    82 C    1.217    90 S    1.154
    82   6 C    3.935 --    88 C    1.361    81 C    1.217    83 N    1.148
    83   7 N    3.573 --    86 C    1.172    82 C    1.148    84 C    0.985
    84   6 C    3.967 --    85 C    1.006    83 N    0.985   148 H    0.970
                           147 H    0.969
    85   6 C    3.989 --    84 C    1.006   151 H    0.987   149 H    0.986
                           150 H    0.984
    86   6 C    3.922 --    87 C    1.293    80 C    1.253    83 N    1.172
    87   6 C    3.952 --    78 C    1.464    86 C    1.293   152 H    0.957
    88   6 C    3.947 --    89 C    1.386    82 C    1.361   153 H    0.933
    89   6 C    3.918 --    88 C    1.386    91 C    1.307    90 S    1.059
    90  16 S    2.530 --    81 C    1.154    89 C    1.059
    91   6 C    3.940 --    92 C    1.483    89 C    1.307   154 H    0.941
    92   6 C    3.946 --    91 C    1.483   102 C    1.142    93 C    1.059
    93   6 C    3.920 --    94 O    1.733    92 C    1.059    95 C    1.014
    94   8 O    2.040 --    93 C    1.733
    95   6 C    3.977 --    96 C    1.427   101 C    1.297    93 C    1.014
    96   6 C    3.979 --    95 C    1.427    97 C    1.383   155 H    0.962
    97   6 C    3.905 --    99 C    1.395    96 C    1.383    98 Cl   0.991
    98  17 Cl   1.127 --    97 C    0.991
    99   6 C    3.977 --   100 C    1.437    97 C    1.395   156 H    0.966
   100   6 C    3.975 --    99 C    1.437   101 C    1.395   157 H    0.959
   101   6 C    3.981 --   100 C    1.395    95 C    1.297   102 C    1.084
   102   6 C    3.969 --   103 C    1.483    92 C    1.142   101 C    1.084
   103   6 C    3.941 --   102 C    1.483   104 C    1.097   106 C    1.096
   104   6 C    3.945 --   105 N    2.750   103 C    1.097
   105   7 N    2.962 --   104 C    2.750
   106   6 C    3.944 --   107 N    2.761   103 C    1.096
   107   7 N    2.966 --   106 C    2.761
   108   1 H    0.995 --     1 C    0.938
   109   1 H    0.993 --     6 C    0.962
   110   1 H    0.995 --     9 C    0.966
   111   1 H    0.995 --    10 C    0.959
   112   1 H    0.996 --    24 C    0.970
   113   1 H    0.996 --    24 C    0.970
   114   1 H    0.998 --    25 C    0.987
   115   1 H    0.996 --    25 C    0.984
   116   1 H    0.997 --    25 C    0.986
   117   1 H    0.997 --    27 C    0.961
   118   1 H    0.997 --    28 C    0.958
   119   1 H    0.998 --    34 C    0.967
   120   1 H    0.997 --    35 C    0.970
   121   1 H    0.998 --    36 C    0.969
   122   1 H    0.998 --    38 C    0.974
   123   1 H    0.998 --    38 C    0.974
   124   1 H    0.999 --    39 C    0.988
   125   1 H    0.999 --    39 C    0.988
   126   1 H    0.998 --    39 C    0.986
   127   1 H    0.999 --    40 C    0.968
   128   1 H    0.999 --    56 C    0.970
   129   1 H    0.998 --    57 C    0.970
   130   1 H    0.998 --    58 C    0.969
   131   1 H    0.998 --    60 C    0.974
   132   1 H    0.998 --    60 C    0.974
   133   1 H    0.999 --    61 C    0.988
   134   1 H    0.998 --    61 C    0.986
   135   1 H    0.999 --    61 C    0.988
   136   1 H    0.999 --    62 C    0.966
   137   1 H    0.996 --    74 C    0.968
   138   1 H    0.995 --    74 C    0.969
   139   1 H    0.998 --    75 C    0.987
   140   1 H    0.997 --    75 C    0.983
   141   1 H    0.997 --    75 C    0.984
   142   1 H    0.995 --    76 C    0.969
   143   1 H    0.996 --    76 C    0.966
   144   1 H    0.997 --    77 C    0.984
   145   1 H    0.998 --    77 C    0.987
   146   1 H    0.997 --    77 C    0.983
   147   1 H    0.995 --    84 C    0.969
   148   1 H    0.996 --    84 C    0.970
   149   1 H    0.997 --    85 C    0.986
   150   1 H    0.996 --    85 C    0.984
   151   1 H    0.998 --    85 C    0.987
   152   1 H    0.997 --    87 C    0.957
   153   1 H    0.989 --    88 C    0.933
   154   1 H    0.994 --    91 C    0.941
   155   1 H    0.994 --    96 C    0.962
   156   1 H    0.995 --    99 C    0.966
   157   1 H    0.995 --   100 C    0.959
 ---------------------------------------------------------------------------

Topologies differ in bond orders
Writing corrected topology to xtbtopo.mol

molecular dipole:
                 x           y           z       tot (Debye)
 q only:       -1.870      -1.902      -3.166
   full:       -2.524      -1.142      -2.984      10.350
molecular quadrupole (traceless):
                xx          xy          yy          xz          yz          zz
 q only:      131.013      57.179     -86.636      -6.562     142.483     -44.376
  q+dip:      128.810      95.335     -96.604     -34.491     150.670     -32.206
   full:      125.880     102.007     -97.648     -30.304     154.943     -28.232

           -------------------------------------------------
          |                Geometry Summary                 |
           -------------------------------------------------

      molecular mass/u    :     1590.8536569
   center of mass at/Å    :        0.2128382       0.0743854      -0.0699897
  moments of inertia/u·Å² :        0.4159322E+05   0.1788879E+06   0.2093840E+06
rotational constants/cm⁻¹ :        0.4052976E-03   0.9423572E-04   0.8051059E-04

 * 156 selected distances

     #   Z          #   Z                                           value/Å
     1   6 C        2   6 C                                       1.3753740
     3   6 C        4   8 O                                       1.2172489
     5   6 C        6   6 C                                       1.3786013
     6   6 C        7   6 C                                       1.3904407
     7   6 C        8  17 Cl                                      1.7234702
     7   6 C        9   6 C                                       1.3896116
     9   6 C       10   6 C                                       1.3872058
     5   6 C       11   6 C                                       1.4054930
    10   6 C       11   6 C                                       1.3869023
    12   6 C       13   6 C                                       1.3731252
    14   6 C       15   7 N                                       1.1495905
    16   6 C       17   7 N                                       1.1483733
     1   6 C       18   6 C                                       1.3976399
    19  16 S       20   6 C                                       1.7199972
    20   6 C       21   6 C                                       1.3926849
    21   6 C       22   6 C                                       1.4136859
    22   6 C       23   7 N                                       1.3676384
    23   7 N       24   6 C                                       1.4397373
    24   6 C       25   6 C                                       1.5274273
    20   6 C       26   6 C                                       1.4244400
    23   7 N       26   6 C                                       1.3730877
    18   6 C       27   6 C                                       1.4019362
    26   6 C       27   6 C                                       1.3785851
    22   6 C       28   6 C                                       1.3950554
    28   6 C       29   6 C                                       1.3809897
    21   6 C       30  16 S                                       1.7290521
    29   6 C       30  16 S                                       1.7590005
    29   6 C       31   6 C                                       1.4236412
    31   6 C       32   6 C                                       1.3836074
    33   6 C       34   6 C                                       1.3912975
    34   6 C       35   6 C                                       1.3819547
    35   6 C       36   6 C                                       1.3833914
    36   6 C       37   6 C                                       1.3897183
    38   6 C       39   6 C                                       1.5298305
    33   6 C       40   6 C                                       1.3919576
    37   6 C       40   6 C                                       1.3854584
    32   6 C       41   6 C                                       1.4106194
    41   6 C       42  16 S                                       1.7485847
    42  16 S       43   6 C                                       1.7328905
    43   6 C       44   6 C                                       1.4096898
    44   6 C       45   6 C                                       1.4138716
    45   6 C       46   6 C                                       1.4429729
    46   6 C       47   7 N                                       1.3233494
    47   7 N       48  16 S                                       1.6180949
    45   6 C       49   7 N                                       1.3233797
    48  16 S       49   7 N                                       1.6180705
    46   6 C       50   6 C                                       1.4143139
    50   6 C       51   6 C                                       1.4091918
    51   6 C       52  16 S                                       1.7332475
    52  16 S       53   6 C                                       1.7483647
    53   6 C       54   6 C                                       1.4090796
    55   6 C       56   6 C                                       1.3922098
    56   6 C       57   6 C                                       1.3813913
    57   6 C       58   6 C                                       1.3838513
    58   6 C       59   6 C                                       1.3892276
    60   6 C       61   6 C                                       1.5300798
    55   6 C       62   6 C                                       1.3897307
    59   6 C       62   6 C                                       1.3865696
    54   6 C       63   6 C                                       1.3833758
    53   6 C       65   6 C                                       1.3956328
    64  16 S       65   6 C                                       1.7254234
    51   6 C       66   6 C                                       1.3990565
    65   6 C       66   6 C                                       1.3972297
    66   6 C       67   7 N                                       1.3731094
    50   6 C       68   6 C                                       1.4176100
    67   7 N       68   6 C                                       1.3834681
    44   6 C       69   6 C                                       1.4174310
    68   6 C       69   6 C                                       1.4087298
    69   6 C       70   7 N                                       1.3831828
    43   6 C       71   6 C                                       1.3989098
    70   7 N       71   6 C                                       1.3733277
    41   6 C       72   6 C                                       1.3954644
    71   6 C       72   6 C                                       1.3971502
    72   6 C       73  16 S                                       1.7252212
    70   7 N       74   6 C                                       1.4492395
    74   6 C       75   6 C                                       1.5284589
    67   7 N       76   6 C                                       1.4492198
    76   6 C       77   6 C                                       1.5286074
    63   6 C       78   6 C                                       1.4215834
    78   6 C       79  16 S                                       1.7591264 (max)
    79  16 S       80   6 C                                       1.7298203
    80   6 C       81   6 C                                       1.3906309
    81   6 C       82   6 C                                       1.4243778
    82   6 C       83   7 N                                       1.3717877
    83   7 N       84   6 C                                       1.4403489
    84   6 C       85   6 C                                       1.5270790
    80   6 C       86   6 C                                       1.4153224
    83   7 N       86   6 C                                       1.3653924
    78   6 C       87   6 C                                       1.3810477
    86   6 C       87   6 C                                       1.3948950
    82   6 C       88   6 C                                       1.3829038
    88   6 C       89   6 C                                       1.3911162
    81   6 C       90  16 S                                       1.7149913
    89   6 C       91   6 C                                       1.4001200
    91   6 C       92   6 C                                       1.3766225
    93   6 C       94   8 O                                       1.2165731
    95   6 C       96   6 C                                       1.3791884
    96   6 C       97   6 C                                       1.3895103
    97   6 C       98  17 Cl                                      1.7239614
    97   6 C       99   6 C                                       1.3898016
    99   6 C      100   6 C                                       1.3869409
    95   6 C      101   6 C                                       1.4032567
   100   6 C      101   6 C                                       1.3874620
   102   6 C      103   6 C                                       1.3720920
   104   6 C      105   7 N                                       1.1491073
   106   6 C      107   7 N                                       1.1483276
     1   6 C      108   1 H                                       1.0832856
     6   6 C      109   1 H                                       1.0784803
     9   6 C      110   1 H                                       1.0786959
    10   6 C      111   1 H                                       1.0774796
    24   6 C      112   1 H                                       1.0930680
    24   6 C      113   1 H                                       1.0932936
    25   6 C      114   1 H                                       1.0875020
    25   6 C      115   1 H                                       1.0862945
    25   6 C      116   1 H                                       1.0873096
    27   6 C      117   1 H                                       1.0753978
    28   6 C      118   1 H                                       1.0753452
    34   6 C      119   1 H                                       1.0793525
    35   6 C      120   1 H                                       1.0798224
    36   6 C      121   1 H                                       1.0803977
    38   6 C      122   1 H                                       1.0914719
    38   6 C      123   1 H                                       1.0918249
    39   6 C      124   1 H                                       1.0878245
    39   6 C      125   1 H                                       1.0876061
    39   6 C      126   1 H                                       1.0875280
    40   6 C      127   1 H                                       1.0812685
    56   6 C      128   1 H                                       1.0802855
    57   6 C      129   1 H                                       1.0798972
    58   6 C      130   1 H                                       1.0803895
    60   6 C      131   1 H                                       1.0915684
    60   6 C      132   1 H                                       1.0916193
    61   6 C      133   1 H                                       1.0875948
    61   6 C      134   1 H                                       1.0874216
    61   6 C      135   1 H                                       1.0877054
    62   6 C      136   1 H                                       1.0806010
    74   6 C      137   1 H                                       1.0894954
    74   6 C      138   1 H                                       1.0952921
    75   6 C      139   1 H                                       1.0878226
    75   6 C      140   1 H                                       1.0864683
    75   6 C      141   1 H                                       1.0863095
    76   6 C      142   1 H                                       1.0943513
    76   6 C      143   1 H                                       1.0869999
    77   6 C      144   1 H                                       1.0863979
    77   6 C      145   1 H                                       1.0879364
    77   6 C      146   1 H                                       1.0864168
    84   6 C      147   1 H                                       1.0927466
    84   6 C      148   1 H                                       1.0933315
    85   6 C      149   1 H                                       1.0872020
    85   6 C      150   1 H                                       1.0862278
    85   6 C      151   1 H                                       1.0876867
    87   6 C      152   1 H                                       1.0751961
    88   6 C      153   1 H                                       1.0738310 (min)
    91   6 C      154   1 H                                       1.0834568
    96   6 C      155   1 H                                       1.0785345
    99   6 C      156   1 H                                       1.0787213
   100   6 C      157   1 H                                       1.0772444

 * 7 distinct bonds (by element types)

   Z      Z             #   av. dist./Å        max./Å        min./Å
   1 H    6 C          50     1.0850400     1.0952921     1.0738310
   6 C    6 C          70     1.4072066     1.5300798     1.3720920
   6 C    7 N          18     1.3339815     1.4492395     1.1483276
   6 C    8 O           2     1.2169110     1.2172489     1.2165731
   6 C   16 S          12     1.7354767     1.7591264     1.7149913
   7 N   16 S           2     1.6180827     1.6180949     1.6180705
   6 C   17 Cl          2     1.7237158     1.7239614     1.7234702


optimized geometry written to: xtbopt.mol


           -------------------------------------------------
          | TOTAL ENERGY             -281.075805812040 Eh   |
          | GRADIENT NORM               0.000318020270 Eh/α |
          | HOMO-LUMO GAP               0.922769205874 eV   |
           -------------------------------------------------

------------------------------------------------------------------------
 * finished run on 2022/02/11 at 04:49:02.490     
------------------------------------------------------------------------
 total:
 * wall-time:     0 d,  0 h,  2 min, 17.340 sec
 *  cpu-time:     0 d,  0 h, 18 min, 18.529 sec
 * ratio c/w:     7.999 speedup
 SCF:
 * wall-time:     0 d,  0 h,  0 min,  0.558 sec
 *  cpu-time:     0 d,  0 h,  0 min,  4.448 sec
 * ratio c/w:     7.973 speedup
 ANC optimizer:
 * wall-time:     0 d,  0 h,  2 min, 16.698 sec
 *  cpu-time:     0 d,  0 h, 18 min, 13.512 sec
 * ratio c/w:     7.999 speedup

