      -----------------------------------------------------------      
     |                   =====================                   |     
     |                           x T B                           |     
     |                   =====================                   |     
     |                         S. Grimme                         |     
     |          Mulliken Center for Theoretical Chemistry        |     
     |                    University of Bonn                     |     
      -----------------------------------------------------------      

   * xtb version 6.4.1 (unknown) compiled by 'oda6@login1.crc.pitt.edu' on 2021-06-25

   xtb is free software: you can redistribute it and/or modify it under
   the terms of the GNU Lesser General Public License as published by
   the Free Software Foundation, either version 3 of the License, or
   (at your option) any later version.
   
   xtb is distributed in the hope that it will be useful,
   but WITHOUT ANY WARRANTY; without even the implied warranty of
   MERCHANTABILITY or FITNESS FOR A PARTICULAR PURPOSE.  See the
   GNU Lesser General Public License for more details.
   
   Cite this work as:
   * C. Bannwarth, E. Caldeweyher, S. Ehlert, A. Hansen, P. Pracht,
     J. Seibert, S. Spicher, S. Grimme, WIREs Comput. Mol. Sci., 2020, 11,
     e01493. DOI: 10.1002/wcms.1493
   
   for GFN2-xTB:
   * C. Bannwarth, S. Ehlert and S. Grimme., J. Chem. Theory Comput., 2019,
     15, 1652-1671. DOI: 10.1021/acs.jctc.8b01176
   for GFN1-xTB:
   * S. Grimme, C. Bannwarth, P. Shushkov, J. Chem. Theory Comput., 2017,
     13, 1989-2009. DOI: 10.1021/acs.jctc.7b00118
   for GFN0-xTB:
   * P. Pracht, E. Caldeweyher, S. Ehlert, S. Grimme, ChemRxiv, 2019, preprint.
     DOI: 10.26434/chemrxiv.8326202.v1
   for GFN-FF:
   * S. Spicher and S. Grimme, Angew. Chem. Int. Ed., 2020, 59, 15665-15673.
     DOI: 10.1002/anie.202004239
   
   for DFT-D4:
   * E. Caldeweyher, C. Bannwarth and S. Grimme, J. Chem. Phys., 2017,
     147, 034112. DOI: 10.1063/1.4993215
   * E. Caldeweyher, S. Ehlert, A. Hansen, H. Neugebauer, S. Spicher,
     C. Bannwarth and S. Grimme, J. Chem. Phys., 2019, 150, 154122.
     DOI: 10.1063/1.5090222
   * E. Caldeweyher, J.-M. Mewes, S. Ehlert and S. Grimme, Phys. Chem. Chem. Phys.
     2020, 22, 8499-8512. DOI: 10.1039/D0CP00502A
   
   for sTDA-xTB:
   * S. Grimme and C. Bannwarth, J. Chem. Phys., 2016, 145, 054103.
     DOI: 10.1063/1.4959605
   
   in the mass-spec context:
   * V. Asgeirsson, C. Bauer and S. Grimme, Chem. Sci., 2017, 8, 4879.
     DOI: 10.1039/c7sc00601b
   * J. Koopman and S. Grimme, ACS Omega 2019, 4, 12, 15120-15133.
     DOI: 10.1021/acsomega.9b02011
   
   for metadynamics refer to:
   * S. Grimme, J. Chem. Theory Comput., 2019, 155, 2847-2862
     DOI: 10.1021/acs.jctc.9b00143
   
   for SPH calculations refer to:
   * S. Spicher and S. Grimme, J. Chem. Theory Comput., 2021, 17, 1701-1714
     DOI: 10.1021/acs.jctc.0c01306
   
   with help from (in alphabetical order)
   P. Atkinson, C. Bannwarth, F. Bohle, G. Brandenburg, E. Caldeweyher
   M. Checinski, S. Dohm, S. Ehlert, S. Ehrlich, I. Gerasimov, J. Koopman
   C. Lavigne, S. Lehtola, F. März, M. Müller, F. Musil, H. Neugebauer
   J. Pisarek, C. Plett, P. Pracht, J. Seibert, P. Shushkov, S. Spicher
   M. Stahn, M. Steiner, T. Strunk, J. Stückrath, T. Rose, and J. Unsleber
   
 * started run on 2022/02/03 at 17:00:43.993     

           -------------------------------------------------
          |                Calculation Setup                |
           -------------------------------------------------

          program call               : /ihome/ghutchison/oda6/xtb/xtb-641/bin/xtb ../../FF_optimized/37_35_31_21_8.mol -opt
          hostname                   : smp-n36
          coordinate file            : ../../FF_optimized/37_35_31_21_8.mol
          omp threads                :                     8
          number of atoms            :                    89
          number of electrons        :                   342
          charge                     :                     0
          spin                       :                   0.0
          first test random number   :      0.78533083747752

   ID    Z sym.   atoms
    1    6 C      1-3, 5-7, 9-15, 17, 19, 20, 22, 23, 25, 26, 28, 29, 31, 32,
                  34-36, 40, 41, 43-45, 49-52, 54-56, 58, 59, 61-63, 65-68, 70
    2    8 O      4, 8, 21, 27, 57
    3    7 N      16, 18, 37, 39, 46, 48, 69, 71
    4    9 F      24, 30, 33, 42
    5   16 S      38, 47, 60, 64
    6   34 Se     53
    7    1 H      72-89

molecular fragmentation (1/2 indicates fragments):
111111111111111111111111111111111111111111111111111111111111111111111111
11111111111121111
# atoms in fragment 1/2:    88     1
 fragment masses (1/2) :     1080.92        1.01
CMA distance (Bohr)    :   9.443
constraining FC (au)   :  0.0500
########################################################################
[WARNING] Please study the warnings concerning your input carefully
-1- prog_main_parseArguments: the use of '-opt' is discouraged, please use '--opt' next time
########################################################################

           -------------------------------------------------
          |                 G F N 2 - x T B                 |
           -------------------------------------------------

        Reference                      10.1021/acs.jctc.8b01176
      * Hamiltonian:
        H0-scaling (s, p, d)           1.850000    2.230000    2.230000
        zeta-weighting                 0.500000
      * Dispersion:
        s8                             2.700000
        a1                             0.520000
        a2                             5.000000
        s9                             5.000000
      * Repulsion:
        kExp                           1.500000    1.000000
        rExp                           1.000000
      * Coulomb:
        alpha                          2.000000
        third order                    shell-resolved
        anisotropic                    true
        a3                             3.000000
        a5                             4.000000
        cn-shift                       1.200000
        cn-exp                         4.000000
        max-rad                        5.000000


          ...................................................
          :                      SETUP                      :
          :.................................................:
          :  # basis functions                 332          :
          :  # atomic orbitals                 327          :
          :  # shells                          165          :
          :  # electrons                       342          :
          :  max. iterations                   250          :
          :  Hamiltonian                  GFN2-xTB          :
          :  restarted?                      false          :
          :  GBSA solvation                  false          :
          :  PC potential                    false          :
          :  electronic temp.          300.0000000     K    :
          :  accuracy                    1.0000000          :
          :  -> integral cutoff          0.2500000E+02      :
          :  -> integral neglect         0.1000000E-07      :
          :  -> SCF convergence          0.1000000E-05 Eh   :
          :  -> wf. convergence          0.1000000E-03 e    :
          :  Broyden damping             0.4000000          :
          ...................................................

 iter      E             dE          RMSdq      gap      omega  full diag
   1   -194.2734852 -0.194273E+03  0.583E+00    0.63       0.0  T
   2   -194.2865320 -0.130468E-01  0.375E+00    0.28       1.0  T
   3   -193.7977172  0.488815E+00  0.328E+00    0.07       1.0  T
   4   -194.3411520 -0.543435E+00  0.185E+00    0.26       1.0  T
   5   -194.6382665 -0.297115E+00  0.800E-01    0.58       1.0  T
   6   -194.6717574 -0.334909E-01  0.454E-01    0.53       1.0  T
   7   -194.6811378 -0.938037E-02  0.313E-01    0.46       1.0  T
   8   -194.6832258 -0.208801E-02  0.214E-01    0.19       1.0  T
   9   -194.6861339 -0.290810E-02  0.153E-01    0.28       1.0  T
  10   -194.6885920 -0.245815E-02  0.434E-02    0.24       1.0  T
  11   -194.6886598 -0.677860E-04  0.276E-02    0.23       1.0  T
  12   -194.6887012 -0.413709E-04  0.162E-02    0.23       1.0  T
  13   -194.6887167 -0.154721E-04  0.760E-03    0.23       1.4  T
  14   -194.6887189 -0.227204E-05  0.372E-03    0.23       2.8  T
  15   -194.6887200 -0.110472E-05  0.240E-03    0.23       4.4  T
  16   -194.6887206 -0.619696E-06  0.929E-04    0.23      11.4  T
  17   -194.6887207 -0.246121E-07  0.670E-04    0.23      15.8  T

   *** convergence criteria satisfied after 17 iterations ***

         #    Occupation            Energy/Eh            Energy/eV
      -------------------------------------------------------------
         1        2.0000           -0.8500631             -23.1314
       ...           ...                  ...                  ...
       165        2.0000           -0.4122840             -11.2188
       166        2.0000           -0.4075439             -11.0898
       167        2.0000           -0.4018654             -10.9353
       168        2.0000           -0.4004217             -10.8960
       169        2.0000           -0.3951978             -10.7539
       170        2.0000           -0.3882839             -10.5657
       171        1.9779           -0.3709004             -10.0927 (HOMO)
       172        0.0221           -0.3623644              -9.8604 (LUMO)
       173        0.0000           -0.3508869              -9.5481
       174                         -0.3426584              -9.3242
       175                         -0.3421326              -9.3099
       176                         -0.3305498              -8.9947
       ...                                ...                  ...
       327                          2.0390457              55.4853
      -------------------------------------------------------------
                  HL-Gap            0.0085360 Eh            0.2323 eV
             Fermi-level           -0.3666324 Eh           -9.9766 eV

 SCC (total)                   0 d,  0 h,  0 min,  0.233 sec
 SCC setup                      ...        0 min,  0.001 sec (  0.245%)
 Dispersion                     ...        0 min,  0.003 sec (  1.447%)
 classical contributions        ...        0 min,  0.000 sec (  0.042%)
 integral evaluation            ...        0 min,  0.013 sec (  5.730%)
 iterations                     ...        0 min,  0.190 sec ( 81.344%)
 molecular gradient             ...        0 min,  0.025 sec ( 10.831%)
 printout                       ...        0 min,  0.001 sec (  0.328%)

         :::::::::::::::::::::::::::::::::::::::::::::::::::::
         ::                     SUMMARY                     ::
         :::::::::::::::::::::::::::::::::::::::::::::::::::::
         :: total energy            -191.760305366379 Eh    ::
         :: gradient norm              1.092427278595 Eh/a0 ::
         :: HOMO-LUMO gap              0.232277563724 eV    ::
         ::.................................................::
         :: SCC energy              -194.688720672087 Eh    ::
         :: -> isotropic ES            0.212945591163 Eh    ::
         :: -> anisotropic ES          0.021506369933 Eh    ::
         :: -> anisotropic XC          0.099799092265 Eh    ::
         :: -> dispersion             -0.152327397315 Eh    ::
         :: repulsion energy           2.926915951397 Eh    ::
         :: add. restraining           0.000000000000 Eh    ::
         :: total charge               0.000000000000 e     ::
         :::::::::::::::::::::::::::::::::::::::::::::::::::::

      ----------------------------------------------------------- 
     |                   =====================                   |
     |                        A N C O P T                        |
     |                   =====================                   |
     |               Approximate Normal Coordinate               |
     |                Rational Function Optimizer                |
      ----------------------------------------------------------- 

          ...................................................
          :                      SETUP                      :
          :.................................................:
          :   optimization level            normal          :
          :   max. optcycles                   267          :
          :   ANC micro-cycles                  20          :
          :   degrees of freedom               261          :
          :.................................................:
          :   RF solver                   davidson          :
          :   write xtbopt.log                true          :
          :   linear?                        false          :
          :   energy convergence         0.5000000E-05 Eh   :
          :   grad. convergence          0.1000000E-02 Eh/α :
          :   maximium RF displ.         1.0000000          :
          :   Hlow (freq-cutoff)         0.1000000E-01      :
          :   Hmax (freq-cutoff)         5.0000000          :
          :   S6 in model hess.         20.0000000          :
          ...................................................

generating ANC from model Hessian ...
Using Lindh-Hessian (1995)
 Shifting diagonal of input Hessian by   1.001018203881898E-002
 Lowest  eigenvalues of input Hessian
    0.010000    0.000000    0.000000    0.000000    0.000000    0.000000
    0.000000    0.010028    0.010041    0.010073    0.010138    0.010223
    0.010305    0.010487    0.010513    0.010733    0.010828    0.010843
 Highest eigenvalues
    2.407923    2.420216    2.630512    2.715823    2.810100    3.273004
 

........................................................................
.............................. CYCLE    1 ..............................
........................................................................
   1   -194.6887207 -0.194689E+03  0.331E-04    0.23       0.0  T
   2   -194.6887207  0.262613E-07  0.530E-04    0.23      20.0  T
   3   -194.6887207 -0.300991E-07  0.209E-04    0.23      50.7  T
     SCC iter.                  ...        0 min,  0.034 sec
     gradient                   ...        0 min,  0.024 sec
 * total energy  :  -191.7603054 Eh     change       -0.3826423E-07 Eh
   gradient norm :     1.0924178 Eh/α   predicted     0.0000000E+00 (-100.00%)
   displ. norm   :     0.5351476 α      lambda       -0.5297861E+00
   maximum displ.:     0.1218069 α      in ANC's #237, #236, #258, ...

........................................................................
.............................. CYCLE    2 ..............................
........................................................................
   1   -194.9056135 -0.194906E+03  0.617E-01    0.69       0.0  T
   2   -194.9087445 -0.313103E-02  0.454E-01    0.42       1.0  T
   3   -194.9113062 -0.256164E-02  0.299E-01    0.58       1.0  T
   4   -194.9124669 -0.116077E-02  0.214E-01    0.39       1.0  T
   5   -194.9161409 -0.367400E-02  0.991E-02    0.42       1.0  T
   6   -194.9169065 -0.765596E-03  0.379E-02    0.45       1.0  T
   7   -194.9170074 -0.100919E-03  0.162E-02    0.43       1.0  T
   8   -194.9170169 -0.941118E-05  0.993E-03    0.44       1.1  T
   9   -194.9170234 -0.651706E-05  0.628E-03    0.43       1.7  T
  10   -194.9170267 -0.336610E-05  0.200E-03    0.43       5.3  T
  11   -194.9170270 -0.214135E-06  0.999E-04    0.43      10.6  T
  12   -194.9170270 -0.835649E-08  0.647E-04    0.43      16.4  T
     SCC iter.                  ...        0 min,  0.125 sec
     gradient                   ...        0 min,  0.024 sec
 * total energy  :  -192.1582868 Eh     change       -0.3979814E+00 Eh
   gradient norm :     0.5941514 Eh/α   predicted    -0.3407689E+00 ( -14.38%)
   displ. norm   :     0.5889172 α      lambda       -0.3232317E+00
   maximum displ.:     0.1696625 α      in ANC's #237, #236, #247, ...

........................................................................
.............................. CYCLE    3 ..............................
........................................................................
   1   -195.1365679 -0.195137E+03  0.700E-01    1.01       0.0  T
   2   -195.1388347 -0.226682E-02  0.497E-01    0.92       1.0  T
   3   -195.1395477 -0.713028E-03  0.370E-01    1.00       1.0  T
   4   -195.1451211 -0.557343E-02  0.193E-01    0.91       1.0  T
   5   -195.1479824 -0.286129E-02  0.832E-02    0.91       1.0  T
   6   -195.1484255 -0.443031E-03  0.355E-02    0.93       1.0  T
   7   -195.1485044 -0.789663E-04  0.122E-02    0.92       1.0  T
   8   -195.1485071 -0.265098E-05  0.861E-03    0.93       1.2  T
   9   -195.1485119 -0.482210E-05  0.471E-03    0.92       2.2  T
  10   -195.1485133 -0.140740E-05  0.275E-03    0.92       3.8  T
  11   -195.1485136 -0.242973E-06  0.135E-03    0.92       7.9  T
  12   -195.1485136 -0.145502E-07  0.777E-04    0.92      13.6  T
  13   -195.1485136 -0.380120E-07  0.339E-04    0.92      31.3  T
     SCC iter.                  ...        0 min,  0.134 sec
     gradient                   ...        0 min,  0.024 sec
 * total energy  :  -192.3915530 Eh     change       -0.2332662E+00 Eh
   gradient norm :     0.4189002 Eh/α   predicted    -0.2176682E+00 (  -6.69%)
   displ. norm   :     0.5882187 α      lambda       -0.1916375E+00
   maximum displ.:     0.1810863 α      in ANC's #237, #241, #236, ...

........................................................................
.............................. CYCLE    4 ..............................
........................................................................
   1   -195.1723595 -0.195172E+03  0.643E-01    0.96       0.0  T
   2   -195.1699643  0.239524E-02  0.495E-01    0.82       1.0  T
   3   -195.1731501 -0.318587E-02  0.346E-01    0.86       1.0  T
   4   -195.1788165 -0.566635E-02  0.166E-01    0.83       1.0  T
   5   -195.1808438 -0.202738E-02  0.616E-02    0.81       1.0  T
   6   -195.1810330 -0.189102E-03  0.323E-02    0.82       1.0  T
   7   -195.1811023 -0.693185E-04  0.131E-02    0.82       1.0  T
   8   -195.1811101 -0.780084E-05  0.928E-03    0.82       1.1  T
   9   -195.1811145 -0.442446E-05  0.356E-03    0.82       3.0  T
  10   -195.1811147 -0.181160E-06  0.282E-03    0.82       3.8  T
  11   -195.1811149 -0.212757E-06  0.106E-03    0.82      10.0  T
  12   -195.1811149 -0.421188E-07  0.537E-04    0.82      19.7  T
  13   -195.1811149 -0.150210E-07  0.237E-04    0.82      44.7  T
     SCC iter.                  ...        0 min,  0.136 sec
     gradient                   ...        0 min,  0.024 sec
 * total energy  :  -192.5205563 Eh     change       -0.1290033E+00 Eh
   gradient norm :     0.2827322 Eh/α   predicted    -0.1289722E+00 (  -0.02%)
   displ. norm   :     0.5281660 α      lambda       -0.8929075E-01
   maximum displ.:     0.1537734 α      in ANC's #241, #126, #237, ...

........................................................................
.............................. CYCLE    5 ..............................
........................................................................
   1   -195.2067967 -0.195207E+03  0.435E-01    0.81       0.0  T
   2   -195.2074429 -0.646127E-03  0.270E-01    0.77       1.0  T
   3   -195.2061283  0.131460E-02  0.181E-01    0.79       1.0  T
   4   -195.2082421 -0.211385E-02  0.574E-02    0.76       1.0  T
   5   -195.2084079 -0.165786E-03  0.328E-02    0.77       1.0  T
   6   -195.2084388 -0.309393E-04  0.178E-02    0.77       1.0  T
   7   -195.2084610 -0.221642E-04  0.832E-03    0.77       1.3  T
   8   -195.2084646 -0.365739E-05  0.501E-03    0.77       2.1  T
   9   -195.2084658 -0.118358E-05  0.227E-03    0.77       4.7  T
  10   -195.2084659 -0.325707E-07  0.173E-03    0.77       6.1  T
  11   -195.2084660 -0.993732E-07  0.470E-04    0.77      22.6  T
  12   -195.2084660 -0.991002E-08  0.283E-04    0.77      37.5  T
     SCC iter.                  ...        0 min,  0.125 sec
     gradient                   ...        0 min,  0.024 sec
 * total energy  :  -192.5783834 Eh     change       -0.5782711E-01 Eh
   gradient norm :     0.1915485 Eh/α   predicted    -0.5709969E-01 (  -1.26%)
   displ. norm   :     1.1643323 α      lambda        0.8263581E-02
   maximum displ.:     1.0000000 α      in ANC's #23, #30, #28, ...

........................................................................
.............................. CYCLE    6 ..............................
........................................................................
   1   -195.1846647 -0.195185E+03  0.495E-01    0.77       0.0  T
   2   -195.1850438 -0.379049E-03  0.310E-01    0.72       1.0  T
   3   -195.1812360  0.380781E-02  0.233E-01    0.76       1.0  T
   4   -195.1857182 -0.448222E-02  0.749E-02    0.73       1.0  T
   5   -195.1860651 -0.346960E-03  0.348E-02    0.72       1.0  T
   6   -195.1861053 -0.402131E-04  0.218E-02    0.73       1.0  T
   7   -195.1861408 -0.354970E-04  0.681E-03    0.72       1.6  T
   8   -195.1861420 -0.111595E-05  0.440E-03    0.72       2.4  T
   9   -195.1861427 -0.778508E-06  0.198E-03    0.72       5.3  T
  10   -195.1861427  0.472846E-08  0.134E-03    0.72       7.9  T
  11   -195.1861428 -0.734972E-07  0.446E-04    0.73      23.8  T
  12   -195.1861428 -0.329572E-08  0.282E-04    0.72      37.6  T
     SCC iter.                  ...        0 min,  0.128 sec
     gradient                   ...        0 min,  0.024 sec
 * total energy  :  -192.5647596 Eh     change        0.1362384E-01 Eh
   gradient norm :     0.3452634 Eh/α   predicted     0.1000444E-01 ( -26.57%)
   displ. norm   :     0.4147901 α      lambda       -0.9971036E-01
   maximum displ.:     0.1824072 α      in ANC's #108, #113, #98, ...

........................................................................
.............................. CYCLE    7 ..............................
........................................................................
   1   -195.1598015 -0.195160E+03  0.250E-01    0.78       0.0  T
   2   -195.1600854 -0.283872E-03  0.153E-01    0.84       1.0  T
   3   -195.1596109  0.474434E-03  0.120E-01    0.81       1.0  T
   4   -195.1603844 -0.773492E-03  0.394E-02    0.83       1.0  T
   5   -195.1604501 -0.657370E-04  0.237E-02    0.83       1.0  T
   6   -195.1604780 -0.278842E-04  0.115E-02    0.83       1.0  T
   7   -195.1604882 -0.102158E-04  0.315E-03    0.83       3.4  T
   8   -195.1604884 -0.198872E-06  0.199E-03    0.83       5.3  T
   9   -195.1604886 -0.186801E-06  0.845E-04    0.83      12.6  T
  10   -195.1604886 -0.569116E-08  0.680E-04    0.83      15.6  T
     SCC iter.                  ...        0 min,  0.105 sec
     gradient                   ...        0 min,  0.024 sec
 * total energy  :  -192.6101629 Eh     change       -0.4540337E-01 Eh
   gradient norm :     0.1446002 Eh/α   predicted    -0.5843287E-01 (  28.70%)
   displ. norm   :     0.5013230 α      lambda       -0.4547608E-01
   maximum displ.:     0.1399524 α      in ANC's #9, #108, #52, ...

........................................................................
.............................. CYCLE    8 ..............................
........................................................................
   1   -195.2504069 -0.195250E+03  0.391E-01    0.92       0.0  T
   2   -195.2508835 -0.476666E-03  0.253E-01    0.92       1.0  T
   3   -195.2492119  0.167165E-02  0.181E-01    0.92       1.0  T
   4   -195.2514847 -0.227276E-02  0.624E-02    0.93       1.0  T
   5   -195.2516793 -0.194620E-03  0.305E-02    0.93       1.0  T
   6   -195.2517194 -0.401658E-04  0.135E-02    0.93       1.0  T
   7   -195.2517317 -0.122634E-04  0.576E-03    0.93       1.8  T
   8   -195.2517329 -0.116047E-05  0.309E-03    0.93       3.4  T
   9   -195.2517330 -0.183557E-06  0.243E-03    0.93       4.4  T
  10   -195.2517332 -0.178767E-06  0.116E-03    0.93       9.2  T
  11   -195.2517333 -0.433763E-07  0.435E-04    0.93      24.4  T
  12   -195.2517333 -0.767113E-08  0.188E-04    0.93      56.3  T
     SCC iter.                  ...        0 min,  0.126 sec
     gradient                   ...        0 min,  0.024 sec
 * total energy  :  -192.6270856 Eh     change       -0.1692263E-01 Eh
   gradient norm :     0.1220815 Eh/α   predicted    -0.2845286E-01 (  68.13%)
   displ. norm   :     0.5131980 α      lambda       -0.2120293E-01
   maximum displ.:     0.1539389 α      in ANC's #28, #52, #23, ...

........................................................................
.............................. CYCLE    9 ..............................
........................................................................
   1   -195.2669635 -0.195267E+03  0.294E-01    0.95       0.0  T
   2   -195.2670616 -0.981131E-04  0.172E-01    0.93       1.0  T
   3   -195.2656971  0.136444E-02  0.141E-01    0.94       1.0  T
   4   -195.2672902 -0.159309E-02  0.243E-02    0.94       1.0  T
   5   -195.2673157 -0.254979E-04  0.138E-02    0.94       1.0  T
   6   -195.2673240 -0.828075E-05  0.638E-03    0.94       1.7  T
   7   -195.2673262 -0.219962E-05  0.260E-03    0.94       4.1  T
   8   -195.2673266 -0.376046E-06  0.133E-03    0.94       8.0  T
   9   -195.2673266 -0.789253E-07  0.618E-04    0.94      17.2  T
  10   -195.2673266 -0.516559E-08  0.365E-04    0.94      29.0  T
     SCC iter.                  ...        0 min,  0.105 sec
     gradient                   ...        0 min,  0.024 sec
 * total energy  :  -192.6405460 Eh     change       -0.1346048E-01 Eh
   gradient norm :     0.0741609 Eh/α   predicted    -0.1339362E-01 (  -0.50%)
   displ. norm   :     0.6598377 α      lambda       -0.1975805E-01
   maximum displ.:     0.1955276 α      in ANC's #19, #52, #9, ...

........................................................................
.............................. CYCLE   10 ..............................
........................................................................
   1   -195.2799833 -0.195280E+03  0.446E-01    0.91       0.0  T
   2   -195.2802750 -0.291711E-03  0.258E-01    0.89       1.0  T
   3   -195.2792305  0.104450E-02  0.119E-01    0.92       1.0  T
   4   -195.2804276 -0.119709E-02  0.268E-02    0.89       1.0  T
   5   -195.2804351 -0.745697E-05  0.185E-02    0.89       1.0  T
   6   -195.2804540 -0.189407E-04  0.768E-03    0.89       1.4  T
   7   -195.2804574 -0.336592E-05  0.423E-03    0.89       2.5  T
   8   -195.2804583 -0.904074E-06  0.217E-03    0.89       4.9  T
   9   -195.2804584 -0.755356E-07  0.115E-03    0.89       9.2  T
  10   -195.2804584 -0.416469E-07  0.621E-04    0.89      17.1  T
  11   -195.2804584 -0.117281E-07  0.275E-04    0.89      38.6  T
     SCC iter.                  ...        0 min,  0.116 sec
     gradient                   ...        0 min,  0.024 sec
 * total energy  :  -192.6429333 Eh     change       -0.2387310E-02 Eh
   gradient norm :     0.0979930 Eh/α   predicted    -0.1418025E-01 ( 493.98%)
   displ. norm   :     0.3853486 α      lambda       -0.1443462E-01
   maximum displ.:     0.1306720 α      in ANC's #16, #28, #23, ...

........................................................................
.............................. CYCLE   11 ..............................
........................................................................
   1   -195.2843385 -0.195284E+03  0.294E-01    0.92       0.0  T
   2   -195.2844626 -0.124147E-03  0.170E-01    0.93       1.0  T
   3   -195.2834425  0.102014E-02  0.122E-01    0.92       1.0  T
   4   -195.2846204 -0.117797E-02  0.214E-02    0.93       1.0  T
   5   -195.2846512 -0.307222E-04  0.109E-02    0.94       1.0  T
   6   -195.2846566 -0.538305E-05  0.436E-03    0.93       2.4  T
   7   -195.2846574 -0.813224E-06  0.259E-03    0.93       4.1  T
   8   -195.2846577 -0.348387E-06  0.121E-03    0.93       8.7  T
   9   -195.2846577 -0.371869E-07  0.690E-04    0.93      15.4  T
  10   -195.2846578 -0.117774E-07  0.360E-04    0.93      29.4  T
     SCC iter.                  ...        0 min,  0.106 sec
     gradient                   ...        0 min,  0.024 sec
 * total energy  :  -192.6515488 Eh     change       -0.8615442E-02 Eh
   gradient norm :     0.0355936 Eh/α   predicted    -0.8289030E-02 (  -3.79%)
   displ. norm   :     0.4967349 α      lambda       -0.7002761E-02
   maximum displ.:     0.1379833 α      in ANC's #30, #11, #19, ...

........................................................................
.............................. CYCLE   12 ..............................
........................................................................
   1   -195.3010091 -0.195301E+03  0.269E-01    0.94       0.0  T
   2   -195.3010861 -0.769894E-04  0.157E-01    0.96       1.0  T
   3   -195.3004899  0.596165E-03  0.922E-02    0.94       1.0  T
   4   -195.3011737 -0.683769E-03  0.131E-02    0.96       1.0  T
   5   -195.3011775 -0.381894E-05  0.901E-03    0.96       1.2  T
   6   -195.3011815 -0.397135E-05  0.312E-03    0.96       3.4  T
   7   -195.3011818 -0.344204E-06  0.169E-03    0.96       6.3  T
   8   -195.3011820 -0.158856E-06  0.792E-04    0.96      13.4  T
   9   -195.3011820 -0.252622E-07  0.410E-04    0.96      25.9  T
     SCC iter.                  ...        0 min,  0.096 sec
     gradient                   ...        0 min,  0.024 sec
 * total energy  :  -192.6517932 Eh     change       -0.2443891E-03 Eh
   gradient norm :     0.0511523 Eh/α   predicted    -0.4365338E-02 (1686.22%)
   displ. norm   :     0.4094272 α      lambda       -0.8382148E-02
   maximum displ.:     0.1571225 α      in ANC's #16, #9, #7, ...

........................................................................
.............................. CYCLE   13 ..............................
........................................................................
   1   -195.2974204 -0.195297E+03  0.259E-01    0.94       0.0  T
   2   -195.2975116 -0.912004E-04  0.146E-01    0.94       1.0  T
   3   -195.2970252  0.486428E-03  0.861E-02    0.94       1.0  T
   4   -195.2975853 -0.560135E-03  0.115E-02    0.94       1.0  T
   5   -195.2975904 -0.511028E-05  0.741E-03    0.94       1.4  T
   6   -195.2975931 -0.271842E-05  0.276E-03    0.94       3.8  T
   7   -195.2975933 -0.202867E-06  0.141E-03    0.94       7.5  T
   8   -195.2975934 -0.102146E-06  0.747E-04    0.94      14.2  T
   9   -195.2975934 -0.136365E-07  0.408E-04    0.94      26.0  T
     SCC iter.                  ...        0 min,  0.096 sec
     gradient                   ...        0 min,  0.024 sec
 * total energy  :  -192.6562282 Eh     change       -0.4435038E-02 Eh
   gradient norm :     0.0565087 Eh/α   predicted    -0.4893629E-02 (  10.34%)
   displ. norm   :     0.4620138 α      lambda       -0.5929519E-02
   maximum displ.:     0.1822400 α      in ANC's #23, #7, #12, ...

........................................................................
.............................. CYCLE   14 ..............................
........................................................................
   1   -195.2940788 -0.195294E+03  0.266E-01    0.92       0.0  T
   2   -195.2942201 -0.141243E-03  0.150E-01    0.91       1.0  T
   3   -195.2938870  0.333098E-03  0.691E-02    0.92       1.0  T
   4   -195.2942783 -0.391361E-03  0.141E-02    0.92       1.0  T
   5   -195.2942888 -0.104201E-04  0.773E-03    0.92       1.4  T
   6   -195.2942920 -0.322988E-05  0.320E-03    0.92       3.3  T
   7   -195.2942923 -0.352647E-06  0.168E-03    0.92       6.3  T
   8   -195.2942925 -0.200803E-06  0.569E-04    0.92      18.6  T
   9   -195.2942926 -0.958099E-08  0.308E-04    0.92      34.4  T
     SCC iter.                  ...        0 min,  0.098 sec
     gradient                   ...        0 min,  0.024 sec
 * total energy  :  -192.6579926 Eh     change       -0.1764349E-02 Eh
   gradient norm :     0.0431049 Eh/α   predicted    -0.3597610E-02 ( 103.91%)
   displ. norm   :     0.4345445 α      lambda       -0.4132073E-02
   maximum displ.:     0.1629467 α      in ANC's #9, #7, #16, ...

........................................................................
.............................. CYCLE   15 ..............................
........................................................................
   1   -195.2942828 -0.195294E+03  0.175E-01    0.91       0.0  T
   2   -195.2943175 -0.346570E-04  0.997E-02    0.91       1.0  T
   3   -195.2940617  0.255809E-03  0.576E-02    0.90       1.0  T
   4   -195.2943567 -0.295039E-03  0.833E-03    0.91       1.3  T
   5   -195.2943603 -0.355086E-05  0.434E-03    0.91       2.4  T
   6   -195.2943611 -0.796819E-06  0.175E-03    0.91       6.1  T
   7   -195.2943612 -0.999673E-07  0.844E-04    0.91      12.6  T
   8   -195.2943612 -0.371677E-07  0.360E-04    0.91      29.4  T
     SCC iter.                  ...        0 min,  0.086 sec
     gradient                   ...        0 min,  0.024 sec
 * total energy  :  -192.6610640 Eh     change       -0.3071443E-02 Eh
   gradient norm :     0.0250622 Eh/α   predicted    -0.2456164E-02 ( -20.03%)
   displ. norm   :     0.6613938 α      lambda       -0.4432295E-02
   maximum displ.:     0.2756662 α      in ANC's #7, #12, #9, ...

........................................................................
.............................. CYCLE   16 ..............................
........................................................................
   1   -195.3031380 -0.195303E+03  0.250E-01    0.90       0.0  T
   2   -195.3032183 -0.803811E-04  0.141E-01    0.91       1.0  T
   3   -195.3027509  0.467417E-03  0.806E-02    0.90       1.0  T
   4   -195.3032953 -0.544365E-03  0.127E-02    0.91       1.0  T
   5   -195.3033019 -0.660961E-05  0.732E-03    0.91       1.4  T
   6   -195.3033045 -0.260774E-05  0.268E-03    0.91       4.0  T
   7   -195.3033048 -0.309184E-06  0.124E-03    0.91       8.6  T
   8   -195.3033049 -0.701934E-07  0.513E-04    0.91      20.7  T
   9   -195.3033049 -0.848283E-08  0.291E-04    0.91      36.4  T
     SCC iter.                  ...        0 min,  0.094 sec
     gradient                   ...        0 min,  0.024 sec
 * total energy  :  -192.6632791 Eh     change       -0.2215136E-02 Eh
   gradient norm :     0.0385654 Eh/α   predicted    -0.3185575E-02 (  43.81%)
   displ. norm   :     0.6092526 α      lambda       -0.3925348E-02
   maximum displ.:     0.2811749 α      in ANC's #7, #9, #10, ...

........................................................................
.............................. CYCLE   17 ..............................
........................................................................
   1   -195.3003089 -0.195300E+03  0.194E-01    0.89       0.0  T
   2   -195.3003417 -0.327898E-04  0.110E-01    0.90       1.0  T
   3   -195.3001881  0.153557E-03  0.416E-02    0.89       1.0  T
   4   -195.3003657 -0.177573E-03  0.793E-03    0.90       1.3  T
   5   -195.3003671 -0.139870E-05  0.483E-03    0.90       2.2  T
   6   -195.3003680 -0.878613E-06  0.190E-03    0.90       5.6  T
   7   -195.3003681 -0.163332E-06  0.832E-04    0.90      12.7  T
   8   -195.3003681 -0.278752E-07  0.446E-04    0.90      23.8  T
     SCC iter.                  ...        0 min,  0.085 sec
     gradient                   ...        0 min,  0.024 sec
 * total energy  :  -192.6662181 Eh     change       -0.2938929E-02 Eh
   gradient norm :     0.0254918 Eh/α   predicted    -0.2691203E-02 (  -8.43%)
   displ. norm   :     0.6666300 α      lambda       -0.3432272E-02
   maximum displ.:     0.3475431 α      in ANC's #7, #9, #10, ...

........................................................................
.............................. CYCLE   18 ..............................
........................................................................
   1   -195.3065601 -0.195307E+03  0.185E-01    0.89       0.0  T
   2   -195.3066086 -0.485007E-04  0.106E-01    0.90       1.0  T
   3   -195.3064491  0.159467E-03  0.438E-02    0.90       1.0  T
   4   -195.3066303 -0.181174E-03  0.935E-03    0.90       1.1  T
   5   -195.3066340 -0.368462E-05  0.483E-03    0.90       2.2  T
   6   -195.3066348 -0.797979E-06  0.212E-03    0.90       5.0  T
   7   -195.3066349 -0.110815E-06  0.100E-03    0.90      10.6  T
   8   -195.3066349 -0.459400E-07  0.395E-04    0.90      26.8  T
   9   -195.3066350 -0.317465E-08  0.227E-04    0.90      46.7  T
     SCC iter.                  ...        0 min,  0.096 sec
     gradient                   ...        0 min,  0.024 sec
 * total energy  :  -192.6683790 Eh     change       -0.2160971E-02 Eh
   gradient norm :     0.0289700 Eh/α   predicted    -0.2478781E-02 (  14.71%)
   displ. norm   :     0.6726832 α      lambda       -0.3387971E-02
   maximum displ.:     0.3358347 α      in ANC's #7, #9, #23, ...

........................................................................
.............................. CYCLE   19 ..............................
........................................................................
   1   -195.3055041 -0.195306E+03  0.175E-01    0.89       0.0  T
   2   -195.3055193 -0.152509E-04  0.990E-02    0.90       1.0  T
   3   -195.3052958  0.223535E-03  0.527E-02    0.89       1.0  T
   4   -195.3055470 -0.251248E-03  0.834E-03    0.90       1.3  T
   5   -195.3055467  0.307439E-06  0.564E-03    0.90       1.9  T
   6   -195.3055485 -0.178340E-05  0.177E-03    0.90       6.0  T
   7   -195.3055487 -0.165788E-06  0.859E-04    0.90      12.3  T
   8   -195.3055487 -0.279174E-07  0.479E-04    0.90      22.1  T
     SCC iter.                  ...        0 min,  0.086 sec
     gradient                   ...        0 min,  0.024 sec
 * total energy  :  -192.6709185 Eh     change       -0.2539444E-02 Eh
   gradient norm :     0.0239855 Eh/α   predicted    -0.2460519E-02 (  -3.11%)
   displ. norm   :     0.6761659 α      lambda       -0.2980056E-02
   maximum displ.:     0.3587039 α      in ANC's #7, #9, #10, ...

........................................................................
.............................. CYCLE   20 ..............................
........................................................................
   1   -195.3149624 -0.195315E+03  0.170E-01    0.89       0.0  T
   2   -195.3149973 -0.348887E-04  0.970E-02    0.90       1.0  T
   3   -195.3148163  0.180974E-03  0.469E-02    0.90       1.0  T
   4   -195.3150192 -0.202899E-03  0.959E-03    0.90       1.1  T
   5   -195.3150231 -0.390307E-05  0.570E-03    0.91       1.9  T
   6   -195.3150246 -0.153357E-05  0.193E-03    0.90       5.5  T
   7   -195.3150248 -0.122800E-06  0.100E-03    0.90      10.6  T
   8   -195.3150248 -0.616151E-07  0.455E-04    0.90      23.3  T
   9   -195.3150248 -0.606045E-08  0.232E-04    0.90      45.7  T
     SCC iter.                  ...        0 min,  0.099 sec
     gradient                   ...        0 min,  0.024 sec
 * total energy  :  -192.6729753 Eh     change       -0.2056847E-02 Eh
   gradient norm :     0.0322205 Eh/α   predicted    -0.2171276E-02 (   5.56%)
   displ. norm   :     0.7188530 α      lambda       -0.3305353E-02
   maximum displ.:     0.3941910 α      in ANC's #7, #9, #10, ...
 * RMSD in coord.:     0.7587887 α      energy gain  -0.9126700E+00 Eh

generating ANC from model Hessian ...
Using Lindh-Hessian (1995)
 Shifting diagonal of input Hessian by   9.990483233945965E-003
 Lowest  eigenvalues of input Hessian
    0.000000    0.000000    0.000000    0.000000    0.000000    0.000000
    0.010000    0.010006    0.010039    0.010066    0.010080    0.010192
    0.010290    0.010419    0.010591    0.010740    0.011067    0.011294
 Highest eigenvalues
    2.297788    2.304924    2.550963    2.589846    2.600325    2.662912
 

........................................................................
.............................. CYCLE   21 ..............................
........................................................................
   1   -195.3060214 -0.195306E+03  0.227E-01    0.92       0.0  T
   2   -195.3060812 -0.598663E-04  0.129E-01    0.93       1.0  T
   3   -195.3056781  0.403171E-03  0.756E-02    0.92       1.0  T
   4   -195.3061479 -0.469890E-03  0.121E-02    0.93       1.0  T
   5   -195.3061555 -0.751041E-05  0.625E-03    0.93       1.7  T
   6   -195.3061567 -0.123285E-05  0.290E-03    0.93       3.7  T
   7   -195.3061572 -0.468654E-06  0.111E-03    0.93       9.6  T
   8   -195.3061572 -0.513531E-07  0.483E-04    0.93      22.0  T
   9   -195.3061572 -0.829880E-08  0.270E-04    0.93      39.2  T
     SCC iter.                  ...        0 min,  0.094 sec
     gradient                   ...        0 min,  0.024 sec
 * total energy  :  -192.6751062 Eh     change       -0.2130904E-02 Eh
   gradient norm :     0.0358456 Eh/α   predicted     0.0000000E+00 (-100.00%)
   displ. norm   :     0.2551175 α      lambda       -0.2068794E-02
   maximum displ.:     0.0907449 α      in ANC's #9, #4, #26, ...

........................................................................
.............................. CYCLE   22 ..............................
........................................................................
   1   -195.3196272 -0.195320E+03  0.890E-02    0.94       0.0  T
   2   -195.3196399 -0.127731E-04  0.509E-02    0.94       1.0  T
   3   -195.3195776  0.623889E-04  0.303E-02    0.94       1.0  T
   4   -195.3196504 -0.727989E-04  0.567E-03    0.94       1.9  T
   5   -195.3196528 -0.245869E-05  0.244E-03    0.94       4.4  T
   6   -195.3196530 -0.222993E-06  0.100E-03    0.94      10.6  T
   7   -195.3196531 -0.264345E-07  0.485E-04    0.94      21.8  T
   8   -195.3196531 -0.126729E-07  0.190E-04    0.94      55.7  T
     SCC iter.                  ...        0 min,  0.083 sec
     gradient                   ...        0 min,  0.024 sec
 * total energy  :  -192.6765167 Eh     change       -0.1410487E-02 Eh
   gradient norm :     0.0113865 Eh/α   predicted    -0.1102670E-02 ( -21.82%)
   displ. norm   :     0.4861727 α      lambda       -0.1982135E-02
   maximum displ.:     0.1750965 α      in ANC's #9, #14, #4, ...

........................................................................
.............................. CYCLE   23 ..............................
........................................................................
   1   -195.3263238 -0.195326E+03  0.187E-01    0.94       0.0  T
   2   -195.3263659 -0.421745E-04  0.105E-01    0.94       1.0  T
   3   -195.3262826  0.832943E-04  0.343E-02    0.95       1.0  T
   4   -195.3263861 -0.103495E-03  0.748E-03    0.94       1.4  T
   5   -195.3263888 -0.266239E-05  0.463E-03    0.95       2.3  T
   6   -195.3263898 -0.101940E-05  0.133E-03    0.95       8.0  T
   7   -195.3263899 -0.571084E-07  0.723E-04    0.95      14.7  T
   8   -195.3263899 -0.287012E-07  0.299E-04    0.95      35.5  T
     SCC iter.                  ...        0 min,  0.085 sec
     gradient                   ...        0 min,  0.024 sec
 * total energy  :  -192.6776009 Eh     change       -0.1084150E-02 Eh
   gradient norm :     0.0288228 Eh/α   predicted    -0.1225323E-02 (  13.02%)
   displ. norm   :     0.6513207 α      lambda       -0.2962209E-02
   maximum displ.:     0.2378154 α      in ANC's #9, #4, #26, ...

........................................................................
.............................. CYCLE   24 ..............................
........................................................................
   1   -195.3243738 -0.195324E+03  0.241E-01    0.96       0.0  T
   2   -195.3244403 -0.665271E-04  0.135E-01    0.96       1.0  T
   3   -195.3242849  0.155368E-03  0.468E-02    0.96       1.0  T
   4   -195.3244736 -0.188637E-03  0.101E-02    0.97       1.0  T
   5   -195.3244782 -0.462674E-05  0.597E-03    0.97       1.8  T
   6   -195.3244795 -0.133422E-05  0.186E-03    0.97       5.7  T
   7   -195.3244796 -0.116750E-06  0.952E-04    0.97      11.1  T
   8   -195.3244797 -0.478480E-07  0.387E-04    0.97      27.4  T
     SCC iter.                  ...        0 min,  0.083 sec
     gradient                   ...        0 min,  0.024 sec
 * total energy  :  -192.6795650 Eh     change       -0.1964126E-02 Eh
   gradient norm :     0.0280316 Eh/α   predicted    -0.2109418E-02 (   7.40%)
   displ. norm   :     0.5938615 α      lambda       -0.2188844E-02
   maximum displ.:     0.2369615 α      in ANC's #9, #4, #14, ...

........................................................................
.............................. CYCLE   25 ..............................
........................................................................
   1   -195.3156461 -0.195316E+03  0.146E-01    0.97       0.0  T
   2   -195.3156674 -0.213470E-04  0.837E-02    0.98       1.0  T
   3   -195.3155610  0.106448E-03  0.363E-02    0.98       1.0  T
   4   -195.3156822 -0.121236E-03  0.735E-03    0.98       1.4  T
   5   -195.3156843 -0.211572E-05  0.402E-03    0.98       2.6  T
   6   -195.3156848 -0.475683E-06  0.149E-03    0.98       7.1  T
   7   -195.3156849 -0.104786E-06  0.715E-04    0.98      14.8  T
   8   -195.3156849 -0.234657E-07  0.363E-04    0.98      29.2  T
     SCC iter.                  ...        0 min,  0.085 sec
     gradient                   ...        0 min,  0.024 sec
 * total energy  :  -192.6814144 Eh     change       -0.1849351E-02 Eh
   gradient norm :     0.0232741 Eh/α   predicted    -0.1480397E-02 ( -19.95%)
   displ. norm   :     0.6679536 α      lambda       -0.2831618E-02
   maximum displ.:     0.2781175 α      in ANC's #9, #4, #14, ...

........................................................................
.............................. CYCLE   26 ..............................
........................................................................
   1   -195.3160979 -0.195316E+03  0.149E-01    0.98       0.0  T
   2   -195.3161249 -0.270199E-04  0.860E-02    1.00       1.0  T
   3   -195.3159564  0.168537E-03  0.474E-02    0.99       1.0  T
   4   -195.3161464 -0.190031E-03  0.870E-03    1.00       1.2  T
   5   -195.3161493 -0.294110E-05  0.482E-03    1.00       2.2  T
   6   -195.3161502 -0.815835E-06  0.201E-03    1.00       5.3  T
   7   -195.3161503 -0.172139E-06  0.936E-04    1.00      11.3  T
   8   -195.3161504 -0.432991E-07  0.456E-04    1.00      23.2  T
     SCC iter.                  ...        0 min,  0.084 sec
     gradient                   ...        0 min,  0.024 sec
 * total energy  :  -192.6834848 Eh     change       -0.2070470E-02 Eh
   gradient norm :     0.0222730 Eh/α   predicted    -0.2047491E-02 (  -1.11%)
   displ. norm   :     0.7630376 α      lambda       -0.2442665E-02
   maximum displ.:     0.3145060 α      in ANC's #9, #4, #14, ...

........................................................................
.............................. CYCLE   27 ..............................
........................................................................
   1   -195.3093368 -0.195309E+03  0.190E-01    1.00       0.0  T
   2   -195.3093711 -0.342542E-04  0.108E-01    1.02       1.0  T
   3   -195.3091843  0.186832E-03  0.494E-02    1.01       1.0  T
   4   -195.3093974 -0.213128E-03  0.806E-03    1.02       1.3  T
   5   -195.3093985 -0.111633E-05  0.516E-03    1.02       2.1  T
   6   -195.3093995 -0.961157E-06  0.187E-03    1.02       5.7  T
   7   -195.3093996 -0.124217E-06  0.958E-04    1.02      11.1  T
   8   -195.3093996 -0.515672E-07  0.456E-04    1.02      23.2  T
     SCC iter.                  ...        0 min,  0.084 sec
     gradient                   ...        0 min,  0.024 sec
 * total energy  :  -192.6853654 Eh     change       -0.1880536E-02 Eh
   gradient norm :     0.0340207 Eh/α   predicted    -0.1932427E-02 (   2.76%)
   displ. norm   :     0.6327205 α      lambda       -0.2554351E-02
   maximum displ.:     0.2897004 α      in ANC's #4, #9, #8, ...

........................................................................
.............................. CYCLE   28 ..............................
........................................................................
   1   -195.3220328 -0.195322E+03  0.126E-01    1.03       0.0  T
   2   -195.3220431 -0.102680E-04  0.746E-02    1.05       1.0  T
   3   -195.3218314  0.211620E-03  0.523E-02    1.04       1.0  T
   4   -195.3220745 -0.243012E-03  0.708E-03    1.05       1.5  T
   5   -195.3220762 -0.175363E-05  0.398E-03    1.05       2.7  T
   6   -195.3220767 -0.531504E-06  0.166E-03    1.05       6.4  T
   7   -195.3220769 -0.145175E-06  0.733E-04    1.05      14.5  T
   8   -195.3220769 -0.222072E-07  0.382E-04    1.05      27.7  T
     SCC iter.                  ...        0 min,  0.084 sec
     gradient                   ...        0 min,  0.024 sec
 * total energy  :  -192.6873700 Eh     change       -0.2004667E-02 Eh
   gradient norm :     0.0169765 Eh/α   predicted    -0.1788475E-02 ( -10.78%)
   displ. norm   :     0.7876599 α      lambda       -0.2587964E-02
   maximum displ.:     0.3439464 α      in ANC's #4, #9, #8, ...

........................................................................
.............................. CYCLE   29 ..............................
........................................................................
   1   -195.3218797 -0.195322E+03  0.177E-01    1.06       0.0  T
   2   -195.3219077 -0.279625E-04  0.102E-01    1.08       1.0  T
   3   -195.3216221  0.285596E-03  0.598E-02    1.07       1.0  T
   4   -195.3219428 -0.320743E-03  0.839E-03    1.08       1.3  T
   5   -195.3219443 -0.141475E-05  0.536E-03    1.08       2.0  T
   6   -195.3219452 -0.995172E-06  0.216E-03    1.08       4.9  T
   7   -195.3219454 -0.176864E-06  0.108E-03    1.08       9.8  T
   8   -195.3219455 -0.744990E-07  0.493E-04    1.08      21.5  T
   9   -195.3219455 -0.885083E-08  0.270E-04    1.08      39.3  T
     SCC iter.                  ...        0 min,  0.095 sec
     gradient                   ...        0 min,  0.024 sec
 * total energy  :  -192.6895240 Eh     change       -0.2153959E-02 Eh
   gradient norm :     0.0146531 Eh/α   predicted    -0.2096782E-02 (  -2.65%)
   displ. norm   :     0.7416268 α      lambda       -0.2861714E-02
   maximum displ.:     0.3312319 α      in ANC's #4, #9, #8, ...

........................................................................
.............................. CYCLE   30 ..............................
........................................................................
   1   -195.3346712 -0.195335E+03  0.215E-01    1.09       0.0  T
   2   -195.3347363 -0.651054E-04  0.123E-01    1.11       1.0  T
   3   -195.3344044  0.331882E-03  0.635E-02    1.10       1.0  T
   4   -195.3347821 -0.377652E-03  0.112E-02    1.12       1.0  T
   5   -195.3347879 -0.584736E-05  0.565E-03    1.12       1.9  T
   6   -195.3347888 -0.883579E-06  0.261E-03    1.12       4.1  T
   7   -195.3347890 -0.217902E-06  0.123E-03    1.12       8.6  T
   8   -195.3347892 -0.118518E-06  0.445E-04    1.12      23.8  T
   9   -195.3347892 -0.732604E-08  0.261E-04    1.12      40.6  T
     SCC iter.                  ...        0 min,  0.095 sec
     gradient                   ...        0 min,  0.024 sec
 * total energy  :  -192.6905219 Eh     change       -0.9979462E-03 Eh
   gradient norm :     0.0420948 Eh/α   predicted    -0.2217847E-02 ( 122.24%)
   displ. norm   :     0.5947233 α      lambda       -0.3430427E-02
   maximum displ.:     0.2492361 α      in ANC's #4, #9, #26, ...

........................................................................
.............................. CYCLE   31 ..............................
........................................................................
   1   -195.3293216 -0.195329E+03  0.122E-01    1.12       0.0  T
   2   -195.3293405 -0.189747E-04  0.710E-02    1.13       1.0  T
   3   -195.3291928  0.147746E-03  0.459E-02    1.13       1.0  T
   4   -195.3293629 -0.170149E-03  0.752E-03    1.14       1.4  T
   5   -195.3293648 -0.182453E-05  0.440E-03    1.14       2.4  T
   6   -195.3293655 -0.791972E-06  0.194E-03    1.14       5.5  T
   7   -195.3293656 -0.800480E-07  0.102E-03    1.14      10.3  T
   8   -195.3293657 -0.495037E-07  0.505E-04    1.14      21.0  T
   9   -195.3293657 -0.104400E-07  0.279E-04    1.14      38.0  T
     SCC iter.                  ...        0 min,  0.094 sec
     gradient                   ...        0 min,  0.024 sec
 * total energy  :  -192.6927191 Eh     change       -0.2197220E-02 Eh
   gradient norm :     0.0148107 Eh/α   predicted    -0.2321885E-02 (   5.67%)
   displ. norm   :     0.7586519 α      lambda       -0.2110599E-02
   maximum displ.:     0.3362818 α      in ANC's #9, #4, #8, ...

........................................................................
.............................. CYCLE   32 ..............................
........................................................................
   1   -195.3174326 -0.195317E+03  0.145E-01    1.14       0.0  T
   2   -195.3174600 -0.273884E-04  0.837E-02    1.15       1.0  T
   3   -195.3172428  0.217228E-03  0.530E-02    1.15       1.0  T
   4   -195.3174898 -0.247012E-03  0.902E-03    1.16       1.2  T
   5   -195.3174934 -0.364042E-05  0.471E-03    1.16       2.3  T
   6   -195.3174942 -0.763074E-06  0.245E-03    1.16       4.3  T
   7   -195.3174943 -0.116885E-06  0.135E-03    1.16       7.8  T
   8   -195.3174944 -0.932437E-07  0.660E-04    1.16      16.1  T
   9   -195.3174944 -0.133282E-07  0.365E-04    1.16      29.0  T
     SCC iter.                  ...        0 min,  0.095 sec
     gradient                   ...        0 min,  0.024 sec
 * total energy  :  -192.6940020 Eh     change       -0.1282858E-02 Eh
   gradient norm :     0.0196741 Eh/α   predicted    -0.1662685E-02 (  29.61%)
   displ. norm   :     0.6282349 α      lambda       -0.2205121E-02
   maximum displ.:     0.2927801 α      in ANC's #4, #9, #8, ...

........................................................................
.............................. CYCLE   33 ..............................
........................................................................
   1   -195.3282290 -0.195328E+03  0.123E-01    1.16       0.0  T
   2   -195.3282499 -0.208120E-04  0.706E-02    1.17       1.0  T
   3   -195.3281151  0.134794E-03  0.410E-02    1.17       1.0  T
   4   -195.3282693 -0.154241E-03  0.723E-03    1.17       1.5  T
   5   -195.3282719 -0.259747E-05  0.346E-03    1.17       3.1  T
   6   -195.3282722 -0.284735E-06  0.195E-03    1.17       5.4  T
   7   -195.3282723 -0.160462E-06  0.855E-04    1.17      12.4  T
   8   -195.3282724 -0.467857E-07  0.388E-04    1.17      27.3  T
     SCC iter.                  ...        0 min,  0.085 sec
     gradient                   ...        0 min,  0.024 sec
 * total energy  :  -192.6957060 Eh     change       -0.1704003E-02 Eh
   gradient norm :     0.0161538 Eh/α   predicted    -0.1537720E-02 (  -9.76%)
   displ. norm   :     0.7564622 α      lambda       -0.1990051E-02
   maximum displ.:     0.3556015 α      in ANC's #9, #4, #8, ...

........................................................................
.............................. CYCLE   34 ..............................
........................................................................
   1   -195.3369889 -0.195337E+03  0.150E-01    1.19       0.0  T
   2   -195.3370201 -0.311839E-04  0.867E-02    1.18       1.0  T
   3   -195.3368306  0.189505E-03  0.491E-02    1.21       1.0  T
   4   -195.3370520 -0.221386E-03  0.777E-03    1.19       1.4  T
   5   -195.3370543 -0.234817E-05  0.428E-03    1.19       2.5  T
   6   -195.3370549 -0.563414E-06  0.201E-03    1.19       5.3  T
   7   -195.3370550 -0.145210E-06  0.946E-04    1.19      11.2  T
   8   -195.3370551 -0.412857E-07  0.524E-04    1.19      20.2  T
     SCC iter.                  ...        0 min,  0.085 sec
     gradient                   ...        0 min,  0.024 sec
 * total energy  :  -192.6970379 Eh     change       -0.1331862E-02 Eh
   gradient norm :     0.0239773 Eh/α   predicted    -0.1564423E-02 (  17.46%)
   displ. norm   :     0.6708865 α      lambda       -0.1832479E-02
   maximum displ.:     0.3134450 α      in ANC's #4, #9, #5, ...

........................................................................
.............................. CYCLE   35 ..............................
........................................................................
   1   -195.3566290 -0.195357E+03  0.121E-01    1.21       0.0  T
   2   -195.3566442 -0.151712E-04  0.714E-02    1.19       1.0  T
   3   -195.3564756  0.168583E-03  0.504E-02    1.22       1.0  T
   4   -195.3566834 -0.207784E-03  0.839E-03    1.20       1.3  T
   5   -195.3566876 -0.425312E-05  0.359E-03    1.20       3.0  T
   6   -195.3566879 -0.231923E-06  0.212E-03    1.20       5.0  T
   7   -195.3566881 -0.208316E-06  0.844E-04    1.20      12.6  T
   8   -195.3566881 -0.122909E-07  0.459E-04    1.20      23.1  T
     SCC iter.                  ...        0 min,  0.084 sec
     gradient                   ...        0 min,  0.024 sec
 * total energy  :  -192.6981562 Eh     change       -0.1118373E-02 Eh
   gradient norm :     0.0186841 Eh/α   predicted    -0.1328632E-02 (  18.80%)
   displ. norm   :     0.7404236 α      lambda       -0.2032044E-02
   maximum displ.:     0.3393842 α      in ANC's #9, #4, #13, ...

........................................................................
.............................. CYCLE   36 ..............................
........................................................................
   1   -195.3237613 -0.195324E+03  0.182E-01    1.17       0.0  T
   2   -195.3238141 -0.528130E-04  0.104E-01    1.17       1.0  T
   3   -195.3235308  0.283320E-03  0.606E-02    1.19       1.0  T
   4   -195.3238543 -0.323512E-03  0.151E-02    1.18       1.0  T
   5   -195.3238684 -0.140301E-04  0.691E-03    1.18       1.5  T
   6   -195.3238693 -0.894875E-06  0.414E-03    1.18       2.6  T
   7   -195.3238697 -0.464609E-06  0.230E-03    1.18       4.6  T
   8   -195.3238699 -0.148134E-06  0.110E-03    1.18       9.6  T
   9   -195.3238699 -0.473699E-07  0.516E-04    1.18      20.5  T
  10   -195.3238699 -0.102831E-07  0.234E-04    1.18      45.4  T
     SCC iter.                  ...        0 min,  0.107 sec
     gradient                   ...        0 min,  0.024 sec
 * total energy  :  -192.6989203 Eh     change       -0.7641011E-03 Eh
   gradient norm :     0.0307617 Eh/α   predicted    -0.1573034E-02 ( 105.87%)
   displ. norm   :     0.4790721 α      lambda       -0.1526948E-02
   maximum displ.:     0.2414005 α      in ANC's #4, #9, #5, ...

........................................................................
.............................. CYCLE   37 ..............................
........................................................................
   1   -195.3385910 -0.195339E+03  0.103E-01    1.22       0.0  T
   2   -195.3386029 -0.118463E-04  0.598E-02    1.21       1.0  T
   3   -195.3385009  0.101923E-03  0.349E-02    1.23       1.0  T
   4   -195.3386183 -0.117332E-03  0.645E-03    1.22       1.6  T
   5   -195.3386199 -0.158170E-05  0.416E-03    1.22       2.5  T
   6   -195.3386203 -0.449479E-06  0.186E-03    1.22       5.7  T
   7   -195.3386204 -0.926984E-07  0.106E-03    1.22      10.0  T
   8   -195.3386205 -0.464957E-07  0.516E-04    1.22      20.6  T
   9   -195.3386205 -0.590498E-08  0.242E-04    1.22      43.7  T
     SCC iter.                  ...        0 min,  0.096 sec
     gradient                   ...        0 min,  0.024 sec
 * total energy  :  -192.6998973 Eh     change       -0.9769324E-03 Eh
   gradient norm :     0.0102340 Eh/α   predicted    -0.9387000E-03 (  -3.91%)
   displ. norm   :     0.4858962 α      lambda       -0.1064706E-02
   maximum displ.:     0.2425324 α      in ANC's #4, #9, #17, ...

........................................................................
.............................. CYCLE   38 ..............................
........................................................................
   1   -195.3539649 -0.195354E+03  0.987E-02    1.23       0.0  T
   2   -195.3539802 -0.152499E-04  0.576E-02    1.21       1.0  T
   3   -195.3538684  0.111764E-03  0.387E-02    1.23       1.0  T
   4   -195.3540026 -0.134141E-03  0.800E-03    1.22       1.3  T
   5   -195.3540073 -0.473352E-05  0.321E-03    1.22       3.3  T
   6   -195.3540075 -0.186381E-06  0.180E-03    1.22       5.9  T
   7   -195.3540076 -0.160305E-06  0.789E-04    1.22      13.4  T
   8   -195.3540077 -0.136437E-07  0.451E-04    1.22      23.5  T
     SCC iter.                  ...        0 min,  0.085 sec
     gradient                   ...        0 min,  0.024 sec
 * total energy  :  -192.7006437 Eh     change       -0.7464193E-03 Eh
   gradient norm :     0.0176038 Eh/α   predicted    -0.6580434E-03 ( -11.84%)
   displ. norm   :     0.6431038 α      lambda       -0.1185718E-02
   maximum displ.:     0.3336025 α      in ANC's #4, #9, #17, ...

........................................................................
.............................. CYCLE   39 ..............................
........................................................................
   1   -195.3535454 -0.195354E+03  0.122E-01    1.24       0.0  T
   2   -195.3535658 -0.203767E-04  0.702E-02    1.23       1.0  T
   3   -195.3534666  0.991056E-04  0.382E-02    1.25       1.0  T
   4   -195.3535833 -0.116619E-03  0.891E-03    1.23       1.2  T
   5   -195.3535886 -0.528660E-05  0.470E-03    1.23       2.3  T
   6   -195.3535894 -0.878005E-06  0.187E-03    1.23       5.7  T
   7   -195.3535896 -0.127677E-06  0.106E-03    1.23      10.0  T
   8   -195.3535896 -0.358707E-07  0.463E-04    1.23      22.9  T
   9   -195.3535896 -0.298539E-08  0.306E-04    1.23      34.6  T
     SCC iter.                  ...        0 min,  0.096 sec
     gradient                   ...        0 min,  0.024 sec
 * total energy  :  -192.7016552 Eh     change       -0.1011533E-02 Eh
   gradient norm :     0.0143250 Eh/α   predicted    -0.8380568E-03 ( -17.15%)
   displ. norm   :     0.7255100 α      lambda       -0.1544813E-02
   maximum displ.:     0.3652309 α      in ANC's #4, #9, #17, ...

........................................................................
.............................. CYCLE   40 ..............................
........................................................................
   1   -195.3463950 -0.195346E+03  0.143E-01    1.26       0.0  T
   2   -195.3464246 -0.295658E-04  0.835E-02    1.24       1.0  T
   3   -195.3462629  0.161631E-03  0.502E-02    1.26       1.0  T
   4   -195.3464520 -0.189045E-03  0.118E-02    1.25       1.0  T
   5   -195.3464609 -0.891891E-05  0.662E-03    1.25       1.6  T
   6   -195.3464628 -0.194227E-05  0.270E-03    1.25       3.9  T
   7   -195.3464631 -0.296169E-06  0.151E-03    1.25       7.0  T
   8   -195.3464631 -0.869991E-08  0.906E-04    1.25      11.7  T
   9   -195.3464632 -0.352221E-07  0.382E-04    1.25      27.7  T
     SCC iter.                  ...        0 min,  0.095 sec
     gradient                   ...        0 min,  0.024 sec
 * total energy  :  -192.7028421 Eh     change       -0.1186864E-02 Eh
   gradient norm :     0.0256479 Eh/α   predicted    -0.1178971E-02 (  -0.67%)
   displ. norm   :     0.7269711 α      lambda       -0.1446164E-02
   maximum displ.:     0.3841889 α      in ANC's #4, #9, #17, ...

........................................................................
.............................. CYCLE   41 ..............................
........................................................................
   1   -195.3325499 -0.195333E+03  0.138E-01    1.26       0.0  T
   2   -195.3325653 -0.153749E-04  0.791E-02    1.25       1.0  T
   3   -195.3324239  0.141400E-03  0.442E-02    1.27       1.0  T
   4   -195.3325833 -0.159424E-03  0.940E-03    1.26       1.1  T
   5   -195.3325850 -0.172517E-05  0.767E-03    1.26       1.4  T
   6   -195.3325881 -0.307284E-05  0.243E-03    1.26       4.4  T
   7   -195.3325884 -0.269555E-06  0.131E-03    1.26       8.1  T
   8   -195.3325884 -0.125239E-07  0.790E-04    1.26      13.4  T
   9   -195.3325884 -0.226499E-07  0.369E-04    1.26      28.7  T
     SCC iter.                  ...        0 min,  0.095 sec
     gradient                   ...        0 min,  0.024 sec
 * total energy  :  -192.7039738 Eh     change       -0.1131667E-02 Eh
   gradient norm :     0.0175677 Eh/α   predicted    -0.1105227E-02 (  -2.34%)
   displ. norm   :     0.6320401 α      lambda       -0.1485199E-02
   maximum displ.:     0.3353464 α      in ANC's #4, #9, #11, ...

........................................................................
.............................. CYCLE   42 ..............................
........................................................................
   1   -195.3314900 -0.195331E+03  0.126E-01    1.27       0.0  T
   2   -195.3315097 -0.196658E-04  0.732E-02    1.26       1.0  T
   3   -195.3313360  0.173675E-03  0.492E-02    1.27       1.0  T
   4   -195.3315390 -0.203006E-03  0.104E-02    1.26       1.0  T
   5   -195.3315419 -0.287283E-05  0.736E-03    1.26       1.4  T
   6   -195.3315443 -0.239506E-05  0.272E-03    1.26       3.9  T
   7   -195.3315447 -0.394221E-06  0.130E-03    1.26       8.1  T
   8   -195.3315447 -0.123913E-07  0.825E-04    1.26      12.9  T
   9   -195.3315447 -0.176950E-07  0.439E-04    1.26      24.1  T
     SCC iter.                  ...        0 min,  0.095 sec
     gradient                   ...        0 min,  0.024 sec
 * total energy  :  -192.7051545 Eh     change       -0.1180745E-02 Eh
   gradient norm :     0.0195835 Eh/α   predicted    -0.1039252E-02 ( -11.98%)
   displ. norm   :     0.6597331 α      lambda       -0.1579652E-02
   maximum displ.:     0.3469135 α      in ANC's #4, #9, #1, ...
 * RMSD in coord.:     1.2861206 α      energy gain  -0.3217917E-01 Eh

generating ANC from model Hessian ...
Using Lindh-Hessian (1995)
 Shifting diagonal of input Hessian by   9.987559214460750E-003
 Lowest  eigenvalues of input Hessian
    0.000000    0.000000    0.000000    0.000000    0.000000    0.000000
    0.010000    0.010009    0.010041    0.010062    0.010077    0.010107
    0.010244    0.010408    0.010517    0.010586    0.010755    0.011018
 Highest eigenvalues
    2.269580    2.294794    2.603422    2.608137    2.632162    2.672910
 

........................................................................
.............................. CYCLE   43 ..............................
........................................................................
   1   -195.3384314 -0.195338E+03  0.141E-01    1.28       0.0  T
   2   -195.3384389 -0.751335E-05  0.823E-02    1.26       1.0  T
   3   -195.3381574  0.281465E-03  0.577E-02    1.29       1.0  T
   4   -195.3384708 -0.313393E-03  0.110E-02    1.27       1.0  T
   5   -195.3384678  0.304262E-05  0.900E-03    1.27       1.2  T
   6   -195.3384726 -0.483665E-05  0.291E-03    1.27       3.6  T
   7   -195.3384729 -0.335361E-06  0.153E-03    1.27       6.9  T
   8   -195.3384730 -0.111277E-07  0.936E-04    1.27      11.3  T
   9   -195.3384730 -0.300181E-07  0.439E-04    1.27      24.1  T
     SCC iter.                  ...        0 min,  0.095 sec
     gradient                   ...        0 min,  0.024 sec
 * total energy  :  -192.7063609 Eh     change       -0.1206423E-02 Eh
   gradient norm :     0.0170456 Eh/α   predicted     0.0000000E+00 (-100.00%)
   displ. norm   :     0.2102310 α      lambda       -0.1020008E-02
   maximum displ.:     0.0659176 α      in ANC's #17, #2, #26, ...

........................................................................
.............................. CYCLE   44 ..............................
........................................................................
   1   -195.3432077 -0.195343E+03  0.114E-01    1.28       0.0  T
   2   -195.3432248 -0.170808E-04  0.641E-02    1.27       1.0  T
   3   -195.3431725  0.523331E-04  0.240E-02    1.28       1.0  T
   4   -195.3432352 -0.627421E-04  0.449E-03    1.27       2.4  T
   5   -195.3432361 -0.845124E-06  0.241E-03    1.27       4.4  T
   6   -195.3432362 -0.154926E-06  0.105E-03    1.27      10.1  T
   7   -195.3432363 -0.627740E-07  0.445E-04    1.27      23.8  T
   8   -195.3432363 -0.750367E-08  0.214E-04    1.27      49.6  T
     SCC iter.                  ...        0 min,  0.086 sec
     gradient                   ...        0 min,  0.024 sec
 * total energy  :  -192.7069941 Eh     change       -0.6331507E-03 Eh
   gradient norm :     0.0105908 Eh/α   predicted    -0.5326222E-03 ( -15.88%)
   displ. norm   :     0.4129368 α      lambda       -0.1355499E-02
   maximum displ.:     0.1872573 α      in ANC's #2, #26, #17, ...

........................................................................
.............................. CYCLE   45 ..............................
........................................................................
   1   -195.3505169 -0.195351E+03  0.187E-01    1.28       0.0  T
   2   -195.3505572 -0.403554E-04  0.104E-01    1.28       1.0  T
   3   -195.3505031  0.541186E-04  0.281E-02    1.28       1.0  T
   4   -195.3505745 -0.714103E-04  0.727E-03    1.28       1.5  T
   5   -195.3505761 -0.159732E-05  0.433E-03    1.28       2.4  T
   6   -195.3505769 -0.774489E-06  0.183E-03    1.28       5.8  T
   7   -195.3505771 -0.183713E-06  0.848E-04    1.28      12.5  T
   8   -195.3505771 -0.214693E-07  0.420E-04    1.28      25.2  T
     SCC iter.                  ...        0 min,  0.085 sec
     gradient                   ...        0 min,  0.024 sec
 * total energy  :  -192.7072503 Eh     change       -0.2562029E-03 Eh
   gradient norm :     0.0249982 Eh/α   predicted    -0.7933171E-03 ( 209.64%)
   displ. norm   :     0.3440694 α      lambda       -0.1774266E-02
   maximum displ.:     0.1272445 α      in ANC's #10, #17, #2, ...

........................................................................
.............................. CYCLE   46 ..............................
........................................................................
   1   -195.3579650 -0.195358E+03  0.164E-01    1.28       0.0  T
   2   -195.3579924 -0.274055E-04  0.916E-02    1.28       1.0  T
   3   -195.3579577  0.346759E-04  0.226E-02    1.28       1.0  T
   4   -195.3580050 -0.472349E-04  0.582E-03    1.28       1.8  T
   5   -195.3580056 -0.647043E-06  0.338E-03    1.28       3.1  T
   6   -195.3580061 -0.464771E-06  0.135E-03    1.28       7.9  T
   7   -195.3580062 -0.764627E-07  0.740E-04    1.28      14.3  T
   8   -195.3580062 -0.116833E-07  0.415E-04    1.28      25.6  T
     SCC iter.                  ...        0 min,  0.085 sec
     gradient                   ...        0 min,  0.024 sec
 * total energy  :  -192.7080517 Eh     change       -0.8014009E-03 Eh
   gradient norm :     0.0185837 Eh/α   predicted    -0.9921574E-03 (  23.80%)
   displ. norm   :     0.2707355 α      lambda       -0.9744427E-03
   maximum displ.:     0.1273270 α      in ANC's #2, #17, #10, ...

........................................................................
.............................. CYCLE   47 ..............................
........................................................................
   1   -195.3502237 -0.195350E+03  0.869E-02    1.28       0.0  T
   2   -195.3502346 -0.108886E-04  0.492E-02    1.28       1.0  T
   3   -195.3501807  0.539547E-04  0.235E-02    1.28       1.0  T
   4   -195.3502425 -0.618451E-04  0.543E-03    1.28       2.0  T
   5   -195.3502437 -0.122776E-05  0.292E-03    1.28       3.6  T
   6   -195.3502440 -0.301158E-06  0.159E-03    1.28       6.7  T
   7   -195.3502441 -0.101256E-06  0.734E-04    1.28      14.4  T
   8   -195.3502441 -0.114074E-07  0.480E-04    1.28      22.1  T
     SCC iter.                  ...        0 min,  0.086 sec
     gradient                   ...        0 min,  0.024 sec
 * total energy  :  -192.7086896 Eh     change       -0.6379492E-03 Eh
   gradient norm :     0.0104093 Eh/α   predicted    -0.5229366E-03 ( -18.03%)
   displ. norm   :     0.5105198 α      lambda       -0.1056750E-02
   maximum displ.:     0.2632352 α      in ANC's #2, #17, #10, ...

........................................................................
.............................. CYCLE   48 ..............................
........................................................................
   1   -195.3429798 -0.195343E+03  0.161E-01    1.28       0.0  T
   2   -195.3430034 -0.235852E-04  0.901E-02    1.29       1.0  T
   3   -195.3429007  0.102758E-03  0.324E-02    1.28       1.0  T
   4   -195.3430192 -0.118582E-03  0.785E-03    1.29       1.4  T
   5   -195.3430204 -0.116464E-05  0.458E-03    1.29       2.3  T
   6   -195.3430214 -0.977451E-06  0.218E-03    1.29       4.9  T
   7   -195.3430216 -0.212144E-06  0.107E-03    1.29       9.9  T
   8   -195.3430216 -0.188296E-07  0.671E-04    1.29      15.8  T
   9   -195.3430216 -0.124996E-07  0.332E-04    1.29      31.9  T
     SCC iter.                  ...        0 min,  0.097 sec
     gradient                   ...        0 min,  0.024 sec
 * total energy  :  -192.7092861 Eh     change       -0.5965102E-03 Eh
   gradient norm :     0.0155471 Eh/α   predicted    -0.6660885E-03 (  11.66%)
   displ. norm   :     0.5137326 α      lambda       -0.1039276E-02
   maximum displ.:     0.2656903 α      in ANC's #2, #17, #10, ...

........................................................................
.............................. CYCLE   49 ..............................
........................................................................
   1   -195.3421349 -0.195342E+03  0.128E-01    1.29       0.0  T
   2   -195.3421467 -0.118142E-04  0.722E-02    1.29       1.0  T
   3   -195.3420791  0.676278E-04  0.269E-02    1.28       1.0  T
   4   -195.3421558 -0.767013E-04  0.642E-03    1.29       1.7  T
   5   -195.3421562 -0.390210E-06  0.402E-03    1.29       2.6  T
   6   -195.3421572 -0.100740E-05  0.157E-03    1.29       6.8  T
   7   -195.3421573 -0.107282E-06  0.797E-04    1.29      13.3  T
   8   -195.3421573 -0.702258E-08  0.487E-04    1.29      21.8  T
     SCC iter.                  ...        0 min,  0.085 sec
     gradient                   ...        0 min,  0.024 sec
 * total energy  :  -192.7099974 Eh     change       -0.7112646E-03 Eh
   gradient norm :     0.0117084 Eh/α   predicted    -0.6567815E-03 (  -7.66%)
   displ. norm   :     0.5005683 α      lambda       -0.7809801E-03
   maximum displ.:     0.2774536 α      in ANC's #2, #10, #17, ...

........................................................................
.............................. CYCLE   50 ..............................
........................................................................
   1   -195.3468500 -0.195347E+03  0.909E-02    1.29       0.0  T
   2   -195.3468551 -0.510373E-05  0.520E-02    1.30       1.0  T
   3   -195.3468293  0.257755E-04  0.176E-02    1.29       1.0  T
   4   -195.3468581 -0.287749E-04  0.489E-03    1.30       2.2  T
   5   -195.3468585 -0.481323E-06  0.319E-03    1.30       3.3  T
   6   -195.3468592 -0.680980E-06  0.118E-03    1.30       9.0  T
   7   -195.3468593 -0.529915E-07  0.610E-04    1.30      17.4  T
   8   -195.3468593 -0.420115E-08  0.371E-04    1.30      28.6  T
     SCC iter.                  ...        0 min,  0.085 sec
     gradient                   ...        0 min,  0.024 sec
 * total energy  :  -192.7106686 Eh     change       -0.6712051E-03 Eh
   gradient norm :     0.0091384 Eh/α   predicted    -0.4883361E-03 ( -27.24%)
   displ. norm   :     0.6891361 α      lambda       -0.1041621E-02
   maximum displ.:     0.3857844 α      in ANC's #2, #10, #4, ...

........................................................................
.............................. CYCLE   51 ..............................
........................................................................
   1   -195.3544272 -0.195354E+03  0.135E-01    1.30       0.0  T
   2   -195.3544401 -0.129299E-04  0.768E-02    1.31       1.0  T
   3   -195.3543973  0.428720E-04  0.221E-02    1.30       1.0  T
   4   -195.3544453 -0.480288E-04  0.693E-03    1.31       1.5  T
   5   -195.3544475 -0.223220E-05  0.388E-03    1.30       2.7  T
   6   -195.3544482 -0.733519E-06  0.144E-03    1.31       7.4  T
   7   -195.3544483 -0.882901E-07  0.717E-04    1.31      14.8  T
   8   -195.3544483 -0.117075E-07  0.422E-04    1.31      25.1  T
     SCC iter.                  ...        0 min,  0.085 sec
     gradient                   ...        0 min,  0.024 sec
 * total energy  :  -192.7113594 Eh     change       -0.6908211E-03 Eh
   gradient norm :     0.0107656 Eh/α   predicted    -0.7681493E-03 (  11.19%)
   displ. norm   :     0.6844321 α      lambda       -0.1300003E-02
   maximum displ.:     0.3977682 α      in ANC's #2, #10, #6, ...

........................................................................
.............................. CYCLE   52 ..............................
........................................................................
   1   -195.3615362 -0.195362E+03  0.188E-01    1.31       0.0  T
   2   -195.3615682 -0.320319E-04  0.105E-01    1.31       1.0  T
   3   -195.3615323  0.359284E-04  0.236E-02    1.30       1.0  T
   4   -195.3615809 -0.485966E-04  0.718E-03    1.31       1.5  T
   5   -195.3615826 -0.167682E-05  0.424E-03    1.31       2.5  T
   6   -195.3615835 -0.980640E-06  0.126E-03    1.31       8.4  T
   7   -195.3615836 -0.500425E-07  0.644E-04    1.31      16.5  T
   8   -195.3615836 -0.145505E-07  0.305E-04    1.31      34.8  T
     SCC iter.                  ...        0 min,  0.087 sec
     gradient                   ...        0 min,  0.024 sec
 * total energy  :  -192.7120486 Eh     change       -0.6891527E-03 Eh
   gradient norm :     0.0153562 Eh/α   predicted    -0.9544991E-03 (  38.50%)
   displ. norm   :     0.6706221 α      lambda       -0.8887647E-03
   maximum displ.:     0.3647643 α      in ANC's #2, #10, #17, ...

........................................................................
.............................. CYCLE   53 ..............................
........................................................................
   1   -195.3497720 -0.195350E+03  0.123E-01    1.30       0.0  T
   2   -195.3497793 -0.729067E-05  0.704E-02    1.31       1.0  T
   3   -195.3496528  0.126496E-03  0.344E-02    1.29       1.0  T
   4   -195.3497904 -0.137615E-03  0.741E-03    1.31       1.4  T
   5   -195.3497924 -0.199637E-05  0.372E-03    1.30       2.9  T
   6   -195.3497929 -0.518523E-06  0.158E-03    1.30       6.7  T
   7   -195.3497930 -0.115220E-06  0.804E-04    1.30      13.2  T
   8   -195.3497930 -0.152448E-07  0.499E-04    1.30      21.3  T
     SCC iter.                  ...        0 min,  0.085 sec
     gradient                   ...        0 min,  0.024 sec
 * total energy  :  -192.7126918 Eh     change       -0.6431872E-03 Eh
   gradient norm :     0.0108345 Eh/α   predicted    -0.6442425E-03 (   0.16%)
   displ. norm   :     0.5310041 α      lambda       -0.8649200E-03
   maximum displ.:     0.3255375 α      in ANC's #2, #10, #4, ...

........................................................................
.............................. CYCLE   54 ..............................
........................................................................
   1   -195.3524227 -0.195352E+03  0.899E-02    1.30       0.0  T
   2   -195.3524315 -0.874066E-05  0.512E-02    1.30       1.0  T
   3   -195.3523674  0.640731E-04  0.251E-02    1.30       1.0  T
[...]
    12   6 C        3.034    -0.001    28.017     8.682
    13   6 C        3.014     0.045    26.982     8.521
    14   6 C        2.947     0.010    27.798     8.647
    15   6 C        1.937     0.124    28.054     8.554
    16   7 N        0.911    -0.237    26.186     7.401
    17   6 C        1.936     0.121    28.106     8.561
    18   7 N        0.911    -0.244    26.373     7.427
    19   6 C        2.976    -0.022    28.556     8.765
    20   6 C        2.856     0.121    25.333     8.250
    21   8 O        1.705    -0.255    18.230     5.765
    22   6 C        3.639     0.037    20.319     6.484
    23   6 C        2.782     0.134    25.060     8.199
    24   9 F        0.787    -0.210    11.338     3.977
    25   6 C        2.983    -0.011    28.292     8.725
    26   6 C        2.857     0.136    25.031     8.200
    27   8 O        1.706    -0.226    17.741     5.687
    28   6 C        3.640     0.029    20.441     6.502
    29   6 C        2.785     0.131    25.129     8.211
    30   9 F        0.787    -0.207    11.312     3.973
    31   6 C        2.967     0.004    27.925     8.668
    32   6 C        2.781     0.172    24.287     8.072
    33   9 F        0.788    -0.184    11.069     3.930
    34   6 C        2.977    -0.017    28.433     8.747
    35   6 C        3.347     0.076    23.764     7.690
    36   6 C        3.342     0.070    23.991     7.742
    37   7 N        1.856    -0.264    27.708     7.802
    38  16 S        2.670     0.367   126.999    18.967
    39   7 N        1.855    -0.243    27.203     7.730
    40   6 C        2.981    -0.012    28.299     8.726
    41   6 C        2.790     0.157    24.591     8.123
    42   9 F        0.844    -0.152    10.748     3.873
    43   6 C        2.976    -0.014    28.358     8.735
    44   6 C        3.349     0.074    23.764     7.686
    45   6 C        3.361     0.078    23.442     7.600
    46   7 N        1.855    -0.261    27.635     7.792
    47  16 S        2.688     0.389   126.201    18.907
    48   7 N        1.856    -0.245    27.243     7.736
    49   6 C        2.983     0.004    27.934     8.670
    50   6 C        3.059    -0.040    28.942     8.822
    51   6 C        3.084    -0.034    28.737     8.788
    52   6 C        2.966     0.007    27.868     8.659
    53  34 Se       2.476     0.081   233.057    26.601
    54   6 C        2.915    -0.007    28.194     8.707
    55   6 C        3.027    -0.040    28.969     8.828
    56   6 C        2.881     0.224    23.296     7.913
    57   8 O        0.996    -0.320    20.083     6.012
    58   6 C        3.186    -0.034    28.356     8.689
    59   6 C        3.089     0.010    27.701     8.627
    60  16 S        2.200     0.035   139.636    19.888
    61   6 C        3.207     0.014    27.102     8.478
    62   6 C        3.062    -0.048    29.121     8.849
    63   6 C        2.958    -0.020    28.506     8.757
    64  16 S        2.243     0.037   139.563    19.883
    65   6 C        3.143     0.019    27.335     8.555
    66   6 C        3.028     0.028    27.345     8.577
    67   6 C        2.947     0.006    27.884     8.661
    68   6 C        1.925     0.122    28.088     8.559
    69   7 N        0.911    -0.234    26.122     7.392
    70   6 C        1.933     0.120    28.128     8.565
    71   7 N        0.911    -0.223    25.882     7.358
    72   1 H        0.925     0.095     1.828     2.114
    73   1 H        0.926     0.079     1.991     2.207
    74   1 H        0.925     0.074     2.042     2.235
    75   1 H        0.924     0.050     2.323     2.384
    76   1 H        0.924     0.051     2.314     2.379
    77   1 H        0.926     0.054     2.269     2.356
    78   1 H        0.926     0.060     2.194     2.316
    79   1 H        0.925     0.061     2.184     2.311
    80   1 H        0.924     0.062     2.176     2.307
    81   1 H        0.924     0.055     2.261     2.351
    82   1 H        0.924     0.062     2.177     2.307
    83   1 H        0.924     0.062     2.176     2.307
    84   1 H        0.925     0.069     2.092     2.262
    85   1 H        0.926     0.068     2.111     2.272
    86   1 H        0.926     0.050     2.322     2.383
    87   1 H        0.925     0.065     2.141     2.288
    88   1 H        0.926     0.059     2.206     2.323
    89   1 H        0.926     0.063     2.165     2.301

 Mol. C6AA /au·bohr⁶  :     173047.576841
 Mol. C8AA /au·bohr⁸  :    5038829.354800
 Mol. α(0) /au        :        661.245322


Wiberg/Mayer (AO) data.
largest (>0.10) Wiberg bond orders for each atom

 ---------------------------------------------------------------------------
     #   Z sym  total        # sym  WBO       # sym  WBO       # sym  WBO
 ---------------------------------------------------------------------------
     1   6 C    3.953 --     2 C    1.686    19 C    1.097    72 H    0.945
     2   6 C    3.979 --     1 C    1.686    13 C    1.092     3 C    0.995
     3   6 C    3.931 --     4 O    1.807     5 C    1.016     2 C    0.995
     4   8 O    2.086 --     3 C    1.807
     5   6 C    3.977 --     6 C    1.460    12 C    1.264     3 C    1.016
     6   6 C    3.982 --     5 C    1.460     7 C    1.317    73 H    0.962
     7   6 C    3.922 --    10 C    1.348     6 C    1.317     8 O    1.104
     8   8 O    2.262 --     7 C    1.104     9 C    0.976
     9   6 C    3.936 --    74 H    0.978     8 O    0.976    76 H    0.976
                            75 H    0.975
    10   6 C    3.977 --    11 C    1.451     7 C    1.348    77 H    0.964
    11   6 C    3.979 --    10 C    1.451    12 C    1.388    78 H    0.962
    12   6 C    3.985 --    11 C    1.388     5 C    1.264    13 C    1.107
    13   6 C    3.978 --    14 C    1.504    12 C    1.107     2 C    1.092
    14   6 C    3.973 --    13 C    1.504    15 C    1.096    17 C    1.096
    15   6 C    3.946 --    16 N    2.768    14 C    1.096
    16   7 N    2.977 --    15 C    2.768
    17   6 C    3.946 --    18 N    2.764    14 C    1.096
    18   7 N    2.976 --    17 C    2.764
    19   6 C    3.975 --    29 C    1.341    20 C    1.277     1 C    1.097
    20   6 C    3.944 --    23 C    1.342    19 C    1.277    21 O    1.082
    21   8 O    2.239 --    20 C    1.082    22 C    0.967
    22   6 C    3.930 --    79 H    0.980    81 H    0.979    80 H    0.977
                            21 O    0.967
    23   6 C    3.881 --    25 C    1.353    20 C    1.342    24 F    0.962
    24   9 F    1.093 --    23 C    0.962
    25   6 C    3.974 --    23 C    1.353    26 C    1.286    31 C    1.048
    26   6 C    3.944 --    29 C    1.325    25 C    1.286    27 O    1.115
    27   8 O    2.278 --    26 C    1.115    28 C    0.965
    28   6 C    3.926 --    84 H    0.979    83 H    0.977    82 H    0.977
                            27 O    0.965
    29   6 C    3.878 --    19 C    1.341    26 C    1.325    30 F    0.964
    30   9 F    1.096 --    29 C    0.964
    31   6 C    3.954 --    32 C    1.467    45 C    1.186    25 C    1.048
    32   6 C    3.891 --    31 C    1.467    34 C    1.224    33 F    0.992
    33   9 F    1.136 --    32 C    0.992
    34   6 C    3.951 --    43 C    1.302    32 C    1.224    35 C    1.176
    35   6 C    3.969 --    39 N    1.416    34 C    1.176    36 C    1.174
    36   6 C    3.969 --    37 N    1.418    35 C    1.174    40 C    1.159
    37   7 N    3.083 --    36 C    1.418    38 S    1.409    39 N    0.151
    38  16 S    3.150 --    39 N    1.430    37 N    1.409
    39   7 N    3.089 --    38 S    1.430    35 C    1.416    37 N    0.151
    40   6 C    3.967 --    41 C    1.414    49 C    1.164    36 C    1.159
    41   6 C    3.856 --    40 C    1.414    43 C    1.249    42 F    0.966
    42   9 F    1.226 --    41 C    0.966    53 Se   0.127
    43   6 C    3.983 --    34 C    1.302    41 C    1.249    44 C    1.172
    44   6 C    3.967 --    48 N    1.415    45 C    1.174    43 C    1.172
    45   6 C    3.972 --    46 N    1.401    31 C    1.186    44 C    1.174
    46   7 N    3.077 --    47 S    1.426    45 C    1.401    48 N    0.153
    47  16 S    3.160 --    48 N    1.431    46 N    1.426
    48   7 N    3.089 --    47 S    1.431    44 C    1.415    46 N    0.153
    49   6 C    3.950 --    50 C    1.392    53 Se   1.203    40 C    1.164
    50   6 C    3.958 --    51 C    1.435    49 C    1.392    85 H    0.953
    51   6 C    3.965 --    50 C    1.435    52 C    1.353    86 H    0.963
                            53 Se   0.109
    52   6 C    3.951 --    51 C    1.353    54 C    1.287    53 Se   1.149
    53  34 Se   3.074 --    49 C    1.203    52 C    1.149    57 O    0.240
                            42 F    0.127    51 C    0.109
    54   6 C    3.955 --    55 C    1.518    52 C    1.287    87 H    0.942
    55   6 C    3.954 --    54 C    1.518    66 C    1.110    56 C    1.065
    56   6 C    3.923 --    57 O    1.676    55 C    1.065    58 C    1.039
    57   8 O    2.200 --    56 C    1.676    53 Se   0.240
    58   6 C    3.960 --    59 C    1.374    65 C    1.272    56 C    1.039
    59   6 C    3.936 --    58 C    1.374    60 S    1.171    66 C    1.146
    60  16 S    2.645 --    59 C    1.171    61 C    1.126
    61   6 C    3.934 --    65 C    1.335    62 C    1.270    60 S    1.126
    62   6 C    3.983 --    63 C    1.612    61 C    1.270    88 H    0.962
    63   6 C    3.922 --    62 C    1.612    64 S    1.187    89 H    0.968
    64  16 S    2.619 --    63 C    1.187    65 C    1.141
    65   6 C    3.949 --    61 C    1.335    58 C    1.272    64 S    1.141
    66   6 C    3.976 --    67 C    1.462    59 C    1.146    55 C    1.110
    67   6 C    3.944 --    66 C    1.462    68 C    1.105    70 C    1.097
    68   6 C    3.947 --    69 N    2.758    67 C    1.105
    69   7 N    2.955 --    68 C    2.758
    70   6 C    3.948 --    71 N    2.770    67 C    1.097
    71   7 N    2.976 --    70 C    2.770
    72   1 H    0.989 --     1 C    0.945
    73   1 H    0.993 --     6 C    0.962
    74   1 H    0.994 --     9 C    0.978
    75   1 H    0.996 --     9 C    0.975
    76   1 H    0.996 --     9 C    0.976
    77   1 H    0.996 --    10 C    0.964
    78   1 H    0.996 --    11 C    0.962
    79   1 H    0.996 --    22 C    0.980
    80   1 H    0.995 --    22 C    0.977
    81   1 H    0.997 --    22 C    0.979
    82   1 H    0.996 --    28 C    0.977
    83   1 H    0.995 --    28 C    0.977
    84   1 H    0.995 --    28 C    0.979
    85   1 H    0.994 --    50 C    0.953
    86   1 H    0.997 --    51 C    0.963
    87   1 H    0.995 --    54 C    0.942
    88   1 H    0.996 --    62 C    0.962
    89   1 H    0.995 --    63 C    0.968
 ---------------------------------------------------------------------------

Topologies differ in bond orders
Writing corrected topology to xtbtopo.mol

molecular dipole:
                 x           y           z       tot (Debye)
 q only:        1.462      -3.097       0.348
   full:        1.610      -3.435       0.684       9.799
molecular quadrupole (traceless):
                xx          xy          yy          xz          yz          zz
 q only:       14.670     -30.499       1.709     -10.586      45.430     -16.379
  q+dip:       16.536     -29.965       1.077      -7.726      47.479     -17.613
   full:       24.033     -27.500      -7.061       2.754      50.534     -16.972

           -------------------------------------------------
          |                Geometry Summary                 |
           -------------------------------------------------

      molecular mass/u    :     1081.9317937
   center of mass at/Å    :        0.4107837       1.3365739      -0.4452537
  moments of inertia/u·Å² :        0.9446680E+04   0.5793352E+05   0.6578113E+05
rotational constants/cm⁻¹ :        0.1784503E-02   0.2909824E-03   0.2562685E-03

 * 84 selected distances

     #   Z          #   Z                                           value/Å
     1   6 C        2   6 C                                       1.3456209
     3   6 C        4   8 O                                       1.2062050
     5   6 C        6   6 C                                       1.3740459
     6   6 C        7   6 C                                       1.4028114
     7   6 C        8   8 O                                       1.3476899
     8   8 O        9   6 C                                       1.4101893
     7   6 C       10   6 C                                       1.3982039
    10   6 C       11   6 C                                       1.3851950
     5   6 C       12   6 C                                       1.4115120
    11   6 C       12   6 C                                       1.3867146
    13   6 C       14   6 C                                       1.3675154
    15   6 C       16   7 N                                       1.1479541
    17   6 C       18   7 N                                       1.1481492
    19   6 C       20   6 C                                       1.4090714
    20   6 C       21   8 O                                       1.3571590
    21   8 O       22   6 C                                       1.4145001
    20   6 C       23   6 C                                       1.3895399
    23   6 C       25   6 C                                       1.3908914
    25   6 C       26   6 C                                       1.4068781
    26   6 C       27   8 O                                       1.3443818
    27   8 O       28   6 C                                       1.4135930
    19   6 C       29   6 C                                       1.3940238
    26   6 C       29   6 C                                       1.3933365
    31   6 C       32   6 C                                       1.3726972
    32   6 C       33   9 F                                       1.3374223
    32   6 C       34   6 C                                       1.4195285
    34   6 C       35   6 C                                       1.4228174
    35   6 C       36   6 C                                       1.4406812
    36   6 C       37   7 N                                       1.3281806
    37   7 N       38  16 S                                       1.6117629
    35   6 C       39   7 N                                       1.3267601
    38  16 S       39   7 N                                       1.6027749
    36   6 C       40   6 C                                       1.4288031
    40   6 C       41   6 C                                       1.3826319
    41   6 C       42   9 F                                       1.3473736
    34   6 C       43   6 C                                       1.4093677
    41   6 C       43   6 C                                       1.4116057
    43   6 C       44   6 C                                       1.4230381
    31   6 C       45   6 C                                       1.4185021
    44   6 C       45   6 C                                       1.4357373
    45   6 C       46   7 N                                       1.3296608
    46   7 N       47  16 S                                       1.6068903
    44   6 C       48   7 N                                       1.3270815
    47  16 S       48   7 N                                       1.6058854
    40   6 C       49   6 C                                       1.4352345
    49   6 C       50   6 C                                       1.3897733
    50   6 C       51   6 C                                       1.3815096
    51   6 C       52   6 C                                       1.3985419
    49   6 C       53  34 Se                                      1.8749093
    52   6 C       53  34 Se                                      1.8807873 (max)
    52   6 C       54   6 C                                       1.4074024
    54   6 C       55   6 C                                       1.3681019
    56   6 C       57   8 O                                       1.2207152
    58   6 C       59   6 C                                       1.3908701
    59   6 C       60  16 S                                       1.7253084
    60  16 S       61   6 C                                       1.7363531
    61   6 C       62   6 C                                       1.4067637
    62   6 C       63   6 C                                       1.3600221
    63   6 C       64  16 S                                       1.7302652
    58   6 C       65   6 C                                       1.3992377
    61   6 C       65   6 C                                       1.4019133
    64  16 S       65   6 C                                       1.7207860
    59   6 C       66   6 C                                       1.4367264
    66   6 C       67   6 C                                       1.3722987
    68   6 C       69   7 N                                       1.1486924
    70   6 C       71   7 N                                       1.1475117
     1   6 C       72   1 H                                       1.0847886
     6   6 C       73   1 H                                       1.0780503
     9   6 C       74   1 H                                       1.0884550
     9   6 C       75   1 H                                       1.0940605
     9   6 C       76   1 H                                       1.0939924
    10   6 C       77   1 H                                       1.0783768
    11   6 C       78   1 H                                       1.0782587
    22   6 C       79   1 H                                       1.0895262
    22   6 C       80   1 H                                       1.0919105
    22   6 C       81   1 H                                       1.0928631
    28   6 C       82   1 H                                       1.0921329
    28   6 C       83   1 H                                       1.0922128
    28   6 C       84   1 H                                       1.0886977
    50   6 C       85   1 H                                       1.0757650
    51   6 C       86   1 H                                       1.0781116
    54   6 C       87   1 H                                       1.0853196
    62   6 C       88   1 H                                       1.0738395
    63   6 C       89   1 H                                       1.0721365 (min)

 * 8 distinct bonds (by element types)

   Z      Z             #   av. dist./Å        max./Å        min./Å
   1 H    6 C          18     1.0849165     1.0940605     1.0721365
   6 C    6 C          38     1.3991886     1.4406812     1.3456209
   6 C    7 N           8     1.2379988     1.3296608     1.1475117
   6 C    8 O           8     1.3393042     1.4145001     1.2062050
   6 C    9 F           2     1.3423979     1.3473736     1.3374223
   6 C   16 S           4     1.7281782     1.7363531     1.7207860
   7 N   16 S           4     1.6068284     1.6117629     1.6027749
   6 C   34 Se          2     1.8778483     1.8807873     1.8749093


optimized geometry written to: xtbopt.mol


           -------------------------------------------------
          | TOTAL ENERGY             -192.742599245069 Eh   |
          | GRADIENT NORM               0.000867488647 Eh/α |
          | HOMO-LUMO GAP               1.250881643473 eV   |
           -------------------------------------------------

------------------------------------------------------------------------
 * finished run on 2022/02/03 at 17:01:06.016     
------------------------------------------------------------------------
 total:
 * wall-time:     0 d,  0 h,  0 min, 22.024 sec
 *  cpu-time:     0 d,  0 h,  2 min, 56.069 sec
 * ratio c/w:     7.995 speedup
 SCF:
 * wall-time:     0 d,  0 h,  0 min,  0.235 sec
 *  cpu-time:     0 d,  0 h,  0 min,  1.864 sec
 * ratio c/w:     7.948 speedup
 ANC optimizer:
 * wall-time:     0 d,  0 h,  0 min, 21.729 sec
 *  cpu-time:     0 d,  0 h,  2 min, 53.814 sec
 * ratio c/w:     7.999 speedup

