      -----------------------------------------------------------      
     |                   =====================                   |     
     |                           x T B                           |     
     |                   =====================                   |     
     |                         S. Grimme                         |     
     |          Mulliken Center for Theoretical Chemistry        |     
     |                    University of Bonn                     |     
      -----------------------------------------------------------      

   * xtb version 6.4.1 (unknown) compiled by 'oda6@login1.crc.pitt.edu' on 2021-06-25

   xtb is free software: you can redistribute it and/or modify it under
   the terms of the GNU Lesser General Public License as published by
   the Free Software Foundation, either version 3 of the License, or
   (at your option) any later version.
   
   xtb is distributed in the hope that it will be useful,
   but WITHOUT ANY WARRANTY; without even the implied warranty of
   MERCHANTABILITY or FITNESS FOR A PARTICULAR PURPOSE.  See the
   GNU Lesser General Public License for more details.
   
   Cite this work as:
   * C. Bannwarth, E. Caldeweyher, S. Ehlert, A. Hansen, P. Pracht,
     J. Seibert, S. Spicher, S. Grimme, WIREs Comput. Mol. Sci., 2020, 11,
     e01493. DOI: 10.1002/wcms.1493
   
   for GFN2-xTB:
   * C. Bannwarth, S. Ehlert and S. Grimme., J. Chem. Theory Comput., 2019,
     15, 1652-1671. DOI: 10.1021/acs.jctc.8b01176
   for GFN1-xTB:
   * S. Grimme, C. Bannwarth, P. Shushkov, J. Chem. Theory Comput., 2017,
     13, 1989-2009. DOI: 10.1021/acs.jctc.7b00118
   for GFN0-xTB:
   * P. Pracht, E. Caldeweyher, S. Ehlert, S. Grimme, ChemRxiv, 2019, preprint.
     DOI: 10.26434/chemrxiv.8326202.v1
   for GFN-FF:
   * S. Spicher and S. Grimme, Angew. Chem. Int. Ed., 2020, 59, 15665-15673.
     DOI: 10.1002/anie.202004239
   
   for DFT-D4:
   * E. Caldeweyher, C. Bannwarth and S. Grimme, J. Chem. Phys., 2017,
     147, 034112. DOI: 10.1063/1.4993215
   * E. Caldeweyher, S. Ehlert, A. Hansen, H. Neugebauer, S. Spicher,
     C. Bannwarth and S. Grimme, J. Chem. Phys., 2019, 150, 154122.
     DOI: 10.1063/1.5090222
   * E. Caldeweyher, J.-M. Mewes, S. Ehlert and S. Grimme, Phys. Chem. Chem. Phys.
     2020, 22, 8499-8512. DOI: 10.1039/D0CP00502A
   
   for sTDA-xTB:
   * S. Grimme and C. Bannwarth, J. Chem. Phys., 2016, 145, 054103.
     DOI: 10.1063/1.4959605
   
   in the mass-spec context:
   * V. Asgeirsson, C. Bauer and S. Grimme, Chem. Sci., 2017, 8, 4879.
     DOI: 10.1039/c7sc00601b
   * J. Koopman and S. Grimme, ACS Omega 2019, 4, 12, 15120-15133.
     DOI: 10.1021/acsomega.9b02011
   
   for metadynamics refer to:
   * S. Grimme, J. Chem. Theory Comput., 2019, 155, 2847-2862
     DOI: 10.1021/acs.jctc.9b00143
   
   for SPH calculations refer to:
   * S. Spicher and S. Grimme, J. Chem. Theory Comput., 2021, 17, 1701-1714
     DOI: 10.1021/acs.jctc.0c01306
   
   with help from (in alphabetical order)
   P. Atkinson, C. Bannwarth, F. Bohle, G. Brandenburg, E. Caldeweyher
   M. Checinski, S. Dohm, S. Ehlert, S. Ehrlich, I. Gerasimov, J. Koopman
   C. Lavigne, S. Lehtola, F. März, M. Müller, F. Musil, H. Neugebauer
   J. Pisarek, C. Plett, P. Pracht, J. Seibert, P. Shushkov, S. Spicher
   M. Stahn, M. Steiner, T. Strunk, J. Stückrath, T. Rose, and J. Unsleber
   
 * started run on 2022/02/12 at 21:21:36.159     

           -------------------------------------------------
          |                Calculation Setup                |
           -------------------------------------------------

          program call               : /ihome/ghutchison/oda6/xtb/xtb-641/bin/xtb ../../FF_optimized/39_110_86_71_39.mol -opt
          hostname                   : smp-n25
          coordinate file            : ../../FF_optimized/39_110_86_71_39.mol
          omp threads                :                     8
          number of atoms            :                   218
          number of electrons        :                   670
          charge                     :                     0
          spin                       :                   0.0
          first test random number   :      0.88534972782001

   ID    Z sym.   atoms
    1    6 C      1-3, 5-13, 15, 17-26, 30, 31, 33-35, 37-49, 51-54, 58, 59,
                  61-71, 73, 74, 76, 77, 79, 80, 82-94, 96-106, 108-111, 113,
                  114, 116-118, 120-128, 130, 132-138
    2    8 O      4, 28, 32, 36, 119
    3    7 N      14, 16, 27, 29, 55, 57, 75, 78, 129, 131
    4   16 S      50, 56, 60, 72, 81, 95, 107, 112, 115
    5    1 H      139-218
########################################################################
[WARNING] Please study the warnings concerning your input carefully
-1- prog_main_parseArguments: the use of '-opt' is discouraged, please use '--opt' next time
########################################################################

           -------------------------------------------------
          |                 G F N 2 - x T B                 |
           -------------------------------------------------

        Reference                      10.1021/acs.jctc.8b01176
      * Hamiltonian:
        H0-scaling (s, p, d)           1.850000    2.230000    2.230000
        zeta-weighting                 0.500000
      * Dispersion:
        s8                             2.700000
        a1                             0.520000
        a2                             5.000000
        s9                             5.000000
      * Repulsion:
        kExp                           1.500000    1.000000
        rExp                           1.000000
      * Coulomb:
        alpha                          2.000000
        third order                    shell-resolved
        anisotropic                    true
        a3                             3.000000
        a5                             4.000000
        cn-shift                       1.200000
        cn-exp                         4.000000
        max-rad                        5.000000


          ...................................................
          :                      SETUP                      :
          :.................................................:
          :  # basis functions                 686          :
          :  # atomic orbitals                 677          :
          :  # shells                          365          :
          :  # electrons                       670          :
          :  max. iterations                   250          :
          :  Hamiltonian                  GFN2-xTB          :
          :  restarted?                      false          :
          :  GBSA solvation                  false          :
          :  PC potential                    false          :
          :  electronic temp.          300.0000000     K    :
          :  accuracy                    1.0000000          :
          :  -> integral cutoff          0.2500000E+02      :
          :  -> integral neglect         0.1000000E-07      :
          :  -> SCF convergence          0.1000000E-05 Eh   :
          :  -> wf. convergence          0.1000000E-03 e    :
          :  Broyden damping             0.4000000          :
          ...................................................

 iter      E             dE          RMSdq      gap      omega  full diag
   1   -367.8841381 -0.367884E+03  0.454E+00    1.22       0.0  T
   2   -368.2213453 -0.337207E+00  0.279E+00    0.71       1.0  T
   3   -367.9646621  0.256683E+00  0.177E+00    0.58       1.0  T
   4   -368.3758808 -0.411219E+00  0.706E-01    0.56       1.0  T
   5   -368.4537660 -0.778852E-01  0.258E-01    0.38       1.0  T
   6   -368.4625797 -0.881366E-02  0.125E-01    0.50       1.0  T
   7   -368.4645190 -0.193931E-02  0.593E-02    0.51       1.0  T
   8   -368.4650011 -0.482119E-03  0.272E-02    0.51       1.0  T
   9   -368.4650804 -0.793109E-04  0.143E-02    0.52       1.0  T
  10   -368.4651022 -0.217938E-04  0.761E-03    0.52       1.0  T
  11   -368.4651086 -0.638180E-05  0.359E-03    0.52       1.9  T
  12   -368.4651103 -0.168875E-05  0.163E-03    0.52       4.1  T
  13   -368.4651105 -0.172199E-06  0.993E-04    0.52       6.8  T
  14   -368.4651106 -0.995965E-07  0.458E-04    0.52      14.8  T

   *** convergence criteria satisfied after 14 iterations ***

         #    Occupation            Energy/Eh            Energy/eV
      -------------------------------------------------------------
         1        2.0000           -0.7936878             -21.5973
       ...           ...                  ...                  ...
       329        2.0000           -0.3761891             -10.2366
       330        2.0000           -0.3691753             -10.0458
       331        2.0000           -0.3655320              -9.9466
       332        2.0000           -0.3626204              -9.8674
       333        2.0000           -0.3585539              -9.7567
       334        2.0000           -0.3561523              -9.6914
       335        1.9999           -0.3543435              -9.6422 (HOMO)
       336        0.0001           -0.3352481              -9.1226 (LUMO)
       337        0.0000           -0.3348165              -9.1108
       338                         -0.3264004              -8.8818
       339                         -0.3239174              -8.8142
       340                         -0.2987526              -8.1295
       ...                                ...                  ...
       677                          1.1455864              31.1730
      -------------------------------------------------------------
                  HL-Gap            0.0190954 Eh            0.5196 eV
             Fermi-level           -0.3449584 Eh           -9.3868 eV

 SCC (total)                   0 d,  0 h,  0 min,  0.843 sec
 SCC setup                      ...        0 min,  0.003 sec (  0.398%)
 Dispersion                     ...        0 min,  0.011 sec (  1.333%)
 classical contributions        ...        0 min,  0.000 sec (  0.051%)
 integral evaluation            ...        0 min,  0.040 sec (  4.803%)
 iterations                     ...        0 min,  0.624 sec ( 74.099%)
 molecular gradient             ...        0 min,  0.159 sec ( 18.875%)
 printout                       ...        0 min,  0.004 sec (  0.429%)

         :::::::::::::::::::::::::::::::::::::::::::::::::::::
         ::                     SUMMARY                     ::
         :::::::::::::::::::::::::::::::::::::::::::::::::::::
         :: total energy            -363.174940527026 Eh    ::
         :: gradient norm              0.456098043940 Eh/a0 ::
         :: HOMO-LUMO gap              0.519612072435 eV    ::
         ::.................................................::
         :: SCC energy              -368.465110550108 Eh    ::
         :: -> isotropic ES            0.167100250804 Eh    ::
         :: -> anisotropic ES          0.032134367860 Eh    ::
         :: -> anisotropic XC          0.234896600320 Eh    ::
         :: -> dispersion             -0.344727967578 Eh    ::
         :: repulsion energy           5.283790575686 Eh    ::
         :: add. restraining           0.000000000000 Eh    ::
         :: total charge               0.000000000001 e     ::
         :::::::::::::::::::::::::::::::::::::::::::::::::::::

      ----------------------------------------------------------- 
     |                   =====================                   |
     |                        A N C O P T                        |
     |                   =====================                   |
     |               Approximate Normal Coordinate               |
     |                Rational Function Optimizer                |
      ----------------------------------------------------------- 

          ...................................................
          :                      SETUP                      :
          :.................................................:
          :   optimization level            normal          :
          :   max. optcycles                   654          :
          :   ANC micro-cycles                  20          :
          :   degrees of freedom               648          :
          :.................................................:
          :   RF solver                   davidson          :
          :   write xtbopt.log                true          :
          :   linear?                        false          :
          :   energy convergence         0.5000000E-05 Eh   :
          :   grad. convergence          0.1000000E-02 Eh/α :
          :   maximium RF displ.         1.0000000          :
          :   Hlow (freq-cutoff)         0.1000000E-01      :
          :   Hmax (freq-cutoff)         5.0000000          :
          :   S6 in model hess.         20.0000000          :
          ...................................................

generating ANC from model Hessian ...
Using Lindh-Hessian (1995)
 Shifting diagonal of input Hessian by   1.012005798167111E-002
 Lowest  eigenvalues of input Hessian
    0.010000    0.010090    0.010114    0.010117    0.000000    0.000000
    0.000000    0.000000    0.000000    0.000000    0.010122    0.010128
    0.010130    0.010150    0.010154    0.010164    0.010176    0.010186
 Highest eigenvalues
    2.289043    2.364124    2.535664    2.550288    2.605755    2.631480
 

........................................................................
.............................. CYCLE    1 ..............................
........................................................................
   1   -368.4651106 -0.368465E+03  0.230E-04    0.52       0.0  T
   2   -368.4651106  0.131848E-08  0.203E-04    0.52      33.4  T
   3   -368.4651106 -0.694376E-08  0.106E-04    0.52      63.9  T
     SCC iter.                  ...        0 min,  0.140 sec
     gradient                   ...        0 min,  0.156 sec
 * total energy  :  -363.1749405 Eh     change       -0.2040593E-07 Eh
   gradient norm :     0.4561016 Eh/α   predicted     0.0000000E+00 (-100.00%)
   displ. norm   :     0.5829794 α      lambda       -0.2101949E+00
   maximum displ.:     0.1176919 α      in ANC's #414, #324, #407, ...

........................................................................
.............................. CYCLE    2 ..............................
........................................................................
   1   -368.7501338 -0.368750E+03  0.314E-01    0.55       0.0  T
   2   -368.7519756 -0.184180E-02  0.192E-01    0.58       1.0  T
   3   -368.7510062  0.969354E-03  0.116E-01    0.55       1.0  T
   4   -368.7529535 -0.194729E-02  0.450E-02    0.56       1.0  T
   5   -368.7531558 -0.202291E-03  0.227E-02    0.56       1.0  T
   6   -368.7532209 -0.651302E-04  0.883E-03    0.57       1.0  T
   7   -368.7532289 -0.799851E-05  0.445E-03    0.57       1.5  T
   8   -368.7532319 -0.296079E-05  0.222E-03    0.57       3.0  T
   9   -368.7532323 -0.398240E-06  0.110E-03    0.57       6.2  T
  10   -368.7532324 -0.107608E-06  0.467E-04    0.57      14.5  T
  11   -368.7532324 -0.311499E-07  0.206E-04    0.57      32.8  T
     SCC iter.                  ...        0 min,  0.485 sec
     gradient                   ...        0 min,  0.156 sec
 * total energy  :  -363.3387301 Eh     change       -0.1637896E+00 Eh
   gradient norm :     0.2457867 Eh/α   predicted    -0.1408703E+00 ( -13.99%)
   displ. norm   :     0.5802167 α      lambda       -0.1137798E+00
   maximum displ.:     0.1025755 α      in ANC's #414, #324, #334, ...

........................................................................
.............................. CYCLE    3 ..............................
........................................................................
   1   -368.9751806 -0.368975E+03  0.292E-01    0.58       0.0  T
   2   -368.9768269 -0.164630E-02  0.172E-01    0.61       1.0  T
   3   -368.9758080  0.101885E-02  0.106E-01    0.58       1.0  T
   4   -368.9775213 -0.171326E-02  0.461E-02    0.59       1.0  T
   5   -368.9778037 -0.282374E-03  0.228E-02    0.59       1.0  T
   6   -368.9778757 -0.720020E-04  0.874E-03    0.59       1.0  T
   7   -368.9778830 -0.738366E-05  0.409E-03    0.59       1.7  T
   8   -368.9778853 -0.224155E-05  0.209E-03    0.59       3.2  T
   9   -368.9778856 -0.342500E-06  0.102E-03    0.59       6.7  T
  10   -368.9778857 -0.914870E-07  0.434E-04    0.59      15.6  T
  11   -368.9778857 -0.235749E-07  0.192E-04    0.59      35.3  T
     SCC iter.                  ...        0 min,  0.475 sec
     gradient                   ...        0 min,  0.157 sec
 * total energy  :  -363.4139432 Eh     change       -0.7521310E-01 Eh
   gradient norm :     0.0786910 Eh/α   predicted    -0.7604197E-01 (   1.10%)
   displ. norm   :     0.5696792 α      lambda       -0.3149422E-01
   maximum displ.:     0.1102774 α      in ANC's #159, #64, #106, ...

........................................................................
.............................. CYCLE    4 ..............................
........................................................................
   1   -369.0663883 -0.369066E+03  0.175E-01    0.59       0.0  T
   2   -369.0664904 -0.102171E-03  0.106E-01    0.60       1.0  T
   3   -369.0651303  0.136016E-02  0.775E-02    0.60       1.0  T
   4   -369.0667584 -0.162817E-02  0.181E-02    0.61       1.0  T
   5   -369.0668071 -0.486140E-04  0.942E-03    0.61       1.0  T
   6   -369.0668190 -0.119075E-04  0.393E-03    0.61       1.7  T
   7   -369.0668205 -0.155830E-05  0.188E-03    0.61       3.6  T
   8   -369.0668209 -0.327875E-06  0.103E-03    0.61       6.6  T
   9   -369.0668209 -0.632604E-07  0.535E-04    0.61      12.7  T
  10   -369.0668209 -0.251848E-07  0.237E-04    0.61      28.6  T
     SCC iter.                  ...        0 min,  0.430 sec
     gradient                   ...        0 min,  0.157 sec
 * total energy  :  -363.4361636 Eh     change       -0.2222036E-01 Eh
   gradient norm :     0.0386347 Eh/α   predicted    -0.2085787E-01 (  -6.13%)
   displ. norm   :     0.6031538 α      lambda       -0.1380034E-01
   maximum displ.:     0.1802455 α      in ANC's #64, #106, #116, ...

........................................................................
.............................. CYCLE    5 ..............................
........................................................................
   1   -369.1144393 -0.369114E+03  0.140E-01    0.60       0.0  T
   2   -369.1144867 -0.473631E-04  0.825E-02    0.61       1.0  T
   3   -369.1136413  0.845321E-03  0.596E-02    0.62       1.0  T
   4   -369.1146183 -0.976950E-03  0.120E-02    0.62       1.0  T
   5   -369.1146409 -0.226125E-04  0.637E-03    0.62       1.1  T
   6   -369.1146461 -0.517546E-05  0.256E-03    0.62       2.6  T
   7   -369.1146470 -0.886301E-06  0.121E-03    0.62       5.6  T
   8   -369.1146471 -0.125808E-06  0.677E-04    0.62      10.0  T
   9   -369.1146471 -0.290803E-07  0.358E-04    0.62      18.9  T
     SCC iter.                  ...        0 min,  0.398 sec
     gradient                   ...        0 min,  0.157 sec
 * total energy  :  -363.4461116 Eh     change       -0.9948025E-02 Eh
   gradient norm :     0.0282002 Eh/α   predicted    -0.9410425E-02 (  -5.40%)
   displ. norm   :     0.7137594 α      lambda       -0.1023056E-01
   maximum displ.:     0.2446869 α      in ANC's #67, #64, #82, ...

........................................................................
.............................. CYCLE    6 ..............................
........................................................................
   1   -369.1154403 -0.369115E+03  0.214E-01    0.61       0.0  T
   2   -369.1155068 -0.664683E-04  0.121E-01    0.63       1.0  T
   3   -369.1135184  0.198837E-02  0.901E-02    0.59       1.0  T
   4   -369.1157531 -0.223468E-02  0.118E-02    0.63       1.0  T
   5   -369.1157772 -0.240949E-04  0.641E-03    0.62       1.1  T
   6   -369.1157832 -0.593624E-05  0.260E-03    0.62       2.6  T
   7   -369.1157840 -0.821995E-06  0.110E-03    0.62       6.2  T
   8   -369.1157841 -0.983449E-07  0.578E-04    0.62      11.7  T
   9   -369.1157841 -0.342690E-07  0.286E-04    0.62      23.7  T
     SCC iter.                  ...        0 min,  0.387 sec
     gradient                   ...        0 min,  0.168 sec
 * total energy  :  -363.4507315 Eh     change       -0.4619912E-02 Eh
   gradient norm :     0.0518609 Eh/α   predicted    -0.7721283E-02 (  67.13%)
   displ. norm   :     0.5763572 α      lambda       -0.9551283E-02
   maximum displ.:     0.1926969 α      in ANC's #64, #39, #65, ...

........................................................................
.............................. CYCLE    7 ..............................
........................................................................
   1   -369.1413018 -0.369141E+03  0.187E-01    0.62       0.0  T
   2   -369.1414248 -0.122990E-03  0.104E-01    0.63       1.0  T
   3   -369.1411578  0.266993E-03  0.422E-02    0.63       1.0  T
   4   -369.1414932 -0.335331E-03  0.644E-03    0.63       1.1  T
   5   -369.1414954 -0.221402E-05  0.436E-03    0.63       1.6  T
   6   -369.1414985 -0.312459E-05  0.181E-03    0.63       3.7  T
   7   -369.1414992 -0.647055E-06  0.661E-04    0.63      10.3  T
   8   -369.1414992 -0.439740E-07  0.363E-04    0.63      18.7  T
     SCC iter.                  ...        0 min,  0.350 sec
     gradient                   ...        0 min,  0.156 sec
 * total energy  :  -363.4565617 Eh     change       -0.5830119E-02 Eh
   gradient norm :     0.0270724 Eh/α   predicted    -0.6362065E-02 (   9.12%)
   displ. norm   :     0.6048238 α      lambda       -0.5268602E-02
   maximum displ.:     0.1722760 α      in ANC's #64, #48, #42, ...

........................................................................
.............................. CYCLE    8 ..............................
........................................................................
   1   -369.1569628 -0.369157E+03  0.165E-01    0.63       0.0  T
   2   -369.1570406 -0.778848E-04  0.918E-02    0.64       1.0  T
   3   -369.1568758  0.164826E-03  0.300E-02    0.64       1.0  T
   4   -369.1570767 -0.200907E-03  0.615E-03    0.64       1.1  T
   5   -369.1570809 -0.421754E-05  0.364E-03    0.64       1.9  T
   6   -369.1570828 -0.182631E-05  0.140E-03    0.64       4.8  T
   7   -369.1570831 -0.325298E-06  0.578E-04    0.64      11.7  T
   8   -369.1570831 -0.328795E-07  0.324E-04    0.64      20.9  T
     SCC iter.                  ...        0 min,  0.349 sec
     gradient                   ...        0 min,  0.157 sec
 * total energy  :  -363.4599479 Eh     change       -0.3386205E-02 Eh
   gradient norm :     0.0333528 Eh/α   predicted    -0.3597973E-02 (   6.25%)
   displ. norm   :     0.7148410 α      lambda       -0.6320498E-02
   maximum displ.:     0.2228940 α      in ANC's #64, #55, #42, ...

........................................................................
.............................. CYCLE    9 ..............................
........................................................................
   1   -369.1595007 -0.369160E+03  0.131E-01    0.64       0.0  T
   2   -369.1595427 -0.419495E-04  0.744E-02    0.65       1.0  T
   3   -369.1592174  0.325245E-03  0.384E-02    0.64       1.0  T
   4   -369.1595824 -0.364979E-03  0.686E-03    0.65       1.0  T
   5   -369.1595885 -0.603721E-05  0.362E-03    0.65       1.9  T
   6   -369.1595900 -0.149560E-05  0.173E-03    0.65       3.9  T
   7   -369.1595906 -0.615748E-06  0.724E-04    0.65       9.4  T
   8   -369.1595906 -0.519381E-07  0.358E-04    0.65      18.9  T
     SCC iter.                  ...        0 min,  0.347 sec
     gradient                   ...        0 min,  0.157 sec
 * total energy  :  -363.4643235 Eh     change       -0.4375679E-02 Eh
   gradient norm :     0.0250249 Eh/α   predicted    -0.4775140E-02 (   9.13%)
   displ. norm   :     0.6987714 α      lambda       -0.5417364E-02
   maximum displ.:     0.1913896 α      in ANC's #39, #42, #28, ...

........................................................................
.............................. CYCLE   10 ..............................
........................................................................
   1   -369.1510093 -0.369151E+03  0.177E-01    0.65       0.0  T
   2   -369.1511057 -0.963962E-04  0.994E-02    0.65       1.0  T
   3   -369.1506413  0.464389E-03  0.497E-02    0.65       1.0  T
   4   -369.1511793 -0.537978E-03  0.705E-03    0.66       1.0  T
   5   -369.1511829 -0.360856E-05  0.452E-03    0.65       1.5  T
   6   -369.1511863 -0.343079E-05  0.191E-03    0.65       3.5  T
   7   -369.1511868 -0.435574E-06  0.850E-04    0.65       8.0  T
   8   -369.1511869 -0.858981E-07  0.386E-04    0.65      17.5  T
     SCC iter.                  ...        0 min,  0.349 sec
     gradient                   ...        0 min,  0.157 sec
 * total energy  :  -363.4664633 Eh     change       -0.2139749E-02 Eh
   gradient norm :     0.0490409 Eh/α   predicted    -0.4031284E-02 (  88.40%)
   displ. norm   :     0.5233084 α      lambda       -0.5872456E-02
   maximum displ.:     0.1448385 α      in ANC's #42, #28, #64, ...

........................................................................
.............................. CYCLE   11 ..............................
........................................................................
   1   -369.1686190 -0.369169E+03  0.133E-01    0.66       0.0  T
   2   -369.1686669 -0.478537E-04  0.748E-02    0.66       1.0  T
   3   -369.1684664  0.200447E-03  0.328E-02    0.66       1.0  T
   4   -369.1687020 -0.235543E-03  0.468E-03    0.66       1.4  T
   5   -369.1687032 -0.122510E-05  0.304E-03    0.66       2.2  T
   6   -369.1687044 -0.120771E-05  0.122E-03    0.66       5.6  T
   7   -369.1687046 -0.184950E-06  0.448E-04    0.66      15.1  T
   8   -369.1687046 -0.191138E-07  0.205E-04    0.66      33.1  T
     SCC iter.                  ...        0 min,  0.344 sec
     gradient                   ...        0 min,  0.161 sec
 * total energy  :  -363.4702310 Eh     change       -0.3767728E-02 Eh
   gradient norm :     0.0257942 Eh/α   predicted    -0.3740325E-02 (  -0.73%)
   displ. norm   :     0.6214307 α      lambda       -0.3591249E-02
   maximum displ.:     0.1767861 α      in ANC's #28, #42, #27, ...

........................................................................
.............................. CYCLE   12 ..............................
........................................................................
   1   -369.1773056 -0.369177E+03  0.840E-02    0.66       0.0  T
   2   -369.1773289 -0.232692E-04  0.478E-02    0.66       1.0  T
   3   -369.1772192  0.109714E-03  0.237E-02    0.67       1.0  T
   4   -369.1773429 -0.123741E-03  0.454E-03    0.66       1.5  T
   5   -369.1773456 -0.260796E-05  0.252E-03    0.66       2.7  T
   6   -369.1773463 -0.762483E-06  0.999E-04    0.66       6.8  T
   7   -369.1773464 -0.971655E-07  0.442E-04    0.66      15.3  T
     SCC iter.                  ...        0 min,  0.300 sec
     gradient                   ...        0 min,  0.157 sec
 * total energy  :  -363.4731103 Eh     change       -0.2879290E-02 Eh
   gradient norm :     0.0194009 Eh/α   predicted    -0.2489057E-02 ( -13.55%)
   displ. norm   :     0.7509342 α      lambda       -0.3765373E-02
   maximum displ.:     0.2243333 α      in ANC's #28, #42, #27, ...

........................................................................
.............................. CYCLE   13 ..............................
........................................................................
   1   -369.1872863 -0.369187E+03  0.111E-01    0.67       0.0  T
   2   -369.1873141 -0.278059E-04  0.634E-02    0.66       1.0  T
   3   -369.1870708  0.243283E-03  0.346E-02    0.67       1.0  T
   4   -369.1873452 -0.274395E-03  0.586E-03    0.66       1.2  T
   5   -369.1873501 -0.490733E-05  0.313E-03    0.67       2.2  T
   6   -369.1873510 -0.916559E-06  0.134E-03    0.66       5.1  T
   7   -369.1873513 -0.215631E-06  0.464E-04    0.66      14.6  T
   8   -369.1873513 -0.205370E-07  0.263E-04    0.66      25.7  T
     SCC iter.                  ...        0 min,  0.364 sec
     gradient                   ...        0 min,  0.157 sec
 * total energy  :  -363.4761686 Eh     change       -0.3058333E-02 Eh
   gradient norm :     0.0178458 Eh/α   predicted    -0.2944338E-02 (  -3.73%)
   displ. norm   :     0.7864850 α      lambda       -0.3637056E-02
   maximum displ.:     0.2412210 α      in ANC's #28, #42, #27, ...

........................................................................
.............................. CYCLE   14 ..............................
........................................................................
   1   -369.1899008 -0.369190E+03  0.114E-01    0.67       0.0  T
   2   -369.1899372 -0.364755E-04  0.646E-02    0.66       1.0  T
   3   -369.1897681  0.169090E-03  0.286E-02    0.67       1.0  T
   4   -369.1899588 -0.190610E-03  0.585E-03    0.66       1.2  T
   5   -369.1899638 -0.503267E-05  0.301E-03    0.67       2.2  T
   6   -369.1899646 -0.822456E-06  0.137E-03    0.67       4.9  T
   7   -369.1899648 -0.227668E-06  0.515E-04    0.67      13.2  T
   8   -369.1899649 -0.362936E-07  0.258E-04    0.67      26.3  T
     SCC iter.                  ...        0 min,  0.360 sec
     gradient                   ...        0 min,  0.157 sec
 * total energy  :  -363.4788823 Eh     change       -0.2713624E-02 Eh
   gradient norm :     0.0202233 Eh/α   predicted    -0.2943385E-02 (   8.47%)
   displ. norm   :     0.7389780 α      lambda       -0.3666925E-02
   maximum displ.:     0.2272084 α      in ANC's #28, #42, #27, ...

........................................................................
.............................. CYCLE   15 ..............................
........................................................................
   1   -369.1980013 -0.369198E+03  0.157E-01    0.67       0.0  T
   2   -369.1980622 -0.609036E-04  0.881E-02    0.67       1.0  T
   3   -369.1978993  0.162989E-03  0.287E-02    0.67       1.0  T
   4   -369.1980945 -0.195262E-03  0.562E-03    0.67       1.2  T
   5   -369.1980980 -0.345503E-05  0.309E-03    0.67       2.2  T
   6   -369.1980989 -0.913432E-06  0.135E-03    0.67       5.0  T
   7   -369.1980991 -0.245545E-06  0.509E-04    0.67      13.3  T
   8   -369.1980992 -0.355935E-07  0.240E-04    0.67      28.2  T
     SCC iter.                  ...        0 min,  0.360 sec
     gradient                   ...        0 min,  0.157 sec
 * total energy  :  -363.4809654 Eh     change       -0.2083184E-02 Eh
   gradient norm :     0.0275179 Eh/α   predicted    -0.2834703E-02 (  36.08%)
   displ. norm   :     0.6360542 α      lambda       -0.3477606E-02
   maximum displ.:     0.2073577 α      in ANC's #28, #27, #42, ...

........................................................................
.............................. CYCLE   16 ..............................
........................................................................
   1   -369.1872663 -0.369187E+03  0.120E-01    0.67       0.0  T
   2   -369.1873053 -0.389358E-04  0.680E-02    0.67       1.0  T
   3   -369.1870419  0.263354E-03  0.335E-02    0.67       1.0  T
   4   -369.1873393 -0.297339E-03  0.564E-03    0.67       1.2  T
   5   -369.1873430 -0.374422E-05  0.305E-03    0.67       2.2  T
   6   -369.1873439 -0.878701E-06  0.137E-03    0.67       5.0  T
   7   -369.1873441 -0.172349E-06  0.493E-04    0.67      13.7  T
   8   -369.1873441 -0.341659E-07  0.221E-04    0.67      30.7  T
     SCC iter.                  ...        0 min,  0.354 sec
     gradient                   ...        0 min,  0.157 sec
 * total energy  :  -363.4829710 Eh     change       -0.2005533E-02 Eh
   gradient norm :     0.0323061 Eh/α   predicted    -0.2442266E-02 (  21.78%)
   displ. norm   :     0.5736802 α      lambda       -0.2753838E-02
   maximum displ.:     0.1820354 α      in ANC's #28, #42, #27, ...

........................................................................
.............................. CYCLE   17 ..............................
........................................................................
   1   -369.1971087 -0.369197E+03  0.988E-02    0.68       0.0  T
   2   -369.1971394 -0.306523E-04  0.564E-02    0.67       1.0  T
   3   -369.1969751  0.164232E-03  0.280E-02    0.68       1.0  T
   4   -369.1971633 -0.188158E-03  0.445E-03    0.67       1.5  T
   5   -369.1971651 -0.182723E-05  0.283E-03    0.67       2.4  T
   6   -369.1971662 -0.104643E-05  0.113E-03    0.67       6.0  T
   7   -369.1971663 -0.112874E-06  0.445E-04    0.67      15.2  T
   8   -369.1971663 -0.348090E-07  0.201E-04    0.67      33.7  T
     SCC iter.                  ...        0 min,  0.354 sec
     gradient                   ...        0 min,  0.157 sec
 * total energy  :  -363.4844749 Eh     change       -0.1503882E-02 Eh
   gradient norm :     0.0377805 Eh/α   predicted    -0.1830079E-02 (  21.69%)
   displ. norm   :     0.6070650 α      lambda       -0.2644893E-02
   maximum displ.:     0.1781241 α      in ANC's #28, #42, #27, ...

........................................................................
.............................. CYCLE   18 ..............................
........................................................................
   1   -369.1909689 -0.369191E+03  0.960E-02    0.68       0.0  T
   2   -369.1910217 -0.527929E-04  0.558E-02    0.67       1.0  T
   3   -369.1908336  0.188064E-03  0.302E-02    0.68       1.0  T
   4   -369.1910492 -0.215623E-03  0.596E-03    0.67       1.1  T
   5   -369.1910548 -0.559576E-05  0.268E-03    0.67       2.5  T
   6   -369.1910555 -0.701470E-06  0.141E-03    0.67       4.8  T
   7   -369.1910557 -0.184773E-06  0.545E-04    0.67      12.4  T
   8   -369.1910558 -0.455215E-07  0.229E-04    0.67      29.5  T
     SCC iter.                  ...        0 min,  0.353 sec
     gradient                   ...        0 min,  0.157 sec
 * total energy  :  -363.4857002 Eh     change       -0.1225366E-02 Eh
   gradient norm :     0.0357573 Eh/α   predicted    -0.1809808E-02 (  47.70%)
   displ. norm   :     0.4741602 α      lambda       -0.2606109E-02
   maximum displ.:     0.1610748 α      in ANC's #28, #27, #60, ...

........................................................................
.............................. CYCLE   19 ..............................
........................................................................
   1   -369.2105797 -0.369211E+03  0.920E-02    0.67       0.0  T
   2   -369.2106246 -0.449056E-04  0.517E-02    0.66       1.0  T
   3   -369.2105500  0.745902E-04  0.195E-02    0.67       1.0  T
   4   -369.2106346 -0.846208E-04  0.579E-03    0.66       1.2  T
   5   -369.2106403 -0.572909E-05  0.241E-03    0.67       2.8  T
   6   -369.2106406 -0.215247E-06  0.149E-03    0.67       4.6  T
   7   -369.2106409 -0.294216E-06  0.480E-04    0.67      14.1  T
   8   -369.2106409 -0.398958E-07  0.209E-04    0.67      32.4  T
     SCC iter.                  ...        0 min,  0.349 sec
     gradient                   ...        0 min,  0.157 sec
 * total energy  :  -363.4860212 Eh     change       -0.3209757E-03 Eh
   gradient norm :     0.0468924 Eh/α   predicted    -0.1596013E-02 ( 397.24%)
   displ. norm   :     0.4643653 α      lambda       -0.4357465E-02
   maximum displ.:     0.1399274 α      in ANC's #28, #55, #42, ...

........................................................................
.............................. CYCLE   20 ..............................
........................................................................
   1   -369.1776582 -0.369178E+03  0.137E-01    0.65       0.0  T
   2   -369.1777633 -0.105074E-03  0.791E-02    0.67       1.0  T
   3   -369.1772512  0.512110E-03  0.483E-02    0.65       1.0  T
   4   -369.1778273 -0.576059E-03  0.894E-03    0.67       1.0  T
   5   -369.1778387 -0.114401E-04  0.414E-03    0.66       1.6  T
   6   -369.1778406 -0.189376E-05  0.217E-03    0.66       3.1  T
   7   -369.1778410 -0.424899E-06  0.874E-04    0.66       7.7  T
   8   -369.1778412 -0.151032E-06  0.312E-04    0.66      21.7  T
     SCC iter.                  ...        0 min,  0.345 sec
     gradient                   ...        0 min,  0.157 sec
 * total energy  :  -363.4864974 Eh     change       -0.4762433E-03 Eh
   gradient norm :     0.0681327 Eh/α   predicted    -0.2648546E-02 ( 456.13%)
   displ. norm   :     0.2945907 α      lambda       -0.4522266E-02
   maximum displ.:     0.1474772 α      in ANC's #31, #24, #6, ...
 * RMSD in coord.:     0.6181314 α      energy gain  -0.3115569E+00 Eh

generating ANC from model Hessian ...
Using Lindh-Hessian (1995)
 Shifting diagonal of input Hessian by   1.074537856238383E-002
 Lowest  eigenvalues of input Hessian
    0.010000    0.010730    0.010743    0.010744    0.000000    0.000000
    0.000000    0.000000    0.000000    0.000000    0.010751    0.010758
    0.010764    0.010789    0.010806    0.010809    0.010815    0.010842
 Highest eigenvalues
    2.291673    2.311763    2.613338    2.645651    2.660372    2.680256
 

........................................................................
.............................. CYCLE   21 ..............................
........................................................................
   1   -369.2142500 -0.369214E+03  0.126E-01    0.69       0.0  T
   2   -369.2143100 -0.599850E-04  0.717E-02    0.68       1.0  T
   3   -369.2140102  0.299835E-03  0.362E-02    0.68       1.0  T
   4   -369.2143535 -0.343298E-03  0.505E-03    0.68       1.3  T
   5   -369.2143566 -0.310991E-05  0.273E-03    0.68       2.5  T
   6   -369.2143573 -0.743836E-06  0.147E-03    0.68       4.6  T
   7   -369.2143576 -0.270739E-06  0.573E-04    0.68      11.8  T
   8   -369.2143576 -0.523577E-07  0.247E-04    0.68      27.4  T
     SCC iter.                  ...        0 min,  0.352 sec
     gradient                   ...        0 min,  0.157 sec
 * total energy  :  -363.4874785 Eh     change       -0.9810063E-03 Eh
   gradient norm :     0.0518761 Eh/α   predicted     0.0000000E+00 (-100.00%)
   displ. norm   :     0.1848512 α      lambda       -0.2413155E-02
   maximum displ.:     0.0468524 α      in ANC's #49, #22, #1, ...

........................................................................
.............................. CYCLE   22 ..............................
........................................................................
   1   -369.1990165 -0.369199E+03  0.782E-02    0.67       0.0  T
   2   -369.1990487 -0.321423E-04  0.440E-02    0.67       1.0  T
   3   -369.1989844  0.642583E-04  0.183E-02    0.67       1.0  T
   4   -369.1990567 -0.723168E-04  0.444E-03    0.67       1.5  T
   5   -369.1990612 -0.446689E-05  0.193E-03    0.67       3.5  T
   6   -369.1990618 -0.552346E-06  0.941E-04    0.67       7.2  T
   7   -369.1990619 -0.122307E-06  0.351E-04    0.67      19.3  T
     SCC iter.                  ...        0 min,  0.307 sec
     gradient                   ...        0 min,  0.157 sec
 * total energy  :  -363.4886362 Eh     change       -0.1157780E-02 Eh
   gradient norm :     0.0151901 Eh/α   predicted    -0.1249085E-02 (   7.89%)
   displ. norm   :     0.2532623 α      lambda       -0.1174336E-02
   maximum displ.:     0.0649733 α      in ANC's #96, #1, #6, ...

........................................................................
.............................. CYCLE   23 ..............................
........................................................................
   1   -369.1962276 -0.369196E+03  0.114E-01    0.67       0.0  T
   2   -369.1962637 -0.361323E-04  0.631E-02    0.66       1.0  T
   3   -369.1962455  0.182424E-04  0.114E-02    0.68       1.0  T
   4   -369.1962766 -0.311373E-04  0.318E-03    0.67       2.1  T
   5   -369.1962778 -0.118104E-05  0.169E-03    0.67       4.0  T
   6   -369.1962781 -0.270366E-06  0.843E-04    0.67       8.0  T
   7   -369.1962782 -0.133572E-06  0.248E-04    0.67      27.3  T
     SCC iter.                  ...        0 min,  0.309 sec
     gradient                   ...        0 min,  0.157 sec
 * total energy  :  -363.4887992 Eh     change       -0.1630078E-03 Eh
   gradient norm :     0.0249116 Eh/α   predicted    -0.6248346E-03 ( 283.32%)
   displ. norm   :     0.2461158 α      lambda       -0.1401621E-02
   maximum displ.:     0.0806719 α      in ANC's #22, #49, #1, ...

........................................................................
.............................. CYCLE   24 ..............................
........................................................................
   1   -369.2030191 -0.369203E+03  0.900E-02    0.67       0.0  T
   2   -369.2030404 -0.212326E-04  0.498E-02    0.67       1.0  T
   3   -369.2030068  0.335415E-04  0.137E-02    0.67       1.0  T
   4   -369.2030508 -0.440067E-04  0.240E-03    0.67       2.8  T
   5   -369.2030512 -0.379978E-06  0.147E-03    0.67       4.6  T
   6   -369.2030516 -0.334608E-06  0.534E-04    0.67      12.7  T
   7   -369.2030516 -0.438516E-07  0.207E-04    0.67      32.6  T
     SCC iter.                  ...        0 min,  0.307 sec
     gradient                   ...        0 min,  0.157 sec
 * total energy  :  -363.4895057 Eh     change       -0.7064390E-03 Eh
   gradient norm :     0.0132916 Eh/α   predicted    -0.7432604E-03 (   5.21%)
   displ. norm   :     0.3559056 α      lambda       -0.1511624E-02
   maximum displ.:     0.1048939 α      in ANC's #49, #1, #22, ...

........................................................................
.............................. CYCLE   25 ..............................
........................................................................
   1   -369.2072787 -0.369207E+03  0.133E-01    0.67       0.0  T
   2   -369.2073208 -0.420814E-04  0.735E-02    0.67       1.0  T
   3   -369.2072975  0.232924E-04  0.123E-02    0.67       1.0  T
   4   -369.2073380 -0.405224E-04  0.320E-03    0.67       2.1  T
   5   -369.2073389 -0.846728E-06  0.176E-03    0.67       3.8  T
   6   -369.2073393 -0.425158E-06  0.646E-04    0.67      10.5  T
   7   -369.2073394 -0.723725E-07  0.257E-04    0.67      26.3  T
     SCC iter.                  ...        0 min,  0.308 sec
     gradient                   ...        0 min,  0.157 sec
 * total energy  :  -363.4900944 Eh     change       -0.5887494E-03 Eh
   gradient norm :     0.0156564 Eh/α   predicted    -0.8515496E-03 (  44.64%)
   displ. norm   :     0.4041307 α      lambda       -0.1305962E-02
   maximum displ.:     0.1163781 α      in ANC's #22, #1, #49, ...

........................................................................
.............................. CYCLE   26 ..............................
........................................................................
   1   -369.2045410 -0.369205E+03  0.884E-02    0.67       0.0  T
   2   -369.2045647 -0.237036E-04  0.493E-02    0.67       1.0  T
   3   -369.2045304  0.342875E-04  0.137E-02    0.67       1.0  T
   4   -369.2045755 -0.451078E-04  0.262E-03    0.67       2.6  T
   5   -369.2045757 -0.169828E-06  0.173E-03    0.67       3.9  T
   6   -369.2045762 -0.465199E-06  0.645E-04    0.67      10.5  T
   7   -369.2045762 -0.385480E-07  0.271E-04    0.67      25.0  T
     SCC iter.                  ...        0 min,  0.304 sec
     gradient                   ...        0 min,  0.157 sec
 * total energy  :  -363.4908100 Eh     change       -0.7156111E-03 Eh
   gradient norm :     0.0157178 Eh/α   predicted    -0.7596284E-03 (   6.15%)
   displ. norm   :     0.5197839 α      lambda       -0.1544048E-02
   maximum displ.:     0.1435486 α      in ANC's #49, #1, #22, ...

........................................................................
.............................. CYCLE   27 ..............................
........................................................................
   1   -369.2002756 -0.369200E+03  0.794E-02    0.68       0.0  T
   2   -369.2002900 -0.144011E-04  0.451E-02    0.67       1.0  T
   3   -369.2002266  0.634679E-04  0.171E-02    0.68       1.0  T
   4   -369.2003006 -0.740238E-04  0.290E-03    0.67       2.3  T
   5   -369.2003011 -0.534257E-06  0.190E-03    0.67       3.6  T
   6   -369.2003017 -0.512879E-06  0.661E-04    0.67      10.3  T
   7   -369.2003017 -0.568825E-07  0.267E-04    0.67      25.4  T
     SCC iter.                  ...        0 min,  0.298 sec
     gradient                   ...        0 min,  0.157 sec
 * total energy  :  -363.4918489 Eh     change       -0.1038834E-02 Eh
   gradient norm :     0.0123322 Eh/α   predicted    -0.9806067E-03 (  -5.61%)
   displ. norm   :     0.5702172 α      lambda       -0.1037499E-02
   maximum displ.:     0.1606750 α      in ANC's #22, #1, #6, ...

........................................................................
.............................. CYCLE   28 ..............................
........................................................................
   1   -369.1988289 -0.369199E+03  0.664E-02    0.67       0.0  T
   2   -369.1988375 -0.859412E-05  0.380E-02    0.67       1.0  T
   3   -369.1987876  0.498864E-04  0.148E-02    0.67       1.0  T
   4   -369.1988444 -0.568311E-04  0.269E-03    0.67       2.5  T
   5   -369.1988450 -0.549375E-06  0.164E-03    0.67       4.1  T
   6   -369.1988453 -0.338021E-06  0.590E-04    0.67      11.5  T
   7   -369.1988453 -0.426200E-07  0.241E-04    0.67      28.1  T
     SCC iter.                  ...        0 min,  0.319 sec
     gradient                   ...        0 min,  0.157 sec
 * total energy  :  -363.4927218 Eh     change       -0.8728916E-03 Eh
   gradient norm :     0.0123001 Eh/α   predicted    -0.6874311E-03 ( -21.25%)
   displ. norm   :     0.6709534 α      lambda       -0.1291609E-02
   maximum displ.:     0.1987541 α      in ANC's #22, #1, #6, ...

........................................................................
.............................. CYCLE   29 ..............................
........................................................................
   1   -369.2058448 -0.369206E+03  0.873E-02    0.68       0.0  T
   2   -369.2058621 -0.173261E-04  0.493E-02    0.67       1.0  T
   3   -369.2057845  0.776287E-04  0.184E-02    0.67       1.0  T
   4   -369.2058734 -0.889559E-04  0.355E-03    0.67       1.9  T
   5   -369.2058747 -0.125686E-05  0.202E-03    0.67       3.4  T
   6   -369.2058751 -0.421134E-06  0.859E-04    0.67       7.9  T
   7   -369.2058752 -0.865241E-07  0.330E-04    0.67      20.5  T
     SCC iter.                  ...        0 min,  0.311 sec
     gradient                   ...        0 min,  0.157 sec
 * total energy  :  -363.4937049 Eh     change       -0.9831339E-03 Eh
   gradient norm :     0.0112008 Eh/α   predicted    -0.9365631E-03 (  -4.74%)
   displ. norm   :     0.7715695 α      lambda       -0.1264547E-02
   maximum displ.:     0.2275172 α      in ANC's #22, #1, #6, ...

........................................................................
.............................. CYCLE   30 ..............................
........................................................................
   1   -369.2077027 -0.369208E+03  0.841E-02    0.68       0.0  T
   2   -369.2077173 -0.145715E-04  0.482E-02    0.67       1.0  T
   3   -369.2076083  0.109010E-03  0.219E-02    0.68       1.0  T
   4   -369.2077308 -0.122525E-03  0.370E-03    0.67       1.8  T
   5   -369.2077323 -0.147686E-05  0.206E-03    0.67       3.3  T
   6   -369.2077327 -0.430368E-06  0.901E-04    0.67       7.5  T
   7   -369.2077328 -0.919396E-07  0.356E-04    0.67      19.0  T
     SCC iter.                  ...        0 min,  0.312 sec
     gradient                   ...        0 min,  0.157 sec
 * total energy  :  -363.4946580 Eh     change       -0.9530832E-03 Eh
   gradient norm :     0.0110812 Eh/α   predicted    -0.1008681E-02 (   5.83%)
   displ. norm   :     0.6877967 α      lambda       -0.9623342E-03
   maximum displ.:     0.2061722 α      in ANC's #22, #6, #1, ...

........................................................................
.............................. CYCLE   31 ..............................
........................................................................
   1   -369.2088873 -0.369209E+03  0.655E-02    0.68       0.0  T
   2   -369.2088955 -0.821310E-05  0.377E-02    0.67       1.0  T
   3   -369.2088233  0.722341E-04  0.178E-02    0.68       1.0  T
   4   -369.2089038 -0.804694E-04  0.319E-03    0.67       2.1  T
   5   -369.2089051 -0.132847E-05  0.170E-03    0.67       4.0  T
   6   -369.2089054 -0.296746E-06  0.730E-04    0.67       9.3  T
   7   -369.2089055 -0.661572E-07  0.283E-04    0.67      23.9  T
     SCC iter.                  ...        0 min,  0.305 sec
     gradient                   ...        0 min,  0.157 sec
 * total energy  :  -363.4954996 Eh     change       -0.8416614E-03 Eh
   gradient norm :     0.0085468 Eh/α   predicted    -0.7087941E-03 ( -15.79%)
   displ. norm   :     0.7191308 α      lambda       -0.1083067E-02
   maximum displ.:     0.2221558 α      in ANC's #6, #22, #9, ...

........................................................................
.............................. CYCLE   32 ..............................
........................................................................
   1   -369.2161096 -0.369216E+03  0.723E-02    0.68       0.0  T
   2   -369.2161214 -0.118400E-04  0.412E-02    0.67       1.0  T
   3   -369.2160550  0.664243E-04  0.173E-02    0.68       1.0  T
   4   -369.2161293 -0.743082E-04  0.366E-03    0.67       1.9  T
   5   -369.2161311 -0.178442E-05  0.195E-03    0.67       3.5  T
   6   -369.2161315 -0.396555E-06  0.842E-04    0.67       8.0  T
   7   -369.2161316 -0.895561E-07  0.326E-04    0.67      20.8  T
     SCC iter.                  ...        0 min,  0.304 sec
     gradient                   ...        0 min,  0.157 sec
 * total energy  :  -363.4963570 Eh     change       -0.8573257E-03 Eh
   gradient norm :     0.0109286 Eh/α   predicted    -0.8215931E-03 (  -4.17%)
   displ. norm   :     0.8286396 α      lambda       -0.1040532E-02
   maximum displ.:     0.2474098 α      in ANC's #6, #22, #1, ...

........................................................................
.............................. CYCLE   33 ..............................
........................................................................
   1   -369.1983726 -0.369198E+03  0.936E-02    0.67       0.0  T
   2   -369.1983973 -0.246313E-04  0.530E-02    0.67       1.0  T
   3   -369.1983396  0.577111E-04  0.169E-02    0.67       1.0  T
   4   -369.1984063 -0.667239E-04  0.435E-03    0.67       1.6  T
   5   -369.1984088 -0.249874E-05  0.227E-03    0.67       3.0  T
   6   -369.1984093 -0.496659E-06  0.113E-03    0.67       6.0  T
   7   -369.1984095 -0.175909E-06  0.380E-04    0.67      17.8  T
   8   -369.1984095 -0.190070E-07  0.180E-04    0.67      37.6  T
     SCC iter.                  ...        0 min,  0.349 sec
     gradient                   ...        0 min,  0.157 sec
 * total energy  :  -363.4969373 Eh     change       -0.5803240E-03 Eh
   gradient norm :     0.0168210 Eh/α   predicted    -0.8775089E-03 (  51.21%)
   displ. norm   :     0.5337686 α      lambda       -0.1209362E-02
   maximum displ.:     0.1690018 α      in ANC's #6, #27, #14, ...

........................................................................
.............................. CYCLE   34 ..............................
........................................................................
   1   -369.2121630 -0.369212E+03  0.561E-02    0.68       0.0  T
   2   -369.2121780 -0.149487E-04  0.316E-02    0.67       1.0  T
   3   -369.2121575  0.204553E-04  0.112E-02    0.68       1.0  T
   4   -369.2121810 -0.235125E-04  0.349E-03    0.67       1.9  T
   5   -369.2121827 -0.163582E-05  0.164E-03    0.67       4.1  T
   6   -369.2121829 -0.194833E-06  0.892E-04    0.67       7.6  T
   7   -369.2121830 -0.109408E-06  0.322E-04    0.67      21.0  T
     SCC iter.                  ...        0 min,  0.307 sec
     gradient                   ...        0 min,  0.157 sec
 * total energy  :  -363.4973809 Eh     change       -0.4436352E-03 Eh
   gradient norm :     0.0215239 Eh/α   predicted    -0.7769600E-03 (  75.13%)
   displ. norm   :     0.4821140 α      lambda       -0.1215618E-02
   maximum displ.:     0.1540987 α      in ANC's #6, #27, #9, ...

........................................................................
.............................. CYCLE   35 ..............................
........................................................................
   1   -369.2130765 -0.369213E+03  0.688E-02    0.68       0.0  T
   2   -369.2130957 -0.191129E-04  0.387E-02    0.67       1.0  T
   3   -369.2130678  0.278173E-04  0.126E-02    0.67       1.0  T
   4   -369.2131012 -0.333346E-04  0.330E-03    0.67       2.1  T
   5   -369.2131025 -0.129415E-05  0.154E-03    0.67       4.4  T
   6   -369.2131025 -0.726631E-07  0.990E-04    0.67       6.8  T
   7   -369.2131027 -0.163393E-06  0.275E-04    0.67      24.6  T
     SCC iter.                  ...        0 min,  0.307 sec
     gradient                   ...        0 min,  0.158 sec
 * total energy  :  -363.4979642 Eh     change       -0.5832876E-03 Eh
   gradient norm :     0.0157558 Eh/α   predicted    -0.7490859E-03 (  28.42%)
   displ. norm   :     0.5409144 α      lambda       -0.6853854E-03
   maximum displ.:     0.1832778 α      in ANC's #6, #27, #9, ...

........................................................................
.............................. CYCLE   36 ..............................
........................................................................
   1   -369.2066900 -0.369207E+03  0.600E-02    0.67       0.0  T
   2   -369.2066999 -0.985956E-05  0.337E-02    0.67       1.0  T
   3   -369.2066830  0.168865E-04  0.961E-03    0.67       1.0  T
   4   -369.2067036 -0.206487E-04  0.247E-03    0.67       2.7  T
   5   -369.2067042 -0.541445E-06  0.132E-03    0.67       5.1  T
   6   -369.2067044 -0.182452E-06  0.619E-04    0.67      10.9  T
   7   -369.2067044 -0.602794E-07  0.221E-04    0.67      30.6  T
     SCC iter.                  ...        0 min,  0.303 sec
     gradient                   ...        0 min,  0.157 sec
 * total energy  :  -363.4984679 Eh     change       -0.5037228E-03 Eh
   gradient norm :     0.0089011 Eh/α   predicted    -0.4429658E-03 ( -12.06%)
   displ. norm   :     0.5513529 α      lambda       -0.6173259E-03
   maximum displ.:     0.1989103 α      in ANC's #6, #27, #9, ...

........................................................................
.............................. CYCLE   37 ..............................
........................................................................
   1   -369.2080907 -0.369208E+03  0.533E-02    0.67       0.0  T
   2   -369.2080976 -0.684183E-05  0.301E-02    0.67       1.0  T
   3   -369.2080674  0.302258E-04  0.119E-02    0.67       1.0  T
   4   -369.2081020 -0.346000E-04  0.271E-03    0.67       2.5  T
   5   -369.2081026 -0.613065E-06  0.154E-03    0.67       4.4  T
   6   -369.2081029 -0.345479E-06  0.520E-04    0.67      13.0  T
   7   -369.2081029 -0.315332E-07  0.253E-04    0.67      26.8  T
     SCC iter.                  ...        0 min,  0.300 sec
     gradient                   ...        0 min,  0.157 sec
 * total energy  :  -363.4989394 Eh     change       -0.4714671E-03 Eh
   gradient norm :     0.0120048 Eh/α   predicted    -0.4024940E-03 ( -14.63%)
   displ. norm   :     0.6911355 α      lambda       -0.7475495E-03
   maximum displ.:     0.2492237 α      in ANC's #6, #27, #9, ...

........................................................................
.............................. CYCLE   38 ..............................
........................................................................
   1   -369.2176679 -0.369218E+03  0.511E-02    0.68       0.0  T
   2   -369.2176765 -0.856330E-05  0.294E-02    0.68       1.0  T
   3   -369.2176283  0.481537E-04  0.160E-02    0.68       1.0  T
   4   -369.2176837 -0.553884E-04  0.320E-03    0.67       2.1  T
   5   -369.2176846 -0.887252E-06  0.192E-03    0.68       3.5  T
   6   -369.2176852 -0.628832E-06  0.615E-04    0.68      11.0  T
   7   -369.2176853 -0.416850E-07  0.292E-04    0.68      23.2  T
     SCC iter.                  ...        0 min,  0.302 sec
     gradient                   ...        0 min,  0.157 sec
 * total energy  :  -363.4994215 Eh     change       -0.4820855E-03 Eh
   gradient norm :     0.0215205 Eh/α   predicted    -0.5523204E-03 (  14.57%)
   displ. norm   :     0.6516504 α      lambda       -0.8056898E-03
   maximum displ.:     0.2392786 α      in ANC's #6, #27, #9, ...

........................................................................
.............................. CYCLE   39 ..............................
........................................................................
   1   -369.2161859 -0.369216E+03  0.662E-02    0.67       0.0  T
   2   -369.2161987 -0.128243E-04  0.374E-02    0.67       1.0  T
   3   -369.2161491  0.495825E-04  0.152E-02    0.67       1.0  T
   4   -369.2162061 -0.569966E-04  0.315E-03    0.67       2.2  T
   5   -369.2162069 -0.813739E-06  0.192E-03    0.67       3.5  T
   6   -369.2162075 -0.600656E-06  0.688E-04    0.67       9.8  T
   7   -369.2162076 -0.504926E-07  0.292E-04    0.67      23.2  T
     SCC iter.                  ...        0 min,  0.323 sec
     gradient                   ...        0 min,  0.157 sec
 * total energy  :  -363.5000038 Eh     change       -0.5823594E-03 Eh
   gradient norm :     0.0106896 Eh/α   predicted    -0.5739137E-03 (  -1.45%)
   displ. norm   :     0.6299039 α      lambda       -0.6541931E-03
   maximum displ.:     0.2439456 α      in ANC's #6, #27, #9, ...

........................................................................
.............................. CYCLE   40 ..............................
........................................................................
   1   -369.2198576 -0.369220E+03  0.616E-02    0.67       0.0  T
   2   -369.2198697 -0.121229E-04  0.347E-02    0.67       1.0  T
   3   -369.2198118  0.579126E-04  0.170E-02    0.68       1.0  T
   4   -369.2198794 -0.675962E-04  0.319E-03    0.67       2.1  T
   5   -369.2198801 -0.727501E-06  0.196E-03    0.67       3.4  T
   6   -369.2198807 -0.621492E-06  0.669E-04    0.67      10.1  T
   7   -369.2198808 -0.485707E-07  0.300E-04    0.67      22.6  T
     SCC iter.                  ...        0 min,  0.313 sec
     gradient                   ...        0 min,  0.157 sec
 * total energy  :  -363.5004890 Eh     change       -0.4851263E-03 Eh
   gradient norm :     0.0110429 Eh/α   predicted    -0.4568837E-03 (  -5.82%)
   displ. norm   :     0.7638127 α      lambda       -0.6187772E-03
   maximum displ.:     0.2907121 α      in ANC's #6, #9, #27, ...

........................................................................
.............................. CYCLE   41 ..............................
........................................................................
   1   -369.2129701 -0.369213E+03  0.546E-02    0.68       0.0  T
   2   -369.2129790 -0.890636E-05  0.313E-02    0.67       1.0  T
   3   -369.2129431  0.359289E-04  0.135E-02    0.68       1.0  T
   4   -369.2129841 -0.409912E-04  0.305E-03    0.67       2.2  T
   5   -369.2129847 -0.667982E-06  0.177E-03    0.68       3.8  T
   6   -369.2129852 -0.495843E-06  0.662E-04    0.67      10.2  T
   7   -369.2129853 -0.632372E-07  0.265E-04    0.68      25.5  T
     SCC iter.                  ...        0 min,  0.319 sec
     gradient                   ...        0 min,  0.158 sec
 * total energy  :  -363.5009362 Eh     change       -0.4472545E-03 Eh
   gradient norm :     0.0115761 Eh/α   predicted    -0.4898978E-03 (   9.53%)
   displ. norm   :     0.6494825 α      lambda       -0.8889402E-03
   maximum displ.:     0.2067057 α      in ANC's #6, #31, #37, ...

........................................................................
.............................. CYCLE   42 ..............................
........................................................................
   1   -369.2301672 -0.369230E+03  0.745E-02    0.68       0.0  T
   2   -369.2301893 -0.221847E-04  0.423E-02    0.67       1.0  T
   3   -369.2301048  0.845466E-04  0.202E-02    0.68       1.0  T
   4   -369.2302017 -0.969059E-04  0.450E-03    0.67       1.5  T
   5   -369.2302043 -0.257940E-05  0.245E-03    0.67       2.8  T
   6   -369.2302051 -0.859295E-06  0.988E-04    0.67       6.9  T
   7   -369.2302052 -0.962198E-07  0.392E-04    0.67      17.3  T
     SCC iter.                  ...        0 min,  0.311 sec
     gradient                   ...        0 min,  0.157 sec
 * total energy  :  -363.5012341 Eh     change       -0.2979026E-03 Eh
   gradient norm :     0.0198050 Eh/α   predicted    -0.6319598E-03 ( 112.14%)
   displ. norm   :     0.5345958 α      lambda       -0.6789901E-03
   maximum displ.:     0.2098922 α      in ANC's #6, #9, #27, ...
 * RMSD in coord.:     0.7334462 α      energy gain  -0.1473669E-01 Eh

generating ANC from model Hessian ...
Using Lindh-Hessian (1995)
 Shifting diagonal of input Hessian by   1.000933624405899E-002
 Lowest  eigenvalues of input Hessian
    0.010000    0.010007    0.000000    0.000000    0.000000    0.000000
    0.000000    0.000000    0.010010    0.010013    0.010022    0.010046
    0.010052    0.010066    0.010073    0.010075    0.010142    0.010146
 Highest eigenvalues
    2.276630    2.276645    2.602072    2.610025    2.644950    2.653774
 

........................................................................
.............................. CYCLE   43 ..............................
........................................................................
   1   -369.2183007 -0.369218E+03  0.466E-02    0.67       0.0  T
   2   -369.2183079 -0.712201E-05  0.265E-02    0.67       1.0  T
   3   -369.2182929  0.149470E-04  0.921E-03    0.67       1.0  T
   4   -369.2183100 -0.171290E-04  0.261E-03    0.67       2.6  T
   5   -369.2183108 -0.724872E-06  0.130E-03    0.67       5.2  T
   6   -369.2183109 -0.184685E-06  0.632E-04    0.67      10.7  T
   7   -369.2183110 -0.618333E-07  0.221E-04    0.67      30.7  T
     SCC iter.                  ...        0 min,  0.310 sec
     gradient                   ...        0 min,  0.157 sec
 * total energy  :  -363.5016625 Eh     change       -0.4283415E-03 Eh
   gradient norm :     0.0110369 Eh/α   predicted     0.0000000E+00 (-100.00%)
   displ. norm   :     0.1147896 α      lambda       -0.3409463E-03
   maximum displ.:     0.0395286 α      in ANC's #93, #5, #92, ...

........................................................................
.............................. CYCLE   44 ..............................
........................................................................
   1   -369.2192469 -0.369219E+03  0.558E-02    0.67       0.0  T
   2   -369.2192553 -0.845831E-05  0.309E-02    0.67       1.0  T
   3   -369.2192338  0.215495E-04  0.109E-02    0.66       1.0  T
   4   -369.2192604 -0.266566E-04  0.150E-03    0.67       4.5  T
   5   -369.2192606 -0.139472E-06  0.990E-04    0.67       6.8  T
   6   -369.2192607 -0.149473E-06  0.310E-04    0.67      21.8  T
     SCC iter.                  ...        0 min,  0.268 sec
     gradient                   ...        0 min,  0.157 sec
 * total energy  :  -363.5017981 Eh     change       -0.1356484E-03 Eh
   gradient norm :     0.0052929 Eh/α   predicted    -0.1727245E-03 (  27.33%)
   displ. norm   :     0.1501837 α      lambda       -0.3032306E-03
   maximum displ.:     0.0588083 α      in ANC's #5, #47, #67, ...

........................................................................
.............................. CYCLE   45 ..............................
........................................................................
   1   -369.2212595 -0.369221E+03  0.432E-02    0.67       0.0  T
   2   -369.2212649 -0.535067E-05  0.242E-02    0.67       1.0  T
   3   -369.2212500  0.148867E-04  0.870E-03    0.67       1.0  T
   4   -369.2212679 -0.179520E-04  0.138E-03    0.67       4.9  T
   5   -369.2212681 -0.144906E-06  0.911E-04    0.67       7.4  T
   6   -369.2212682 -0.124783E-06  0.339E-04    0.67      20.0  T
     SCC iter.                  ...        0 min,  0.269 sec
     gradient                   ...        0 min,  0.157 sec
 * total energy  :  -363.5019017 Eh     change       -0.1035725E-03 Eh
   gradient norm :     0.0120552 Eh/α   predicted    -0.1550452E-03 (  49.70%)
   displ. norm   :     0.1906235 α      lambda       -0.3639974E-03
   maximum displ.:     0.0810754 α      in ANC's #5, #47, #91, ...

........................................................................
.............................. CYCLE   46 ..............................
........................................................................
   1   -369.2217262 -0.369222E+03  0.577E-02    0.67       0.0  T
   2   -369.2217341 -0.782530E-05  0.321E-02    0.67       1.0  T
   3   -369.2216960  0.380783E-04  0.134E-02    0.68       1.0  T
   4   -369.2217401 -0.441306E-04  0.163E-03    0.67       4.1  T
   5   -369.2217402 -0.124159E-06  0.107E-03    0.67       6.3  T
   6   -369.2217404 -0.202047E-06  0.355E-04    0.67      19.1  T
   7   -369.2217404 -0.644593E-08  0.157E-04    0.67      43.3  T
     SCC iter.                  ...        0 min,  0.312 sec
     gradient                   ...        0 min,  0.157 sec
 * total energy  :  -363.5020291 Eh     change       -0.1274022E-03 Eh
   gradient norm :     0.0105328 Eh/α   predicted    -0.1886124E-03 (  48.04%)
   displ. norm   :     0.1661084 α      lambda       -0.3123517E-03
   maximum displ.:     0.0727673 α      in ANC's #5, #47, #2, ...

........................................................................
.............................. CYCLE   47 ..............................
........................................................................
   1   -369.2195807 -0.369220E+03  0.446E-02    0.67       0.0  T
   2   -369.2195857 -0.502001E-05  0.248E-02    0.67       1.0  T
   3   -369.2195718  0.139431E-04  0.845E-03    0.67       1.0  T
   4   -369.2195887 -0.168727E-04  0.125E-03    0.67       5.4  T
   5   -369.2195887 -0.540666E-07  0.842E-04    0.67       8.0  T
   6   -369.2195888 -0.113549E-06  0.281E-04    0.67      24.1  T
     SCC iter.                  ...        0 min,  0.269 sec
     gradient                   ...        0 min,  0.157 sec
 * total energy  :  -363.5021945 Eh     change       -0.1653899E-03 Eh
   gradient norm :     0.0083965 Eh/α   predicted    -0.1604890E-03 (  -2.96%)
   displ. norm   :     0.3143254 α      lambda       -0.4652013E-03
   maximum displ.:     0.1415804 α      in ANC's #5, #2, #47, ...

........................................................................
.............................. CYCLE   48 ..............................
........................................................................
   1   -369.2143298 -0.369214E+03  0.686E-02    0.66       0.0  T
   2   -369.2143410 -0.112258E-04  0.382E-02    0.67       1.0  T
   3   -369.2142586  0.824498E-04  0.197E-02    0.66       1.0  T
   4   -369.2143529 -0.942747E-04  0.240E-03    0.67       2.8  T
   5   -369.2143534 -0.572301E-06  0.136E-03    0.67       5.0  T
   6   -369.2143536 -0.222795E-06  0.512E-04    0.67      13.2  T
   7   -369.2143537 -0.209853E-07  0.222E-04    0.67      30.5  T
     SCC iter.                  ...        0 min,  0.318 sec
     gradient                   ...        0 min,  0.157 sec
 * total energy  :  -363.5023214 Eh     change       -0.1268652E-03 Eh
   gradient norm :     0.0170665 Eh/α   predicted    -0.2555790E-03 ( 101.46%)
   displ. norm   :     0.2377668 α      lambda       -0.3669489E-03
   maximum displ.:     0.1106161 α      in ANC's #5, #2, #47, ...

........................................................................
.............................. CYCLE   49 ..............................
........................................................................
   1   -369.2154879 -0.369215E+03  0.369E-02    0.67       0.0  T
   2   -369.2154913 -0.335633E-05  0.208E-02    0.67       1.0  T
   3   -369.2154735  0.178220E-04  0.907E-03    0.67       1.0  T
   4   -369.2154939 -0.204653E-04  0.133E-03    0.67       5.1  T
   5   -369.2154941 -0.132403E-06  0.849E-04    0.67       8.0  T
   6   -369.2154942 -0.110331E-06  0.313E-04    0.67      21.6  T
     SCC iter.                  ...        0 min,  0.277 sec
     gradient                   ...        0 min,  0.157 sec
 * total energy  :  -363.5025784 Eh     change       -0.2570841E-03 Eh
   gradient norm :     0.0069152 Eh/α   predicted    -0.1938491E-03 ( -24.60%)
   displ. norm   :     0.4242560 α      lambda       -0.3908426E-03
   maximum displ.:     0.2047150 α      in ANC's #5, #2, #13, ...

........................................................................
.............................. CYCLE   50 ..............................
........................................................................
   1   -369.2185001 -0.369219E+03  0.463E-02    0.67       0.0  T
   2   -369.2185038 -0.372017E-05  0.265E-02    0.67       1.0  T
   3   -369.2184593  0.444847E-04  0.142E-02    0.67       1.0  T
   4   -369.2185090 -0.496616E-04  0.204E-03    0.67       3.3  T
   5   -369.2185094 -0.427825E-06  0.116E-03    0.67       5.8  T
   6   -369.2185096 -0.181095E-06  0.461E-04    0.67      14.7  T
   7   -369.2185096 -0.238240E-07  0.189E-04    0.67      35.8  T
     SCC iter.                  ...        0 min,  0.317 sec
     gradient                   ...        0 min,  0.157 sec
 * total energy  :  -363.5027816 Eh     change       -0.2031935E-03 Eh
   gradient norm :     0.0105020 Eh/α   predicted    -0.2305979E-03 (  13.49%)
   displ. norm   :     0.4303530 α      lambda       -0.3178767E-03
   maximum displ.:     0.2119277 α      in ANC's #5, #2, #13, ...

........................................................................
.............................. CYCLE   51 ..............................
........................................................................
   1   -369.2175583 -0.369218E+03  0.473E-02    0.67       0.0  T
   2   -369.2175631 -0.487055E-05  0.266E-02    0.67       1.0  T
   3   -369.2175396  0.235084E-04  0.989E-03    0.67       1.0  T
   4   -369.2175666 -0.269368E-04  0.191E-03    0.67       3.6  T
   5   -369.2175668 -0.271167E-06  0.114E-03    0.67       5.9  T
   6   -369.2175670 -0.165197E-06  0.446E-04    0.67      15.2  T
   7   -369.2175670 -0.266393E-07  0.177E-04    0.67      38.3  T
     SCC iter.                  ...        0 min,  0.300 sec
     gradient                   ...        0 min,  0.157 sec
 * total energy  :  -363.5030349 Eh     change       -0.2532737E-03 Eh
   gradient norm :     0.0085051 Eh/α   predicted    -0.1883758E-03 ( -25.62%)
   displ. norm   :     0.5141189 α      lambda       -0.3521376E-03
   maximum displ.:     0.2618195 α      in ANC's #5, #2, #13, ...

........................................................................
.............................. CYCLE   52 ..............................
........................................................................
   1   -369.2190468 -0.369219E+03  0.442E-02    0.67       0.0  T
   2   -369.2190515 -0.465718E-05  0.251E-02    0.67       1.0  T
   3   -369.2190301  0.213589E-04  0.933E-03    0.67       1.0  T
   4   -369.2190542 -0.241080E-04  0.214E-03    0.67       3.2  T
   5   -369.2190547 -0.476568E-06  0.111E-03    0.67       6.1  T
   6   -369.2190548 -0.129413E-06  0.512E-04    0.67      13.2  T
   7   -369.2190549 -0.452648E-07  0.181E-04    0.67      37.5  T
     SCC iter.                  ...        0 min,  0.302 sec
     gradient                   ...        0 min,  0.156 sec
 * total energy  :  -363.5033262 Eh     change       -0.2912896E-03 Eh
   gradient norm :     0.0043443 Eh/α   predicted    -0.2226152E-03 ( -23.58%)
   displ. norm   :     0.6362848 α      lambda       -0.3548816E-03
   maximum displ.:     0.3252263 α      in ANC's #5, #2, #13, ...

........................................................................
.............................. CYCLE   53 ..............................
........................................................................
   1   -369.2189802 -0.369219E+03  0.470E-02    0.67       0.0  T
   2   -369.2189847 -0.453437E-05  0.268E-02    0.67       1.0  T
   3   -369.2189613  0.234362E-04  0.983E-03    0.66       1.0  T
   4   -369.2189875 -0.262451E-04  0.235E-03    0.67       2.9  T
   5   -369.2189881 -0.545505E-06  0.114E-03    0.67       5.9  T
   6   -369.2189882 -0.138794E-06  0.490E-04    0.67      13.8  T
   7   -369.2189882 -0.439707E-07  0.166E-04    0.67      40.9  T
     SCC iter.                  ...        0 min,  0.300 sec
     gradient                   ...        0 min,  0.157 sec
 * total energy  :  -363.5036363 Eh     change       -0.3100595E-03 Eh
   gradient norm :     0.0047488 Eh/α   predicted    -0.2492787E-03 ( -19.60%)
   displ. norm   :     0.6538093 α      lambda       -0.3730021E-03
   maximum displ.:     0.3432968 α      in ANC's #5, #2, #13, ...

........................................................................
.............................. CYCLE   54 ..............................
........................................................................
   1   -369.2225599 -0.369223E+03  0.458E-02    0.67       0.0  T
   2   -369.2225645 -0.450899E-05  0.261E-02    0.67       1.0  T
   3   -369.2225383  0.261594E-04  0.107E-02    0.67       1.0  T
   4   -369.2225674 -0.291342E-04  0.253E-03    0.67       2.7  T
   5   -369.2225680 -0.618791E-06  0.129E-03    0.67       5.3  T
   6   -369.2225683 -0.211516E-06  0.572E-04    0.67      11.8  T
   7   -369.2225683 -0.614856E-07  0.191E-04    0.67      35.4  T
     SCC iter.                  ...        0 min,  0.299 sec
     gradient                   ...        0 min,  0.157 sec
 * total energy  :  -363.5039553 Eh     change       -0.3190965E-03 Eh
   gradient norm :     0.0058389 Eh/α   predicted    -0.2662288E-03 ( -16.57%)
   displ. norm   :     0.7226989 α      lambda       -0.3695117E-03
   maximum displ.:     0.3782312 α      in ANC's #5, #2, #13, ...

........................................................................
.............................. CYCLE   55 ..............................
........................................................................
   1   -369.2201183 -0.369220E+03  0.478E-02    0.66       0.0  T
   2   -369.2201226 -0.425595E-05  0.273E-02    0.66       1.0  T
   3   -369.2200991  0.234565E-04  0.102E-02    0.66       1.0  T
   4   -369.2201250 -0.259280E-04  0.256E-03    0.66       2.6  T
   5   -369.2201256 -0.593080E-06  0.134E-03    0.66       5.1  T
   6   -369.2201259 -0.267604E-06  0.548E-04    0.66      12.4  T
   7   -369.2201260 -0.564741E-07  0.191E-04    0.66      35.4  T
     SCC iter.                  ...        0 min,  0.300 sec
     gradient                   ...        0 min,  0.156 sec
 * total energy  :  -363.5042797 Eh     change       -0.3243156E-03 Eh
   gradient norm :     0.0055839 Eh/α   predicted    -0.2812527E-03 ( -13.28%)
   displ. norm   :     0.6802496 α      lambda       -0.3902486E-03
   maximum displ.:     0.3661605 α      in ANC's #5, #2, #13, ...

........................................................................
.............................. CYCLE   56 ..............................
........................................................................
   1   -369.2238167 -0.369224E+03  0.444E-02    0.66       0.0  T
   2   -369.2238197 -0.303995E-05  0.254E-02    0.66       1.0  T
   3   -369.2237786  0.411785E-04  0.132E-02    0.67       1.0  T
   4   -369.2238241 -0.455054E-04  0.250E-03    0.66       2.7  T
   5   -369.2238246 -0.571595E-06  0.141E-03    0.66       4.8  T
   6   -369.2238249 -0.297455E-06  0.492E-04    0.66      13.8  T
   7   -369.2238250 -0.387399E-07  0.181E-04    0.66      37.3  T
     SCC iter.                  ...        0 min,  0.305 sec
     gradient                   ...        0 min,  0.156 sec
 * total energy  :  -363.5046167 Eh     change       -0.3370690E-03 Eh
   gradient norm :     0.0046555 Eh/α   predicted    -0.2854177E-03 ( -15.32%)
   displ. norm   :     0.7264679 α      lambda       -0.3753728E-03
   maximum displ.:     0.3931090 α      in ANC's #5, #2, #13, ...

........................................................................
.............................. CYCLE   57 ..............................
........................................................................
   1   -369.2227875 -0.369223E+03  0.465E-02    0.66       0.0  T
   2   -369.2227908 -0.331623E-05  0.266E-02    0.66       1.0  T
   3   -369.2227620  0.288116E-04  0.110E-02    0.66       1.0  T
   4   -369.2227934 -0.314804E-04  0.244E-03    0.66       2.8  T
   5   -369.2227940 -0.562235E-06  0.135E-03    0.66       5.0  T
   6   -369.2227943 -0.291447E-06  0.458E-04    0.66      14.8  T
   7   -369.2227943 -0.336699E-07  0.172E-04    0.66      39.3  T
     SCC iter.                  ...        0 min,  0.307 sec
     gradient                   ...        0 min,  0.156 sec
 * total energy  :  -363.5049535 Eh     change       -0.3368121E-03 Eh
   gradient norm :     0.0037971 Eh/α   predicted    -0.2867397E-03 ( -14.87%)
   displ. norm   :     0.6930849 α      lambda       -0.3792005E-03
   maximum displ.:     0.3831474 α      in ANC's #5, #2, #13, ...

........................................................................
.............................. CYCLE   58 ..............................
........................................................................
   1   -369.2241849 -0.369224E+03  0.446E-02    0.66       0.0  T
   2   -369.2241878 -0.288183E-05  0.256E-02    0.65       1.0  T
   3   -369.2241599  0.278965E-04  0.106E-02    0.66       1.0  T
   4   -369.2241903 -0.303912E-04  0.221E-03    0.66       3.1  T
   5   -369.2241908 -0.496045E-06  0.123E-03    0.66       5.5  T
   6   -369.2241910 -0.218095E-06  0.420E-04    0.66      16.1  T
   7   -369.2241910 -0.272153E-07  0.160E-04    0.66      42.2  T
     SCC iter.                  ...        0 min,  0.306 sec
     gradient                   ...        0 min,  0.156 sec
 * total energy  :  -363.5052826 Eh     change       -0.3290795E-03 Eh
   gradient norm :     0.0045216 Eh/α   predicted    -0.2806786E-03 ( -14.71%)
   displ. norm   :     0.7185617 α      lambda       -0.3549182E-03
   maximum displ.:     0.3999954 α      in ANC's #5, #2, #13, ...

........................................................................
.............................. CYCLE   59 ..............................
........................................................................
   1   -369.2223487 -0.369222E+03  0.460E-02    0.66       0.0  T
   2   -369.2223515 -0.284761E-05  0.264E-02    0.65       1.0  T
   3   -369.2223395  0.120198E-04  0.738E-03    0.66       1.0  T
   4   -369.2223525 -0.130271E-04  0.212E-03    0.65       3.2  T
   5   -369.2223530 -0.493810E-06  0.112E-03    0.65       6.0  T
   6   -369.2223532 -0.207573E-06  0.384E-04    0.65      17.6  T
   7   -369.2223533 -0.238069E-07  0.143E-04    0.65      47.5  T
     SCC iter.                  ...        0 min,  0.308 sec
[...]
   200   1 H    0.998 --   105 C    0.967
   201   1 H    0.998 --   108 C    0.974
   202   1 H    0.997 --   108 C    0.971
   203   1 H    0.999 --   109 C    0.986
   204   1 H    0.998 --   109 C    0.980
   205   1 H    0.998 --   109 C    0.984
   206   1 H    0.994 --   110 C    0.956
   207   1 H    0.995 --   113 C    0.955
   208   1 H    0.993 --   116 C    0.948
   209   1 H    0.995 --   121 C    0.962
   210   1 H    0.996 --   124 C    0.959
   211   1 H    0.997 --   132 C    0.960
   212   1 H    0.998 --   133 C    0.972
   213   1 H    0.999 --   134 C    0.972
   214   1 H    0.999 --   135 C    0.969
   215   1 H    0.999 --   136 C    0.972
   216   1 H    0.997 --   137 C    0.977
   217   1 H    0.998 --   137 C    0.978
   218   1 H    0.996 --   138 C    0.960
 ---------------------------------------------------------------------------

Topologies differ in bond orders
Writing corrected topology to xtbtopo.mol

molecular dipole:
                 x           y           z       tot (Debye)
 q only:        1.492       1.212       1.002
   full:        1.719       0.979       1.721       6.664
molecular quadrupole (traceless):
                xx          xy          yy          xz          yz          zz
 q only:      -70.791    -115.560      59.812     -18.487     -43.436      10.979
  q+dip:      -65.309    -127.337      64.974     -22.556     -33.798       0.335
   full:      -66.153    -126.466      60.174     -32.147     -30.066       5.979

           -------------------------------------------------
          |                Geometry Summary                 |
           -------------------------------------------------

      molecular mass/u    :     1958.5062960
   center of mass at/Å    :       -0.3585311       0.1793625       0.1609006
  moments of inertia/u·Å² :        0.5697749E+05   0.1911079E+06   0.2381284E+06
rotational constants/cm⁻¹ :        0.2958648E-03   0.8821003E-04   0.7079219E-04

 * 215 selected distances

     #   Z          #   Z                                           value/Å
     1   6 C        2   6 C                                       1.3523546
     3   6 C        4   8 O                                       1.2105845
     5   6 C        6   6 C                                       1.3928188
     6   6 C        7   6 C                                       1.3738856
     7   6 C        8   6 C                                       1.4025602
     8   6 C        9   6 C                                       1.3737190
     5   6 C       10   6 C                                       1.4113684
     9   6 C       10   6 C                                       1.3986468
    11   6 C       12   6 C                                       1.3686628
    13   6 C       14   7 N                                       1.1487539
    15   6 C       16   7 N                                       1.1477562
     8   6 C       17   6 C                                       1.5079784
    17   6 C       18   6 C                                       1.5485369
    19   6 C       20   6 C                                       1.3263149
    18   6 C       22   6 C                                       1.5370841
    21   6 C       22   6 C                                       1.5370432
     7   6 C       23   6 C                                       1.5077610
    17   6 C       23   6 C                                       1.5612973
    21   6 C       23   6 C                                       1.5490298
    24   6 C       25   6 C                                       1.4205858
    25   6 C       26   6 C                                       1.4331559
    26   6 C       27   7 N                                       1.3153419
    27   7 N       28   8 O                                       1.3352852
    25   6 C       29   7 N                                       1.3166784
    28   8 O       29   7 N                                       1.3356396
    26   6 C       30   6 C                                       1.4177817
    30   6 C       31   6 C                                       1.3914798
    31   6 C       32   8 O                                       1.3509873
    32   8 O       33   6 C                                       1.4225955
    33   6 C       34   6 C                                       1.5220738
    24   6 C       35   6 C                                       1.3863519
    35   6 C       36   8 O                                       1.3511013
    36   8 O       37   6 C                                       1.4127835
    37   6 C       38   6 C                                       1.5244270
    30   6 C       39   6 C                                       1.4368940
    39   6 C       40   6 C                                       1.3854195
    41   6 C       42   6 C                                       1.3930369
    42   6 C       43   6 C                                       1.3805905
    43   6 C       44   6 C                                       1.3849090
    44   6 C       45   6 C                                       1.3889232
    46   6 C       47   6 C                                       1.5299937
    41   6 C       48   6 C                                       1.3899113
    45   6 C       48   6 C                                       1.3866955
    40   6 C       49   6 C                                       1.4108485
    49   6 C       50  16 S                                       1.7499745
    50  16 S       51   6 C                                       1.7323541
    51   6 C       52   6 C                                       1.4072330
    52   6 C       53   6 C                                       1.4130252
    53   6 C       54   6 C                                       1.4398598
    54   6 C       55   7 N                                       1.3228245
    55   7 N       56  16 S                                       1.6198403
    53   6 C       57   7 N                                       1.3231168
    56  16 S       57   7 N                                       1.6194244
    54   6 C       58   6 C                                       1.4139722
    58   6 C       59   6 C                                       1.4056995
    59   6 C       60  16 S                                       1.7333927
    60  16 S       61   6 C                                       1.7481194
    61   6 C       62   6 C                                       1.4072803
    63   6 C       64   6 C                                       1.3925068
    64   6 C       65   6 C                                       1.3815497
    65   6 C       66   6 C                                       1.3838743
    66   6 C       67   6 C                                       1.3890103
    68   6 C       69   6 C                                       1.5296084
    63   6 C       70   6 C                                       1.3892532
    67   6 C       70   6 C                                       1.3877346
    62   6 C       71   6 C                                       1.3842703
    71   6 C       72  16 S                                       1.7537669
    61   6 C       73   6 C                                       1.3972530
    72  16 S       73   6 C                                       1.7264589
    59   6 C       74   6 C                                       1.3987105
    73   6 C       74   6 C                                       1.3996511
    74   6 C       75   7 N                                       1.3692220
    58   6 C       76   6 C                                       1.4211044
    75   7 N       76   6 C                                       1.3806461
    52   6 C       77   6 C                                       1.4206716
    76   6 C       77   6 C                                       1.4155119
    77   6 C       78   7 N                                       1.3831773
    51   6 C       79   6 C                                       1.3974385
    78   7 N       79   6 C                                       1.3709990
    49   6 C       80   6 C                                       1.3946864
    79   6 C       80   6 C                                       1.3999594
    39   6 C       81  16 S                                       1.7572070 (max)
    80   6 C       81  16 S                                       1.7259863
    78   7 N       82   6 C                                       1.4467559
    82   6 C       83   6 C                                       1.5284926
    75   7 N       84   6 C                                       1.4460246
    84   6 C       85   6 C                                       1.5281252
    71   6 C       86   6 C                                       1.4246253
    86   6 C       87   6 C                                       1.3650150
    87   6 C       88   6 C                                       1.4129413
    88   6 C       89   6 C                                       1.4039898
    90   6 C       91   6 C                                       1.3915367
    91   6 C       92   6 C                                       1.3829023
    92   6 C       93   6 C                                       1.3835460
    93   6 C       94   6 C                                       1.3854797
    96   6 C       97   6 C                                       1.5155191
    90   6 C       98   6 C                                       1.3900396
    94   6 C       98   6 C                                       1.3826659
    89   6 C       99   6 C                                       1.3832039
    99   6 C      100   6 C                                       1.4207911
   100   6 C      101   6 C                                       1.4092731
   102   6 C      103   6 C                                       1.3927534
   103   6 C      104   6 C                                       1.3832607
   104   6 C      105   6 C                                       1.3832916
   105   6 C      106   6 C                                       1.3877254
   108   6 C      109   6 C                                       1.5163454
   102   6 C      110   6 C                                       1.3927793
   106   6 C      110   6 C                                       1.3848292
    88   6 C      111   6 C                                       1.4188850
   101   6 C      111   6 C                                       1.3824179
    86   6 C      112  16 S                                       1.7568759
   111   6 C      112  16 S                                       1.7448714
   100   6 C      113   6 C                                       1.4073809
   113   6 C      114   6 C                                       1.3711687
    99   6 C      115  16 S                                       1.7435959
   114   6 C      116   6 C                                       1.4165830
   116   6 C      117   6 C                                       1.3663257
   118   6 C      119   8 O                                       1.2124923
   120   6 C      121   6 C                                       1.3936282
   121   6 C      122   6 C                                       1.3735047
   122   6 C      123   6 C                                       1.4021462
   123   6 C      124   6 C                                       1.3749142
   120   6 C      125   6 C                                       1.4088796
   124   6 C      125   6 C                                       1.3983358
   126   6 C      127   6 C                                       1.3713627
   128   6 C      129   7 N                                       1.1482914
   130   6 C      131   7 N                                       1.1486194
   123   6 C      132   6 C                                       1.5085227
   132   6 C      133   6 C                                       1.5486450
   134   6 C      135   6 C                                       1.3262418
   133   6 C      137   6 C                                       1.5372896
   136   6 C      137   6 C                                       1.5370632
   122   6 C      138   6 C                                       1.5073049
   132   6 C      138   6 C                                       1.5613579
   136   6 C      138   6 C                                       1.5490014
     1   6 C      139   1 H                                       1.0819513
     6   6 C      140   1 H                                       1.0786515
     9   6 C      141   1 H                                       1.0775928
    17   6 C      142   1 H                                       1.0881284
    18   6 C      143   1 H                                       1.0865873
    19   6 C      144   1 H                                       1.0742281
    20   6 C      145   1 H                                       1.0742677
    21   6 C      146   1 H                                       1.0868054
    22   6 C      147   1 H                                       1.0891524
    22   6 C      148   1 H                                       1.0888731
    23   6 C      149   1 H                                       1.0882313
    33   6 C      150   1 H                                       1.0922801
    33   6 C      151   1 H                                       1.0974792
    34   6 C      152   1 H                                       1.0866544
    34   6 C      153   1 H                                       1.0865672
    34   6 C      154   1 H                                       1.0852766
    37   6 C      155   1 H                                       1.0936592
    37   6 C      156   1 H                                       1.0963715
    38   6 C      157   1 H                                       1.0857254
    38   6 C      158   1 H                                       1.0885568
    38   6 C      159   1 H                                       1.0874329
    42   6 C      160   1 H                                       1.0798347
    43   6 C      161   1 H                                       1.0803181
    44   6 C      162   1 H                                       1.0809757
    46   6 C      163   1 H                                       1.0921740
    46   6 C      164   1 H                                       1.0920533
    47   6 C      165   1 H                                       1.0877380
    47   6 C      166   1 H                                       1.0875501
    47   6 C      167   1 H                                       1.0875760
    48   6 C      168   1 H                                       1.0803724
    64   6 C      169   1 H                                       1.0799295
    65   6 C      170   1 H                                       1.0797313
    66   6 C      171   1 H                                       1.0801301
    68   6 C      172   1 H                                       1.0917961
    68   6 C      173   1 H                                       1.0914186
    69   6 C      174   1 H                                       1.0875856
    69   6 C      175   1 H                                       1.0881305
    69   6 C      176   1 H                                       1.0875098
    70   6 C      177   1 H                                       1.0809006
    82   6 C      178   1 H                                       1.0947220
    82   6 C      179   1 H                                       1.0854369
    83   6 C      180   1 H                                       1.0865608
    83   6 C      181   1 H                                       1.0860182
    83   6 C      182   1 H                                       1.0881722
    84   6 C      183   1 H                                       1.0898162
    84   6 C      184   1 H                                       1.0962695
    85   6 C      185   1 H                                       1.0861396
    85   6 C      186   1 H                                       1.0864893
    85   6 C      187   1 H                                       1.0877424
    87   6 C      188   1 H                                       1.0731564 (min)
    91   6 C      189   1 H                                       1.0802120
    92   6 C      190   1 H                                       1.0799172
    93   6 C      191   1 H                                       1.0798822
    96   6 C      192   1 H                                       1.0901184
    96   6 C      193   1 H                                       1.0892415
    97   6 C      194   1 H                                       1.0888916
    97   6 C      195   1 H                                       1.0875953
    97   6 C      196   1 H                                       1.0881996
    98   6 C      197   1 H                                       1.0793100
   103   6 C      198   1 H                                       1.0797456
   104   6 C      199   1 H                                       1.0799689
   105   6 C      200   1 H                                       1.0797066
   108   6 C      201   1 H                                       1.0892982
   108   6 C      202   1 H                                       1.0895910
   109   6 C      203   1 H                                       1.0890908
   109   6 C      204   1 H                                       1.0888436
   109   6 C      205   1 H                                       1.0882896
   110   6 C      206   1 H                                       1.0788157
   113   6 C      207   1 H                                       1.0732824
   116   6 C      208   1 H                                       1.0825875
   121   6 C      209   1 H                                       1.0793667
   124   6 C      210   1 H                                       1.0771864
   132   6 C      211   1 H                                       1.0880760
   133   6 C      212   1 H                                       1.0865869
   134   6 C      213   1 H                                       1.0743727
   135   6 C      214   1 H                                       1.0740876
   136   6 C      215   1 H                                       1.0869441
   137   6 C      216   1 H                                       1.0890333
   137   6 C      217   1 H                                       1.0890638
   138   6 C      218   1 H                                       1.0882010

 * 7 distinct bonds (by element types)

   Z      Z             #   av. dist./Å        max./Å        min./Å
   1 H    6 C          80     1.0853278     1.0974792     1.0731564
   6 C    6 C         100     1.4241209     1.5613579     1.3262418
   6 C    7 N          14     1.3048720     1.4467559     1.1477562
   6 C    8 O           6     1.3267574     1.4225955     1.2105845
   7 N    8 O           2     1.3354624     1.3356396     1.3352852
   6 C   16 S          11     1.7429639     1.7572070     1.7259863
   7 N   16 S           2     1.6196323     1.6198403     1.6194244


optimized geometry written to: xtbopt.mol


           -------------------------------------------------
          | TOTAL ENERGY             -363.549389662889 Eh   |
          | GRADIENT NORM               0.000750881921 Eh/α |
          | HOMO-LUMO GAP               0.745434746371 eV   |
           -------------------------------------------------

------------------------------------------------------------------------
 * finished run on 2022/02/12 at 21:24:58.654     
------------------------------------------------------------------------
 total:
 * wall-time:     0 d,  0 h,  3 min, 22.496 sec
 *  cpu-time:     0 d,  0 h, 26 min, 59.504 sec
 * ratio c/w:     7.998 speedup
 SCF:
 * wall-time:     0 d,  0 h,  0 min,  0.845 sec
 *  cpu-time:     0 d,  0 h,  0 min,  6.736 sec
 * ratio c/w:     7.974 speedup
 ANC optimizer:
 * wall-time:     0 d,  0 h,  3 min, 21.547 sec
 *  cpu-time:     0 d,  0 h, 26 min, 52.023 sec
 * ratio c/w:     7.998 speedup

