      -----------------------------------------------------------      
     |                   =====================                   |     
     |                           x T B                           |     
     |                   =====================                   |     
     |                         S. Grimme                         |     
     |          Mulliken Center for Theoretical Chemistry        |     
     |                    University of Bonn                     |     
      -----------------------------------------------------------      

   * xtb version 6.4.1 (unknown) compiled by 'oda6@login1.crc.pitt.edu' on 2021-06-25

   xtb is free software: you can redistribute it and/or modify it under
   the terms of the GNU Lesser General Public License as published by
   the Free Software Foundation, either version 3 of the License, or
   (at your option) any later version.
   
   xtb is distributed in the hope that it will be useful,
   but WITHOUT ANY WARRANTY; without even the implied warranty of
   MERCHANTABILITY or FITNESS FOR A PARTICULAR PURPOSE.  See the
   GNU Lesser General Public License for more details.
   
   Cite this work as:
   * C. Bannwarth, E. Caldeweyher, S. Ehlert, A. Hansen, P. Pracht,
     J. Seibert, S. Spicher, S. Grimme, WIREs Comput. Mol. Sci., 2020, 11,
     e01493. DOI: 10.1002/wcms.1493
   
   for GFN2-xTB:
   * C. Bannwarth, S. Ehlert and S. Grimme., J. Chem. Theory Comput., 2019,
     15, 1652-1671. DOI: 10.1021/acs.jctc.8b01176
   for GFN1-xTB:
   * S. Grimme, C. Bannwarth, P. Shushkov, J. Chem. Theory Comput., 2017,
     13, 1989-2009. DOI: 10.1021/acs.jctc.7b00118
   for GFN0-xTB:
   * P. Pracht, E. Caldeweyher, S. Ehlert, S. Grimme, ChemRxiv, 2019, preprint.
     DOI: 10.26434/chemrxiv.8326202.v1
   for GFN-FF:
   * S. Spicher and S. Grimme, Angew. Chem. Int. Ed., 2020, 59, 15665-15673.
     DOI: 10.1002/anie.202004239
   
   for DFT-D4:
   * E. Caldeweyher, C. Bannwarth and S. Grimme, J. Chem. Phys., 2017,
     147, 034112. DOI: 10.1063/1.4993215
   * E. Caldeweyher, S. Ehlert, A. Hansen, H. Neugebauer, S. Spicher,
     C. Bannwarth and S. Grimme, J. Chem. Phys., 2019, 150, 154122.
     DOI: 10.1063/1.5090222
   * E. Caldeweyher, J.-M. Mewes, S. Ehlert and S. Grimme, Phys. Chem. Chem. Phys.
     2020, 22, 8499-8512. DOI: 10.1039/D0CP00502A
   
   for sTDA-xTB:
   * S. Grimme and C. Bannwarth, J. Chem. Phys., 2016, 145, 054103.
     DOI: 10.1063/1.4959605
   
   in the mass-spec context:
   * V. Asgeirsson, C. Bauer and S. Grimme, Chem. Sci., 2017, 8, 4879.
     DOI: 10.1039/c7sc00601b
   * J. Koopman and S. Grimme, ACS Omega 2019, 4, 12, 15120-15133.
     DOI: 10.1021/acsomega.9b02011
   
   for metadynamics refer to:
   * S. Grimme, J. Chem. Theory Comput., 2019, 155, 2847-2862
     DOI: 10.1021/acs.jctc.9b00143
   
   for SPH calculations refer to:
   * S. Spicher and S. Grimme, J. Chem. Theory Comput., 2021, 17, 1701-1714
     DOI: 10.1021/acs.jctc.0c01306
   
   with help from (in alphabetical order)
   P. Atkinson, C. Bannwarth, F. Bohle, G. Brandenburg, E. Caldeweyher
   M. Checinski, S. Dohm, S. Ehlert, S. Ehrlich, I. Gerasimov, J. Koopman
   C. Lavigne, S. Lehtola, F. März, M. Müller, F. Musil, H. Neugebauer
   J. Pisarek, C. Plett, P. Pracht, J. Seibert, P. Shushkov, S. Spicher
   M. Stahn, M. Steiner, T. Strunk, J. Stückrath, T. Rose, and J. Unsleber
   
 * started run on 2022/02/18 at 02:03:00.498     

           -------------------------------------------------
          |                Calculation Setup                |
           -------------------------------------------------

          program call               : /ihome/ghutchison/oda6/xtb/xtb-641/bin/xtb ../../FF_optimized/39_15_104_15_39.mol -opt
          hostname                   : smp-n9
          coordinate file            : ../../FF_optimized/39_15_104_15_39.mol
          omp threads                :                     8
          number of atoms            :                   160
          number of electrons        :                   502
          charge                     :                     0
          spin                       :                   0.0
          first test random number   :      0.91261663267967

   ID    Z sym.   atoms
    1    6 C      1-3, 5-13, 15, 17-27, 29-38, 40-43, 47, 48, 50-54, 56, 57,
                  59, 60, 62-73, 75-86, 88-96, 98, 100-106
    2    8 O      4, 28, 74, 87
    3    7 N      14, 16, 44, 46, 58, 61, 97, 99
    4   16 S      39, 45, 49, 55
    5    1 H      107-160
########################################################################
[WARNING] Please study the warnings concerning your input carefully
-1- prog_main_parseArguments: the use of '-opt' is discouraged, please use '--opt' next time
########################################################################

           -------------------------------------------------
          |                 G F N 2 - x T B                 |
           -------------------------------------------------

        Reference                      10.1021/acs.jctc.8b01176
      * Hamiltonian:
        H0-scaling (s, p, d)           1.850000    2.230000    2.230000
        zeta-weighting                 0.500000
      * Dispersion:
        s8                             2.700000
        a1                             0.520000
        a2                             5.000000
        s9                             5.000000
      * Repulsion:
        kExp                           1.500000    1.000000
        rExp                           1.000000
      * Coulomb:
        alpha                          2.000000
        third order                    shell-resolved
        anisotropic                    true
        a3                             3.000000
        a5                             4.000000
        cn-shift                       1.200000
        cn-exp                         4.000000
        max-rad                        5.000000


          ...................................................
          :                      SETUP                      :
          :.................................................:
          :  # basis functions                 502          :
          :  # atomic orbitals                 498          :
          :  # shells                          270          :
          :  # electrons                       502          :
          :  max. iterations                   250          :
          :  Hamiltonian                  GFN2-xTB          :
          :  restarted?                      false          :
          :  GBSA solvation                  false          :
          :  PC potential                    false          :
          :  electronic temp.          300.0000000     K    :
          :  accuracy                    1.0000000          :
          :  -> integral cutoff          0.2500000E+02      :
          :  -> integral neglect         0.1000000E-07      :
          :  -> SCF convergence          0.1000000E-05 Eh   :
          :  -> wf. convergence          0.1000000E-03 e    :
          :  Broyden damping             0.4000000          :
          ...................................................

 iter      E             dE          RMSdq      gap      omega  full diag
   1   -276.4380805 -0.276438E+03  0.464E+00    1.18       0.0  T
   2   -276.6626174 -0.224537E+00  0.281E+00    0.78       1.0  T
   3   -276.4734972  0.189120E+00  0.194E+00    0.59       1.0  T
   4   -276.8020547 -0.328558E+00  0.735E-01    0.71       1.0  T
   5   -276.8700870 -0.680323E-01  0.191E-01    0.43       1.0  T
   6   -276.8730338 -0.294674E-02  0.973E-02    0.54       1.0  T
   7   -276.8738345 -0.800779E-03  0.347E-02    0.55       1.0  T
   8   -276.8739081 -0.735955E-04  0.169E-02    0.55       1.0  T
   9   -276.8739245 -0.163954E-04  0.934E-03    0.55       1.0  T
  10   -276.8739315 -0.696706E-05  0.396E-03    0.54       2.0  T
  11   -276.8739326 -0.111584E-05  0.178E-03    0.54       4.4  T
  12   -276.8739329 -0.242945E-06  0.976E-04    0.54       8.1  T
  13   -276.8739329 -0.503658E-07  0.466E-04    0.54      17.0  T

   *** convergence criteria satisfied after 13 iterations ***

         #    Occupation            Energy/Eh            Energy/eV
      -------------------------------------------------------------
         1        2.0000           -0.7462282             -20.3059
       ...           ...                  ...                  ...
       245        2.0000           -0.3963968             -10.7865
       246        2.0000           -0.3931579             -10.6984
       247        2.0000           -0.3904899             -10.6258
       248        2.0000           -0.3808948             -10.3647
       249        2.0000           -0.3737953             -10.1715
       250        2.0000           -0.3675523             -10.0016
       251        1.9999           -0.3564852              -9.7005 (HOMO)
       252        0.0000           -0.3364912              -9.1564 (LUMO)
       253        0.0000           -0.3352271              -9.1220
       254                         -0.3251485              -8.8477
       255                         -0.3234736              -8.8022
       256                         -0.3174071              -8.6371
       ...                                ...                  ...
       498                          1.0637488              28.9461
      -------------------------------------------------------------
                  HL-Gap            0.0199940 Eh            0.5441 eV
             Fermi-level           -0.3465996 Eh           -9.4315 eV

 SCC (total)                   0 d,  0 h,  0 min,  0.534 sec
 SCC setup                      ...        0 min,  0.002 sec (  0.344%)
 Dispersion                     ...        0 min,  0.008 sec (  1.448%)
 classical contributions        ...        0 min,  0.000 sec (  0.060%)
 integral evaluation            ...        0 min,  0.024 sec (  4.505%)
 iterations                     ...        0 min,  0.420 sec ( 78.668%)
 molecular gradient             ...        0 min,  0.077 sec ( 14.459%)
 printout                       ...        0 min,  0.003 sec (  0.505%)

         :::::::::::::::::::::::::::::::::::::::::::::::::::::
         ::                     SUMMARY                     ::
         :::::::::::::::::::::::::::::::::::::::::::::::::::::
         :: total energy            -272.568169116277 Eh    ::
         :: gradient norm              0.355115065050 Eh/a0 ::
         :: HOMO-LUMO gap              0.544064030521 eV    ::
         ::.................................................::
         :: SCC energy              -276.873932910201 Eh    ::
         :: -> isotropic ES            0.173234573702 Eh    ::
         :: -> anisotropic ES          0.010734219836 Eh    ::
         :: -> anisotropic XC          0.180060999296 Eh    ::
         :: -> dispersion             -0.244953016559 Eh    ::
         :: repulsion energy           4.303792023834 Eh    ::
         :: add. restraining           0.000000000000 Eh    ::
         :: total charge               0.000000000000 e     ::
         :::::::::::::::::::::::::::::::::::::::::::::::::::::

      ----------------------------------------------------------- 
     |                   =====================                   |
     |                        A N C O P T                        |
     |                   =====================                   |
     |               Approximate Normal Coordinate               |
     |                Rational Function Optimizer                |
      ----------------------------------------------------------- 

          ...................................................
          :                      SETUP                      :
          :.................................................:
          :   optimization level            normal          :
          :   max. optcycles                   480          :
          :   ANC micro-cycles                  20          :
          :   degrees of freedom               474          :
          :.................................................:
          :   RF solver                   davidson          :
          :   write xtbopt.log                true          :
          :   linear?                        false          :
          :   energy convergence         0.5000000E-05 Eh   :
          :   grad. convergence          0.1000000E-02 Eh/α :
          :   maximium RF displ.         1.0000000          :
          :   Hlow (freq-cutoff)         0.1000000E-01      :
          :   Hmax (freq-cutoff)         5.0000000          :
          :   S6 in model hess.         20.0000000          :
          ...................................................

generating ANC from model Hessian ...
Using Lindh-Hessian (1995)
 Shifting diagonal of input Hessian by   1.000232518385952E-002
 Lowest  eigenvalues of input Hessian
    0.010000    0.000000    0.000000    0.000000    0.000000    0.000000
    0.000000    0.010003    0.010007    0.010018    0.010020    0.010050
    0.010053    0.010118    0.010163    0.010179    0.010220    0.010268
 Highest eigenvalues
    2.293220    2.337397    2.480195    2.489941    2.537724    2.546918
 

........................................................................
.............................. CYCLE    1 ..............................
........................................................................
   1   -276.8739329 -0.276874E+03  0.219E-04    0.54       0.0  T
   2   -276.8739329  0.273133E-09  0.183E-04    0.54      43.2  T
   3   -276.8739329 -0.389679E-08  0.951E-05    0.54      83.1  T
     SCC iter.                  ...        0 min,  0.096 sec
     gradient                   ...        0 min,  0.075 sec
 * total energy  :  -272.5681691 Eh     change       -0.1563961E-07 Eh
   gradient norm :     0.3551187 Eh/α   predicted     0.0000000E+00 (-100.00%)
   displ. norm   :     0.4850351 α      lambda       -0.1212903E+00
   maximum displ.:     0.0730940 α      in ANC's #213, #184, #239, ...

........................................................................
.............................. CYCLE    2 ..............................
........................................................................
   1   -277.0627417 -0.277063E+03  0.291E-01    0.56       0.0  T
   2   -277.0644198 -0.167808E-02  0.177E-01    0.54       1.0  T
   3   -277.0640163  0.403410E-03  0.954E-02    0.54       1.0  T
   4   -277.0647506 -0.734241E-03  0.433E-02    0.52       1.0  T
   5   -277.0649259 -0.175288E-03  0.182E-02    0.54       1.0  T
   6   -277.0649539 -0.279912E-04  0.807E-03    0.53       1.0  T
   7   -277.0649584 -0.456200E-05  0.342E-03    0.53       2.3  T
   8   -277.0649596 -0.120749E-05  0.167E-03    0.53       4.7  T
   9   -277.0649597 -0.731953E-07  0.842E-04    0.53       9.4  T
  10   -277.0649598 -0.587379E-07  0.287E-04    0.53      27.5  T
     SCC iter.                  ...        0 min,  0.318 sec
     gradient                   ...        0 min,  0.091 sec
 * total energy  :  -272.6561333 Eh     change       -0.8796421E-01 Eh
   gradient norm :     0.1594480 Eh/α   predicted    -0.7496894E-01 ( -14.77%)
   displ. norm   :     0.4833833 α      lambda       -0.4821949E-01
   maximum displ.:     0.1005379 α      in ANC's #84, #83, #65, ...

........................................................................
.............................. CYCLE    3 ..............................
........................................................................
   1   -277.1682121 -0.277168E+03  0.233E-01    0.52       0.0  T
   2   -277.1691407 -0.928583E-03  0.139E-01    0.52       1.0  T
   3   -277.1687694  0.371295E-03  0.761E-02    0.52       1.0  T
   4   -277.1693491 -0.579658E-03  0.329E-02    0.51       1.0  T
   5   -277.1694473 -0.982542E-04  0.129E-02    0.52       1.0  T
   6   -277.1694627 -0.154063E-04  0.568E-03    0.51       1.4  T
   7   -277.1694649 -0.211132E-05  0.262E-03    0.51       3.0  T
   8   -277.1694656 -0.710916E-06  0.121E-03    0.51       6.5  T
   9   -277.1694656 -0.449599E-07  0.631E-04    0.51      12.5  T
  10   -277.1694656 -0.318111E-07  0.225E-04    0.51      35.1  T
     SCC iter.                  ...        0 min,  0.308 sec
     gradient                   ...        0 min,  0.090 sec
 * total energy  :  -272.6862007 Eh     change       -0.3006739E-01 Eh
   gradient norm :     0.0421119 Eh/α   predicted    -0.2974323E-01 (  -1.08%)
   displ. norm   :     0.5001045 α      lambda       -0.1218143E-01
   maximum displ.:     0.1258787 α      in ANC's #84, #65, #89, ...

........................................................................
.............................. CYCLE    4 ..............................
........................................................................
   1   -277.1964566 -0.277196E+03  0.165E-01    0.52       0.0  T
   2   -277.1965032 -0.466059E-04  0.982E-02    0.52       1.0  T
   3   -277.1961585  0.344789E-03  0.472E-02    0.53       1.0  T
   4   -277.1965493 -0.390806E-03  0.786E-03    0.52       1.0  T
   5   -277.1965538 -0.452443E-05  0.426E-03    0.52       1.9  T
   6   -277.1965553 -0.154873E-05  0.179E-03    0.52       4.4  T
   7   -277.1965556 -0.293029E-06  0.807E-04    0.52       9.8  T
   8   -277.1965557 -0.431618E-07  0.396E-04    0.52      20.0  T
     SCC iter.                  ...        0 min,  0.247 sec
     gradient                   ...        0 min,  0.090 sec
 * total energy  :  -272.6939616 Eh     change       -0.7760828E-02 Eh
   gradient norm :     0.0242104 Eh/α   predicted    -0.7614066E-02 (  -1.89%)
   displ. norm   :     0.6339465 α      lambda       -0.9072593E-02
   maximum displ.:     0.1606026 α      in ANC's #84, #65, #27, ...

........................................................................
.............................. CYCLE    5 ..............................
........................................................................
   1   -277.2018152 -0.277202E+03  0.333E-01    0.52       0.0  T
   2   -277.2020329 -0.217786E-03  0.187E-01    0.52       1.0  T
   3   -277.2017337  0.299203E-03  0.496E-02    0.53       1.0  T
   4   -277.2021336 -0.399829E-03  0.106E-02    0.52       1.0  T
   5   -277.2021377 -0.408315E-05  0.617E-03    0.52       1.3  T
   6   -277.2021408 -0.317445E-05  0.232E-03    0.52       3.4  T
   7   -277.2021414 -0.542712E-06  0.998E-04    0.52       7.9  T
   8   -277.2021415 -0.956500E-07  0.439E-04    0.52      18.0  T
     SCC iter.                  ...        0 min,  0.247 sec
     gradient                   ...        0 min,  0.090 sec
 * total energy  :  -272.6953321 Eh     change       -0.1370552E-02 Eh
   gradient norm :     0.0479321 Eh/α   predicted    -0.6359424E-02 ( 364.00%)
   displ. norm   :     0.3264060 α      lambda       -0.6984633E-02
   maximum displ.:     0.1297430 α      in ANC's #42, #43, #19, ...

........................................................................
.............................. CYCLE    6 ..............................
........................................................................
   1   -277.2193243 -0.277219E+03  0.216E-01    0.52       0.0  T
   2   -277.2194170 -0.926719E-04  0.120E-01    0.53       1.0  T
   3   -277.2192129  0.204036E-03  0.374E-02    0.52       1.0  T
   4   -277.2194686 -0.255663E-03  0.606E-03    0.53       1.3  T
   5   -277.2194705 -0.193103E-05  0.327E-03    0.53       2.4  T
   6   -277.2194710 -0.523359E-06  0.154E-03    0.53       5.1  T
   7   -277.2194713 -0.278945E-06  0.472E-04    0.53      16.8  T
   8   -277.2194713 -0.188217E-07  0.228E-04    0.53      34.7  T
     SCC iter.                  ...        0 min,  0.247 sec
     gradient                   ...        0 min,  0.090 sec
 * total energy  :  -272.6988258 Eh     change       -0.3493674E-02 Eh
   gradient norm :     0.0338397 Eh/α   predicted    -0.3864407E-02 (  10.61%)
   displ. norm   :     0.3370058 α      lambda       -0.2792523E-02
   maximum displ.:     0.0989662 α      in ANC's #52, #20, #18, ...

........................................................................
.............................. CYCLE    7 ..............................
........................................................................
   1   -277.2202249 -0.277220E+03  0.143E-01    0.54       0.0  T
   2   -277.2202792 -0.542315E-04  0.807E-02    0.54       1.0  T
   3   -277.2201503  0.128884E-03  0.301E-02    0.53       1.0  T
   4   -277.2203046 -0.154290E-03  0.477E-03    0.54       1.7  T
   5   -277.2203054 -0.830025E-06  0.273E-03    0.54       2.9  T
   6   -277.2203061 -0.723753E-06  0.120E-03    0.54       6.6  T
   7   -277.2203062 -0.879481E-07  0.542E-04    0.54      14.6  T
   8   -277.2203062 -0.304307E-07  0.196E-04    0.54      40.4  T
     SCC iter.                  ...        0 min,  0.252 sec
     gradient                   ...        0 min,  0.091 sec
 * total energy  :  -272.6994663 Eh     change       -0.6405096E-03 Eh
   gradient norm :     0.0280113 Eh/α   predicted    -0.1554843E-02 ( 142.75%)
   displ. norm   :     0.3231158 α      lambda       -0.2257379E-02
   maximum displ.:     0.1197161 α      in ANC's #20, #21, #43, ...

........................................................................
.............................. CYCLE    8 ..............................
........................................................................
   1   -277.2146735 -0.277215E+03  0.143E-01    0.53       0.0  T
   2   -277.2147193 -0.458260E-04  0.794E-02    0.54       1.0  T
   3   -277.2146623  0.569911E-04  0.214E-02    0.53       1.0  T
   4   -277.2147399 -0.775729E-04  0.401E-03    0.54       2.0  T
   5   -277.2147403 -0.342571E-06  0.227E-03    0.54       3.5  T
   6   -277.2147408 -0.544971E-06  0.888E-04    0.54       8.9  T
   7   -277.2147409 -0.711542E-07  0.321E-04    0.54      24.6  T
     SCC iter.                  ...        0 min,  0.217 sec
     gradient                   ...        0 min,  0.091 sec
 * total energy  :  -272.7008552 Eh     change       -0.1388920E-02 Eh
   gradient norm :     0.0206663 Eh/α   predicted    -0.1246531E-02 ( -10.25%)
   displ. norm   :     0.3668213 α      lambda       -0.1437107E-02
   maximum displ.:     0.1520076 α      in ANC's #20, #21, #52, ...

........................................................................
.............................. CYCLE    9 ..............................
........................................................................
   1   -277.2189471 -0.277219E+03  0.102E-01    0.54       0.0  T
   2   -277.2189630 -0.159676E-04  0.581E-02    0.54       1.0  T
   3   -277.2188977  0.653422E-04  0.225E-02    0.54       1.0  T
   4   -277.2189742 -0.765320E-04  0.335E-03    0.54       2.4  T
   5   -277.2189742  0.911001E-08  0.229E-03    0.54       3.5  T
   6   -277.2189749 -0.653892E-06  0.695E-04    0.54      11.4  T
   7   -277.2189749 -0.309657E-07  0.288E-04    0.54      27.4  T
     SCC iter.                  ...        0 min,  0.217 sec
     gradient                   ...        0 min,  0.091 sec
 * total energy  :  -272.7017360 Eh     change       -0.8807566E-03 Eh
   gradient norm :     0.0142276 Eh/α   predicted    -0.8152475E-03 (  -7.44%)
   displ. norm   :     0.4412177 α      lambda       -0.9720504E-03
   maximum displ.:     0.1924539 α      in ANC's #20, #21, #10, ...

........................................................................
.............................. CYCLE   10 ..............................
........................................................................
   1   -277.2203671 -0.277220E+03  0.982E-02    0.55       0.0  T
   2   -277.2203814 -0.142329E-04  0.557E-02    0.55       1.0  T
   3   -277.2203664  0.149472E-04  0.112E-02    0.55       1.0  T
   4   -277.2203869 -0.205045E-04  0.333E-03    0.55       2.4  T
   5   -277.2203873 -0.423622E-06  0.165E-03    0.55       4.8  T
   6   -277.2203876 -0.251112E-06  0.626E-04    0.55      12.6  T
   7   -277.2203876 -0.436651E-07  0.241E-04    0.55      32.8  T
     SCC iter.                  ...        0 min,  0.217 sec
     gradient                   ...        0 min,  0.090 sec
 * total energy  :  -272.7024964 Eh     change       -0.7604141E-03 Eh
   gradient norm :     0.0114815 Eh/α   predicted    -0.5806456E-03 ( -23.64%)
   displ. norm   :     0.6481327 α      lambda       -0.1321447E-02
   maximum displ.:     0.2795044 α      in ANC's #20, #21, #10, ...

........................................................................
.............................. CYCLE   11 ..............................
........................................................................
   1   -277.2141264 -0.277214E+03  0.155E-01    0.56       0.0  T
   2   -277.2141708 -0.444759E-04  0.876E-02    0.56       1.0  T
   3   -277.2140824  0.884347E-04  0.263E-02    0.55       1.0  T
   4   -277.2141896 -0.107150E-03  0.537E-03    0.56       1.5  T
   5   -277.2141902 -0.626877E-06  0.308E-03    0.56       2.6  T
   6   -277.2141913 -0.108260E-05  0.115E-03    0.56       6.8  T
   7   -277.2141914 -0.984065E-07  0.445E-04    0.56      17.8  T
   8   -277.2141914 -0.219332E-07  0.169E-04    0.56      46.9  T
     SCC iter.                  ...        0 min,  0.249 sec
     gradient                   ...        0 min,  0.092 sec
 * total energy  :  -272.7029813 Eh     change       -0.4849210E-03 Eh
   gradient norm :     0.0341788 Eh/α   predicted    -0.9382855E-03 (  93.49%)
   displ. norm   :     0.3984746 α      lambda       -0.1375918E-02
   maximum displ.:     0.1576977 α      in ANC's #20, #21, #10, ...

........................................................................
.............................. CYCLE   12 ..............................
........................................................................
   1   -277.2143148 -0.277214E+03  0.120E-01    0.55       0.0  T
   2   -277.2143544 -0.396269E-04  0.669E-02    0.55       1.0  T
   3   -277.2143081  0.463039E-04  0.204E-02    0.56       1.0  T
   4   -277.2143711 -0.630337E-04  0.354E-03    0.56       2.2  T
   5   -277.2143711 -0.254843E-07  0.227E-03    0.56       3.5  T
   6   -277.2143717 -0.574789E-06  0.898E-04    0.56       8.8  T
   7   -277.2143718 -0.665089E-07  0.350E-04    0.56      22.6  T
     SCC iter.                  ...        0 min,  0.217 sec
     gradient                   ...        0 min,  0.090 sec
 * total energy  :  -272.7036874 Eh     change       -0.7061380E-03 Eh
   gradient norm :     0.0229464 Eh/α   predicted    -0.7972035E-03 (  12.90%)
   displ. norm   :     0.3492245 α      lambda       -0.1114203E-02
   maximum displ.:     0.1222896 α      in ANC's #22, #45, #10, ...

........................................................................
.............................. CYCLE   13 ..............................
........................................................................
   1   -277.2328625 -0.277233E+03  0.111E-01    0.58       0.0  T
   2   -277.2328895 -0.270308E-04  0.621E-02    0.58       1.0  T
   3   -277.2327685  0.121065E-03  0.299E-02    0.59       1.0  T
   4   -277.2329098 -0.141292E-03  0.366E-03    0.58       2.2  T
   5   -277.2329106 -0.828234E-06  0.204E-03    0.58       3.9  T
   6   -277.2329110 -0.369254E-06  0.857E-04    0.58       9.2  T
   7   -277.2329110 -0.506780E-07  0.331E-04    0.58      23.9  T
     SCC iter.                  ...        0 min,  0.217 sec
     gradient                   ...        0 min,  0.090 sec
 * total energy  :  -272.7036314 Eh     change        0.5603007E-04 Eh
   gradient norm :     0.0438784 Eh/α   predicted    -0.6250515E-03 (*******%)
   displ. norm   :     0.2781327 α      lambda       -0.1236637E-02
   maximum displ.:     0.1263421 α      in ANC's #20, #21, #10, ...

........................................................................
.............................. CYCLE   14 ..............................
........................................................................
   1   -277.2208272 -0.277221E+03  0.106E-01    0.56       0.0  T
   2   -277.2208457 -0.184763E-04  0.593E-02    0.57       1.0  T
   3   -277.2207481  0.976452E-04  0.262E-02    0.56       1.0  T
   4   -277.2208617 -0.113581E-03  0.322E-03    0.57       2.5  T
   5   -277.2208619 -0.272953E-06  0.204E-03    0.57       3.9  T
   6   -277.2208623 -0.404845E-06  0.624E-04    0.57      12.7  T
   7   -277.2208624 -0.271326E-07  0.216E-04    0.57      36.5  T
     SCC iter.                  ...        0 min,  0.217 sec
     gradient                   ...        0 min,  0.095 sec
 * total energy  :  -272.7044443 Eh     change       -0.8128743E-03 Eh
   gradient norm :     0.0106905 Eh/α   predicted    -0.6661538E-03 ( -18.05%)
   displ. norm   :     0.4189427 α      lambda       -0.7195296E-03
   maximum displ.:     0.1554283 α      in ANC's #20, #10, #21, ...

........................................................................
.............................. CYCLE   15 ..............................
........................................................................
   1   -277.2110678 -0.277211E+03  0.100E-01    0.56       0.0  T
   2   -277.2110873 -0.194908E-04  0.566E-02    0.57       1.0  T
   3   -277.2110186  0.687399E-04  0.224E-02    0.56       1.0  T
   4   -277.2110994 -0.808482E-04  0.392E-03    0.57       2.0  T
   5   -277.2111002 -0.787292E-06  0.218E-03    0.57       3.6  T
   6   -277.2111006 -0.450873E-06  0.721E-04    0.57      11.0  T
   7   -277.2111007 -0.432660E-07  0.264E-04    0.57      29.9  T
     SCC iter.                  ...        0 min,  0.216 sec
     gradient                   ...        0 min,  0.093 sec
 * total energy  :  -272.7047785 Eh     change       -0.3342362E-03 Eh
   gradient norm :     0.0234503 Eh/α   predicted    -0.4229115E-03 (  26.53%)
   displ. norm   :     0.3737720 α      lambda       -0.6028716E-03
   maximum displ.:     0.1146853 α      in ANC's #22, #10, #7, ...

........................................................................
.............................. CYCLE   16 ..............................
........................................................................
   1   -277.2157143 -0.277216E+03  0.680E-02    0.57       0.0  T
   2   -277.2157215 -0.721034E-05  0.389E-02    0.57       1.0  T
   3   -277.2156798  0.416784E-04  0.178E-02    0.57       1.0  T
   4   -277.2157283 -0.484533E-04  0.250E-03    0.57       3.2  T
   5   -277.2157284 -0.136629E-06  0.166E-03    0.57       4.8  T
   6   -277.2157287 -0.292459E-06  0.500E-04    0.57      15.8  T
   7   -277.2157287 -0.210907E-07  0.217E-04    0.57      36.4  T
     SCC iter.                  ...        0 min,  0.222 sec
     gradient                   ...        0 min,  0.089 sec
 * total energy  :  -272.7052018 Eh     change       -0.4233100E-03 Eh
   gradient norm :     0.0208184 Eh/α   predicted    -0.3435489E-03 ( -18.84%)
   displ. norm   :     0.5187044 α      lambda       -0.7971565E-03
   maximum displ.:     0.1635590 α      in ANC's #10, #5, #7, ...

........................................................................
.............................. CYCLE   17 ..............................
........................................................................
   1   -277.2229198 -0.277223E+03  0.794E-02    0.58       0.0  T
   2   -277.2229320 -0.121701E-04  0.454E-02    0.58       1.0  T
   3   -277.2228846  0.473839E-04  0.185E-02    0.59       1.0  T
   4   -277.2229391 -0.545048E-04  0.317E-03    0.58       2.5  T
   5   -277.2229398 -0.683049E-06  0.182E-03    0.58       4.3  T
   6   -277.2229401 -0.335351E-06  0.664E-04    0.58      11.9  T
   7   -277.2229402 -0.303222E-07  0.304E-04    0.58      26.0  T
     SCC iter.                  ...        0 min,  0.217 sec
     gradient                   ...        0 min,  0.083 sec
 * total energy  :  -272.7056724 Eh     change       -0.4705271E-03 Eh
   gradient norm :     0.0098556 Eh/α   predicted    -0.5058230E-03 (   7.50%)
   displ. norm   :     0.6009740 α      lambda       -0.4859592E-03
   maximum displ.:     0.1888804 α      in ANC's #10, #5, #20, ...

........................................................................
.............................. CYCLE   18 ..............................
........................................................................
   1   -277.2168511 -0.277217E+03  0.959E-02    0.58       0.0  T
   2   -277.2168643 -0.131847E-04  0.548E-02    0.59       1.0  T
   3   -277.2168034  0.608879E-04  0.198E-02    0.58       1.0  T
   4   -277.2168739 -0.705446E-04  0.359E-03    0.59       2.2  T
   5   -277.2168744 -0.468040E-06  0.204E-03    0.59       3.9  T
   6   -277.2168748 -0.371988E-06  0.627E-04    0.59      12.6  T
   7   -277.2168748 -0.375565E-07  0.257E-04    0.59      30.7  T
     SCC iter.                  ...        0 min,  0.217 sec
     gradient                   ...        0 min,  0.082 sec
 * total energy  :  -272.7060588 Eh     change       -0.3864860E-03 Eh
   gradient norm :     0.0059843 Eh/α   predicted    -0.3307369E-03 ( -14.42%)
   displ. norm   :     0.5723674 α      lambda       -0.5311489E-03
   maximum displ.:     0.2095318 α      in ANC's #5, #7, #10, ...

........................................................................
.............................. CYCLE   19 ..............................
........................................................................
   1   -277.2230775 -0.277223E+03  0.898E-02    0.59       0.0  T
   2   -277.2230931 -0.155978E-04  0.510E-02    0.59       1.0  T
   3   -277.2230604  0.326550E-04  0.151E-02    0.59       1.0  T
   4   -277.2231003 -0.398641E-04  0.316E-03    0.59       2.5  T
   5   -277.2231008 -0.541920E-06  0.183E-03    0.59       4.3  T
   6   -277.2231011 -0.277495E-06  0.693E-04    0.59      11.4  T
   7   -277.2231011 -0.399023E-07  0.275E-04    0.59      28.8  T
     SCC iter.                  ...        0 min,  0.216 sec
     gradient                   ...        0 min,  0.083 sec
 * total energy  :  -272.7063963 Eh     change       -0.3374137E-03 Eh
   gradient norm :     0.0093993 Eh/α   predicted    -0.3525786E-03 (   4.49%)
   displ. norm   :     0.5553911 α      lambda       -0.3988862E-03
   maximum displ.:     0.2013305 α      in ANC's #5, #7, #10, ...

........................................................................
.............................. CYCLE   20 ..............................
........................................................................
   1   -277.2184750 -0.277218E+03  0.756E-02    0.60       0.0  T
   2   -277.2184837 -0.867544E-05  0.433E-02    0.60       1.0  T
   3   -277.2184531  0.306051E-04  0.146E-02    0.60       1.0  T
   4   -277.2184890 -0.358950E-04  0.287E-03    0.60       2.8  T
   5   -277.2184894 -0.396842E-06  0.162E-03    0.60       4.9  T
   6   -277.2184895 -0.178884E-06  0.615E-04    0.60      12.9  T
   7   -277.2184896 -0.432365E-07  0.220E-04    0.60      35.9  T
     SCC iter.                  ...        0 min,  0.217 sec
     gradient                   ...        0 min,  0.086 sec
 * total energy  :  -272.7066880 Eh     change       -0.2917675E-03 Eh
   gradient norm :     0.0086229 Eh/α   predicted    -0.2609653E-03 ( -10.56%)
   displ. norm   :     0.4781005 α      lambda       -0.3787436E-03
   maximum displ.:     0.1995875 α      in ANC's #5, #4, #7, ...
 * RMSD in coord.:     0.5257053 α      energy gain  -0.1385189E+00 Eh

generating ANC from model Hessian ...
Using Lindh-Hessian (1995)
 Shifting diagonal of input Hessian by   1.136683937325607E-002
 Lowest  eigenvalues of input Hessian
    0.010000    0.011296    0.011308    0.011364    0.000000    0.000000
    0.000000    0.000000    0.000000    0.000000    0.011371    0.011372
    0.011378    0.011397    0.011415    0.011436    0.011514    0.011520
 Highest eigenvalues
    2.297377    2.303394    2.610004    2.612010    2.647601    2.659406
 

........................................................................
.............................. CYCLE   21 ..............................
........................................................................
   1   -277.2242983 -0.277224E+03  0.547E-02    0.61       0.0  T
   2   -277.2243031 -0.486381E-05  0.316E-02    0.62       1.0  T
   3   -277.2242876  0.155001E-04  0.108E-02    0.61       1.0  T
   4   -277.2243057 -0.180553E-04  0.212E-03    0.62       3.7  T
   5   -277.2243060 -0.311625E-06  0.111E-03    0.62       7.1  T
   6   -277.2243061 -0.677283E-07  0.457E-04    0.62      17.3  T
   7   -277.2243061 -0.229610E-07  0.176E-04    0.62      45.0  T
     SCC iter.                  ...        0 min,  0.217 sec
     gradient                   ...        0 min,  0.085 sec
 * total energy  :  -272.7069705 Eh     change       -0.2824463E-03 Eh
   gradient norm :     0.0067490 Eh/α   predicted     0.0000000E+00 (-100.00%)
   displ. norm   :     0.0745147 α      lambda       -0.1196185E-03
   maximum displ.:     0.0432068 α      in ANC's #8, #5, #21, ...

........................................................................
.............................. CYCLE   22 ..............................
........................................................................
   1   -277.2247677 -0.277225E+03  0.152E-02    0.62       0.0  T
   2   -277.2247682 -0.540982E-06  0.886E-03    0.62       1.0  T
   3   -277.2247659  0.233939E-05  0.414E-03    0.62       1.9  T
   4   -277.2247686 -0.268699E-05  0.778E-04    0.62      10.2  T
   5   -277.2247686 -0.526574E-07  0.369E-04    0.62      21.4  T
   6   -277.2247686 -0.919397E-08  0.171E-04    0.62      46.2  T
     SCC iter.                  ...        0 min,  0.187 sec
     gradient                   ...        0 min,  0.086 sec
 * total energy  :  -272.7070654 Eh     change       -0.9492067E-04 Eh
   gradient norm :     0.0028581 Eh/α   predicted    -0.6014232E-04 ( -36.64%)
   displ. norm   :     0.3243900 α      lambda       -0.3873075E-03
   maximum displ.:     0.1787098 α      in ANC's #8, #5, #21, ...

........................................................................
.............................. CYCLE   23 ..............................
........................................................................
   1   -277.2255070 -0.277226E+03  0.784E-02    0.61       0.0  T
   2   -277.2255190 -0.119715E-04  0.444E-02    0.61       1.0  T
   3   -277.2254849  0.340890E-04  0.159E-02    0.62       1.0  T
   4   -277.2255255 -0.406210E-04  0.316E-03    0.62       2.5  T
   5   -277.2255262 -0.672918E-06  0.164E-03    0.62       4.8  T
   6   -277.2255264 -0.195238E-06  0.643E-04    0.62      12.3  T
   7   -277.2255264 -0.411133E-07  0.235E-04    0.62      33.7  T
     SCC iter.                  ...        0 min,  0.217 sec
     gradient                   ...        0 min,  0.096 sec
 * total energy  :  -272.7070554 Eh     change        0.1002238E-04 Eh
   gradient norm :     0.0155292 Eh/α   predicted    -0.2140349E-03 (*******%)
   displ. norm   :     0.1331856 α      lambda       -0.4817642E-03
   maximum displ.:     0.0772946 α      in ANC's #8, #5, #22, ...

........................................................................
.............................. CYCLE   24 ..............................
........................................................................
   1   -277.2268796 -0.277227E+03  0.652E-02    0.62       0.0  T
   2   -277.2268879 -0.823129E-05  0.361E-02    0.62       1.0  T
   3   -277.2268850  0.286954E-05  0.606E-03    0.62       1.3  T
   4   -277.2268913 -0.628076E-05  0.154E-03    0.62       5.1  T
   5   -277.2268913 -0.626785E-07  0.774E-04    0.62      10.2  T
   6   -277.2268914 -0.586746E-07  0.248E-04    0.62      31.9  T
     SCC iter.                  ...        0 min,  0.187 sec
     gradient                   ...        0 min,  0.083 sec
 * total energy  :  -272.7072951 Eh     change       -0.2396863E-03 Eh
   gradient norm :     0.0086158 Eh/α   predicted    -0.2451619E-03 (   2.28%)
   displ. norm   :     0.1044703 α      lambda       -0.2242689E-03
   maximum displ.:     0.0560182 α      in ANC's #8, #75, #5, ...

........................................................................
.............................. CYCLE   25 ..............................
........................................................................
   1   -277.2251483 -0.277225E+03  0.501E-02    0.62       0.0  T
   2   -277.2251533 -0.501599E-05  0.280E-02    0.62       1.0  T
   3   -277.2251369  0.164326E-04  0.108E-02    0.62       1.0  T
   4   -277.2251567 -0.198158E-04  0.131E-03    0.62       6.0  T
   5   -277.2251568 -0.743744E-07  0.741E-04    0.62      10.7  T
   6   -277.2251568 -0.411436E-07  0.300E-04    0.62      26.4  T
     SCC iter.                  ...        0 min,  0.187 sec
     gradient                   ...        0 min,  0.085 sec
 * total energy  :  -272.7073683 Eh     change       -0.7323245E-04 Eh
   gradient norm :     0.0052029 Eh/α   predicted    -0.1133605E-03 (  54.80%)
   displ. norm   :     0.1591272 α      lambda       -0.2039870E-03
   maximum displ.:     0.0969834 α      in ANC's #8, #5, #21, ...

........................................................................
.............................. CYCLE   26 ..............................
........................................................................
   1   -277.2245411 -0.277225E+03  0.284E-02    0.62       0.0  T
   2   -277.2245425 -0.141766E-05  0.161E-02    0.63       1.0  T
   3   -277.2245381  0.439637E-05  0.551E-03    0.63       1.4  T
   4   -277.2245434 -0.527444E-05  0.966E-04    0.63       8.2  T
   5   -277.2245435 -0.563355E-07  0.528E-04    0.63      15.0  T
   6   -277.2245435 -0.156471E-07  0.204E-04    0.63      38.8  T
     SCC iter.                  ...        0 min,  0.187 sec
     gradient                   ...        0 min,  0.087 sec
 * total energy  :  -272.7075317 Eh     change       -0.1634446E-03 Eh
   gradient norm :     0.0028496 Eh/α   predicted    -0.1045775E-03 ( -36.02%)
   displ. norm   :     0.4885101 α      lambda       -0.4228454E-03
   maximum displ.:     0.2992966 α      in ANC's #8, #5, #21, ...

........................................................................
.............................. CYCLE   27 ..............................
........................................................................
   1   -277.2218502 -0.277222E+03  0.792E-02    0.63       0.0  T
   2   -277.2218601 -0.989639E-05  0.448E-02    0.64       1.0  T
   3   -277.2218375  0.225809E-04  0.128E-02    0.63       1.0  T
   4   -277.2218655 -0.279700E-04  0.258E-03    0.64       3.1  T
   5   -277.2218658 -0.325507E-06  0.148E-03    0.64       5.3  T
   6   -277.2218660 -0.141060E-06  0.508E-04    0.64      15.6  T
   7   -277.2218660 -0.302510E-07  0.197E-04    0.64      40.2  T
     SCC iter.                  ...        0 min,  0.217 sec
     gradient                   ...        0 min,  0.089 sec
 * total energy  :  -272.7076421 Eh     change       -0.1103976E-03 Eh
   gradient norm :     0.0079367 Eh/α   predicted    -0.2618774E-03 ( 137.21%)
   displ. norm   :     0.3841589 α      lambda       -0.5210488E-03
   maximum displ.:     0.2329480 α      in ANC's #8, #5, #21, ...

........................................................................
.............................. CYCLE   28 ..............................
........................................................................
   1   -277.2213405 -0.277221E+03  0.721E-02    0.64       0.0  T
   2   -277.2213496 -0.908064E-05  0.403E-02    0.65       1.0  T
   3   -277.2213383  0.113071E-04  0.939E-03    0.64       1.0  T
   4   -277.2213539 -0.156438E-04  0.211E-03    0.65       3.8  T
   5   -277.2213541 -0.139889E-06  0.130E-03    0.65       6.1  T
   6   -277.2213542 -0.134144E-06  0.367E-04    0.65      21.5  T
   7   -277.2213542 -0.156207E-07  0.157E-04    0.65      50.5  T
     SCC iter.                  ...        0 min,  0.217 sec
     gradient                   ...        0 min,  0.088 sec
 * total energy  :  -272.7079603 Eh     change       -0.3181997E-03 Eh
   gradient norm :     0.0053557 Eh/α   predicted    -0.2989763E-03 (  -6.04%)
   displ. norm   :     0.3966270 α      lambda       -0.2426970E-03
   maximum displ.:     0.2512007 α      in ANC's #8, #5, #21, ...

........................................................................
.............................. CYCLE   29 ..............................
........................................................................
   1   -277.2216019 -0.277222E+03  0.440E-02    0.65       0.0  T
   2   -277.2216050 -0.316423E-05  0.251E-02    0.65       1.0  T
   3   -277.2215958  0.925060E-05  0.782E-03    0.65       1.0  T
   4   -277.2216068 -0.110159E-04  0.153E-03    0.66       5.2  T
   5   -277.2216069 -0.145116E-06  0.936E-04    0.65       8.4  T
   6   -277.2216070 -0.652534E-07  0.295E-04    0.65      26.8  T
     SCC iter.                  ...        0 min,  0.187 sec
     gradient                   ...        0 min,  0.087 sec
 * total energy  :  -272.7081753 Eh     change       -0.2149530E-03 Eh
   gradient norm :     0.0046344 Eh/α   predicted    -0.1404391E-03 ( -34.67%)
   displ. norm   :     0.4338941 α      lambda       -0.3171817E-03
   maximum displ.:     0.2754778 α      in ANC's #8, #5, #11, ...

........................................................................
.............................. CYCLE   30 ..............................
........................................................................
   1   -277.2249471 -0.277225E+03  0.514E-02    0.65       0.0  T
   2   -277.2249519 -0.475454E-05  0.292E-02    0.66       1.0  T
   3   -277.2249416  0.102202E-04  0.850E-03    0.66       1.0  T
   4   -277.2249543 -0.126834E-04  0.167E-03    0.66       4.7  T
   5   -277.2249545 -0.140444E-06  0.105E-03    0.66       7.5  T
   6   -277.2249546 -0.995803E-07  0.302E-04    0.66      26.2  T
   7   -277.2249546 -0.856687E-08  0.132E-04    0.66      59.9  T
     SCC iter.                  ...        0 min,  0.217 sec
     gradient                   ...        0 min,  0.085 sec
 * total energy  :  -272.7084313 Eh     change       -0.2560438E-03 Eh
   gradient norm :     0.0032152 Eh/α   predicted    -0.1884488E-03 ( -26.40%)
   displ. norm   :     0.5203958 α      lambda       -0.3143773E-03
   maximum displ.:     0.3272121 α      in ANC's #8, #5, #11, ...

........................................................................
.............................. CYCLE   31 ..............................
........................................................................
   1   -277.2258312 -0.277226E+03  0.611E-02    0.66       0.0  T
   2   -277.2258369 -0.572163E-05  0.348E-02    0.67       1.0  T
   3   -277.2258215  0.153974E-04  0.103E-02    0.66       1.0  T
   4   -277.2258401 -0.186164E-04  0.200E-03    0.67       3.9  T
   5   -277.2258404 -0.237650E-06  0.123E-03    0.67       6.4  T
   6   -277.2258405 -0.119548E-06  0.356E-04    0.67      22.2  T
   7   -277.2258405 -0.134036E-07  0.154E-04    0.67      51.2  T
     SCC iter.                  ...        0 min,  0.217 sec
     gradient                   ...        0 min,  0.096 sec
 * total energy  :  -272.7086736 Eh     change       -0.2422635E-03 Eh
   gradient norm :     0.0043971 Eh/α   predicted    -0.1997629E-03 ( -17.54%)
   displ. norm   :     0.5738136 α      lambda       -0.3353950E-03
   maximum displ.:     0.3591530 α      in ANC's #8, #5, #11, ...

........................................................................
.............................. CYCLE   32 ..............................
........................................................................
   1   -277.2258743 -0.277226E+03  0.589E-02    0.66       0.0  T
   2   -277.2258794 -0.514243E-05  0.339E-02    0.67       1.0  T
   3   -277.2258594  0.200202E-04  0.117E-02    0.66       1.0  T
   4   -277.2258828 -0.233783E-04  0.212E-03    0.67       3.7  T
   5   -277.2258832 -0.371662E-06  0.118E-03    0.67       6.7  T
   6   -277.2258833 -0.854537E-07  0.393E-04    0.67      20.1  T
   7   -277.2258833 -0.183490E-07  0.166E-04    0.67      47.7  T
     SCC iter.                  ...        0 min,  0.218 sec
     gradient                   ...        0 min,  0.086 sec
 * total energy  :  -272.7089734 Eh     change       -0.2998130E-03 Eh
   gradient norm :     0.0041537 Eh/α   predicted    -0.2229151E-03 ( -25.65%)
   displ. norm   :     0.6765822 α      lambda       -0.3939552E-03
   maximum displ.:     0.4274666 α      in ANC's #8, #5, #11, ...

........................................................................
.............................. CYCLE   33 ..............................
........................................................................
   1   -277.2260031 -0.277226E+03  0.650E-02    0.66       0.0  T
   2   -277.2260092 -0.615491E-05  0.375E-02    0.67       1.0  T
   3   -277.2259781  0.310803E-04  0.143E-02    0.67       1.0  T
   4   -277.2260137 -0.355229E-04  0.251E-03    0.67       3.1  T
   5   -277.2260143 -0.615424E-06  0.130E-03    0.67       6.1  T
   6   -277.2260144 -0.942943E-07  0.485E-04    0.67      16.3  T
   7   -277.2260144 -0.253774E-07  0.205E-04    0.67      38.6  T
     SCC iter.                  ...        0 min,  0.223 sec
     gradient                   ...        0 min,  0.092 sec
 * total energy  :  -272.7093350 Eh     change       -0.3615697E-03 Eh
   gradient norm :     0.0035718 Eh/α   predicted    -0.2871518E-03 ( -20.58%)
   displ. norm   :     0.7522635 α      lambda       -0.4450017E-03
   maximum displ.:     0.4786301 α      in ANC's #8, #5, #11, ...

........................................................................
.............................. CYCLE   34 ..............................
........................................................................
   1   -277.2263488 -0.277226E+03  0.701E-02    0.67       0.0  T
   2   -277.2263555 -0.672790E-05  0.405E-02    0.67       1.0  T
   3   -277.2263185  0.370040E-04  0.155E-02    0.67       1.0  T
   4   -277.2263607 -0.421506E-04  0.268E-03    0.67       3.0  T
   5   -277.2263613 -0.650874E-06  0.142E-03    0.67       5.6  T
   6   -277.2263615 -0.124240E-06  0.516E-04    0.67      15.3  T
   7   -277.2263615 -0.280937E-07  0.227E-04    0.67      34.9  T
     SCC iter.                  ...        0 min,  0.217 sec
     gradient                   ...        0 min,  0.090 sec
 * total energy  :  -272.7097472 Eh     change       -0.4122115E-03 Eh
   gradient norm :     0.0036224 Eh/α   predicted    -0.3484150E-03 ( -15.48%)
   displ. norm   :     0.7907257 α      lambda       -0.4844196E-03
   maximum displ.:     0.5059969 α      in ANC's #8, #5, #11, ...

........................................................................
.............................. CYCLE   35 ..............................
........................................................................
   1   -277.2267183 -0.277227E+03  0.713E-02    0.67       0.0  T
   2   -277.2267249 -0.660028E-05  0.411E-02    0.67       1.0  T
   3   -277.2266881  0.368274E-04  0.154E-02    0.67       1.0  T
   4   -277.2267300 -0.418986E-04  0.272E-03    0.67       2.9  T
   5   -277.2267306 -0.605908E-06  0.148E-03    0.67       5.3  T
   6   -277.2267308 -0.161496E-06  0.509E-04    0.67      15.5  T
   7   -277.2267308 -0.259868E-07  0.232E-04    0.67      34.1  T
     SCC iter.                  ...        0 min,  0.218 sec
     gradient                   ...        0 min,  0.090 sec
 * total energy  :  -272.7101980 Eh     change       -0.4507764E-03 Eh
   gradient norm :     0.0039807 Eh/α   predicted    -0.3936527E-03 ( -12.67%)
   displ. norm   :     0.7887073 α      lambda       -0.5041243E-03
   maximum displ.:     0.5023308 α      in ANC's #8, #5, #13, ...

........................................................................
.............................. CYCLE   36 ..............................
........................................................................
   1   -277.2276533 -0.277228E+03  0.695E-02    0.67       0.0  T
   2   -277.2276593 -0.602759E-05  0.401E-02    0.67       1.0  T
   3   -277.2276270  0.323541E-04  0.145E-02    0.67       1.0  T
   4   -277.2276638 -0.368048E-04  0.267E-03    0.67       3.0  T
   5   -277.2276643 -0.527941E-06  0.148E-03    0.67       5.4  T
   6   -277.2276645 -0.179997E-06  0.489E-04    0.67      16.2  T
   7   -277.2276645 -0.233556E-07  0.227E-04    0.67      34.8  T
     SCC iter.                  ...        0 min,  0.221 sec
     gradient                   ...        0 min,  0.091 sec
 * total energy  :  -272.7106665 Eh     change       -0.4685143E-03 Eh
   gradient norm :     0.0038989 Eh/α   predicted    -0.4088652E-03 ( -12.73%)
   displ. norm   :     0.7993366 α      lambda       -0.5087941E-03
   maximum displ.:     0.5084227 α      in ANC's #8, #5, #13, ...

........................................................................
.............................. CYCLE   37 ..............................
........................................................................
   1   -277.2272026 -0.277227E+03  0.690E-02    0.67       0.0  T
   2   -277.2272080 -0.543780E-05  0.398E-02    0.68       1.0  T
   3   -277.2271811  0.268495E-04  0.135E-02    0.67       1.0  T
   4   -277.2272118 -0.306473E-04  0.260E-03    0.67       3.0  T
   5   -277.2272122 -0.446939E-06  0.146E-03    0.67       5.4  T
   6   -277.2272124 -0.184588E-06  0.463E-04    0.67      17.1  T
   7   -277.2272124 -0.217681E-07  0.215E-04    0.67      36.8  T
     SCC iter.                  ...        0 min,  0.217 sec
     gradient                   ...        0 min,  0.090 sec
 * total energy  :  -272.7111372 Eh     change       -0.4706976E-03 Eh
   gradient norm :     0.0036525 Eh/α   predicted    -0.4169468E-03 ( -11.42%)
   displ. norm   :     0.7911713 α      lambda       -0.4874136E-03
   maximum displ.:     0.5031349 α      in ANC's #8, #5, #13, ...

........................................................................
.............................. CYCLE   38 ..............................
........................................................................
   1   -277.2279385 -0.277228E+03  0.654E-02    0.68       0.0  T
   2   -277.2279435 -0.504123E-05  0.377E-02    0.68       1.0  T
   3   -277.2279207  0.227584E-04  0.124E-02    0.68       1.0  T
   4   -277.2279467 -0.259274E-04  0.249E-03    0.68       3.2  T
   5   -277.2279471 -0.436771E-06  0.135E-03    0.68       5.8  T
   6   -277.2279473 -0.149689E-06  0.459E-04    0.68      17.2  T
   7   -277.2279473 -0.222491E-07  0.200E-04    0.68      39.5  T
     SCC iter.                  ...        0 min,  0.217 sec
     gradient                   ...        0 min,  0.093 sec
 * total energy  :  -272.7115827 Eh     change       -0.4455228E-03 Eh
   gradient norm :     0.0037826 Eh/α   predicted    -0.3962603E-03 ( -11.06%)
   displ. norm   :     0.8089895 α      lambda       -0.4603615E-03
   maximum displ.:     0.5192029 α      in ANC's #8, #5, #13, ...

........................................................................
.............................. CYCLE   39 ..............................
........................................................................
   1   -277.2253819 -0.277225E+03  0.660E-02    0.68       0.0  T
   2   -277.2253864 -0.447916E-05  0.381E-02    0.68       1.0  T
   3   -277.2253702  0.162572E-04  0.111E-02    0.68       1.0  T
   4   -277.2253891 -0.189511E-04  0.222E-03    0.68       3.6  T
   5   -277.2253893 -0.209296E-06  0.133E-03    0.68       5.9  T
   6   -277.2253895 -0.161308E-06  0.416E-04    0.68      19.0  T
   7   -277.2253895 -0.184520E-07  0.191E-04    0.68      41.4  T
     SCC iter.                  ...        0 min,  0.218 sec
     gradient                   ...        0 min,  0.090 sec
 * total energy  :  -272.7119982 Eh     change       -0.4155076E-03 Eh
   gradient norm :     0.0047326 Eh/α   predicted    -0.3808301E-03 (  -8.35%)
   displ. norm   :     0.7875758 α      lambda       -0.4572321E-03
   maximum displ.:     0.5092669 α      in ANC's #8, #5, #13, ...

........................................................................
.............................. CYCLE   40 ..............................
........................................................................
   1   -277.2286492 -0.277229E+03  0.595E-02    0.68       0.0  T
   2   -277.2286550 -0.581984E-05  0.343E-02    0.68       1.0  T
   3   -277.2286393  0.156940E-04  0.103E-02    0.68       1.0  T
   4   -277.2286574 -0.180574E-04  0.233E-03    0.68       3.4  T
   5   -277.2286578 -0.467862E-06  0.120E-03    0.68       6.6  T
   6   -277.2286579 -0.109351E-06  0.486E-04    0.68      16.3  T
   7   -277.2286580 -0.241218E-07  0.186E-04    0.68      42.6  T
     SCC iter.                  ...        0 min,  0.219 sec
     gradient                   ...        0 min,  0.090 sec
 * total energy  :  -272.7123940 Eh     change       -0.3957849E-03 Eh
   gradient norm :     0.0041468 Eh/α   predicted    -0.3704232E-03 (  -6.41%)
   displ. norm   :     0.8151859 α      lambda       -0.4257250E-03
   maximum displ.:     0.5311636 α      in ANC's #8, #5, #13, ...

........................................................................
.............................. CYCLE   41 ..............................
........................................................................
   1   -277.2263370 -0.277226E+03  0.610E-02    0.68       0.0  T
   2   -277.2263409 -0.388416E-05  0.352E-02    0.68       1.0  T
   3   -277.2263305  0.104628E-04  0.897E-03    0.68       1.0  T
   4   -277.2263430 -0.125758E-04  0.193E-03    0.68       4.1  T
   5   -277.2263431 -0.122002E-06  0.120E-03    0.68       6.6  T
   6   -277.2263433 -0.125176E-06  0.372E-04    0.68      21.3  T
   7   -277.2263433 -0.152465E-07  0.168E-04    0.68      47.1  T
     SCC iter.                  ...        0 min,  0.218 sec
     gradient                   ...        0 min,  0.091 sec
 * total energy  :  -272.7127883 Eh     change       -0.3942677E-03 Eh
   gradient norm :     0.0037000 Eh/α   predicted    -0.3543196E-03 ( -10.13%)
   displ. norm   :     0.8076038 α      lambda       -0.4390845E-03
   maximum displ.:     0.5308391 α      in ANC's #8, #5, #3, ...

........................................................................
.............................. CYCLE   42 ..............................
........................................................................
   1   -277.2272603 -0.277227E+03  0.601E-02    0.68       0.0  T
   2   -277.2272648 -0.444635E-05  0.344E-02    0.68       1.0  T
   3   -277.2272585  0.623261E-05  0.760E-03    0.68       1.0  T
   4   -277.2272669 -0.832721E-05  0.183E-03    0.68       4.3  T
   5   -277.2272669 -0.582957E-07  0.108E-03    0.68       7.3  T
   6   -277.2272670 -0.108678E-06  0.318E-04    0.68      24.8  T
   7   -277.2272670 -0.964889E-08  0.157E-04    0.68      50.3  T
     SCC iter.                  ...        0 min,  0.218 sec
     gradient                   ...        0 min,  0.090 sec
 * total energy  :  -272.7131964 Eh     change       -0.4081518E-03 Eh
   gradient norm :     0.0046180 Eh/α   predicted    -0.3627410E-03 ( -11.13%)
   displ. norm   :     0.8494465 α      lambda       -0.4790481E-03
   maximum displ.:     0.5613092 α      in ANC's #8, #5, #6, ...
 * RMSD in coord.:     0.9230773 α      energy gain  -0.6508383E-02 Eh

generating ANC from model Hessian ...
Using Lindh-Hessian (1995)
 Shifting diagonal of input Hessian by   1.127563786966408E-002
 Lowest  eigenvalues of input Hessian
    0.010000    0.011259    0.011267    0.011275    0.000000    0.000000
    0.000000    0.000000    0.000000    0.000000    0.011280    0.011285
    0.011295    0.011310    0.011328    0.011355    0.011413    0.011434
 Highest eigenvalues
    2.299484    2.304785    2.608570    2.611252    2.655940    2.656182
 

........................................................................
.............................. CYCLE   43 ..............................
........................................................................
   1   -277.2287493 -0.277229E+03  0.600E-02    0.68       0.0  T
   2   -277.2287537 -0.440178E-05  0.344E-02    0.68       1.0  T
   3   -277.2287479  0.578479E-05  0.704E-03    0.68       1.1  T
   4   -277.2287554 -0.752169E-05  0.190E-03    0.68       4.2  T
   5   -277.2287556 -0.183744E-06  0.108E-03    0.68       7.3  T
   6   -277.2287557 -0.100277E-06  0.367E-04    0.68      21.6  T
   7   -277.2287557 -0.146291E-07  0.147E-04    0.68      53.6  T
     SCC iter.                  ...        0 min,  0.218 sec
     gradient                   ...        0 min,  0.095 sec
 * total energy  :  -272.7136365 Eh     change       -0.4400528E-03 Eh
   gradient norm :     0.0044871 Eh/α   predicted     0.0000000E+00 (-100.00%)
   displ. norm   :     0.0643669 α      lambda       -0.6328739E-04
   maximum displ.:     0.0312818 α      in ANC's #6, #8, #2, ...

........................................................................
.............................. CYCLE   44 ..............................
........................................................................
   1   -277.2294599 -0.277229E+03  0.206E-02    0.68       0.0  T
   2   -277.2294607 -0.734617E-06  0.115E-02    0.68       1.0  T
   3   -277.2294597  0.912248E-06  0.270E-03    0.68       2.9  T
   4   -277.2294610 -0.122465E-05  0.635E-04    0.68      12.4  T
   5   -277.2294610 -0.255297E-07  0.343E-04    0.68      23.1  T
   6   -277.2294610 -0.712487E-08  0.140E-04    0.68      56.4  T
     SCC iter.                  ...        0 min,  0.188 sec
     gradient                   ...        0 min,  0.091 sec
 * total energy  :  -272.7136991 Eh     change       -0.6260727E-04 Eh
   gradient norm :     0.0025081 Eh/α   predicted    -0.4256203E-04 ( -32.02%)
   displ. norm   :     0.2470750 α      lambda       -0.2370553E-03
   maximum displ.:     0.1264233 α      in ANC's #6, #8, #2, ...

........................................................................
.............................. CYCLE   45 ..............................
........................................................................
   1   -277.2318591 -0.277232E+03  0.415E-02    0.68       0.0  T
   2   -277.2318616 -0.255992E-05  0.239E-02    0.68       1.0  T
   3   -277.2318509  0.107681E-04  0.894E-03    0.68       1.0  T
   4   -277.2318632 -0.123718E-04  0.168E-03    0.68       4.7  T
   5   -277.2318635 -0.253168E-06  0.851E-04    0.68       9.3  T
   6   -277.2318635 -0.460063E-07  0.344E-04    0.68      23.0  T
     SCC iter.                  ...        0 min,  0.187 sec
     gradient                   ...        0 min,  0.090 sec
 * total energy  :  -272.7138020 Eh     change       -0.1028960E-03 Eh
   gradient norm :     0.0089182 Eh/α   predicted    -0.1257676E-03 (  22.23%)
   displ. norm   :     0.2202838 α      lambda       -0.2130959E-03
   maximum displ.:     0.1193195 α      in ANC's #6, #8, #2, ...

........................................................................
.............................. CYCLE   46 ..............................
........................................................................
   1   -277.2322790 -0.277232E+03  0.615E-02    0.68       0.0  T
   2   -277.2322861 -0.711178E-05  0.343E-02    0.68       1.0  T
   3   -277.2322773  0.883498E-05  0.829E-03    0.68       1.0  T
   4   -277.2322894 -0.121637E-04  0.184E-03    0.68       4.3  T
   5   -277.2322896 -0.207375E-06  0.106E-03    0.68       7.4  T
   6   -277.2322897 -0.775383E-07  0.320E-04    0.68      24.7  T
   7   -277.2322897 -0.100530E-07  0.144E-04    0.68      55.1  T
     SCC iter.                  ...        0 min,  0.219 sec
     gradient                   ...        0 min,  0.091 sec
 * total energy  :  -272.7138254 Eh     change       -0.2345463E-04 Eh
   gradient norm :     0.0088940 Eh/α   predicted    -0.1117186E-03 ( 376.32%)
   displ. norm   :     0.1185405 α      lambda       -0.2703327E-03
   maximum displ.:     0.0611560 α      in ANC's #6, #8, #77, ...

........................................................................
.............................. CYCLE   47 ..............................
........................................................................
   1   -277.2324272 -0.277232E+03  0.417E-02    0.68       0.0  T
   2   -277.2324315 -0.429278E-05  0.232E-02    0.68       1.0  T
   3   -277.2324275  0.404275E-05  0.605E-03    0.68       1.3  T
   4   -277.2324334 -0.591612E-05  0.118E-03    0.68       6.7  T
   5   -277.2324335 -0.882690E-07  0.621E-04    0.68      12.7  T
   6   -277.2324335 -0.198544E-07  0.293E-04    0.68      26.9  T
     SCC iter.                  ...        0 min,  0.188 sec
     gradient                   ...        0 min,  0.090 sec
 * total energy  :  -272.7139747 Eh     change       -0.1492389E-03 Eh
   gradient norm :     0.0050243 Eh/α   predicted    -0.1370699E-03 (  -8.15%)
   displ. norm   :     0.1418721 α      lambda       -0.1248409E-03
   maximum displ.:     0.0822906 α      in ANC's #6, #8, #2, ...

........................................................................
.............................. CYCLE   48 ..............................
........................................................................
   1   -277.2321238 -0.277232E+03  0.181E-02    0.68       0.0  T
   2   -277.2321243 -0.496171E-06  0.104E-02    0.68       1.0  T
   3   -277.2321226  0.171281E-05  0.333E-03    0.68       2.4  T
   4   -277.2321245 -0.196536E-05  0.703E-04    0.68      11.2  T
   5   -277.2321246 -0.471671E-07  0.333E-04    0.68      23.7  T
   6   -277.2321246 -0.510767E-08  0.151E-04    0.68      52.2  T
     SCC iter.                  ...        0 min,  0.188 sec
     gradient                   ...        0 min,  0.090 sec
 * total energy  :  -272.7140744 Eh     change       -0.9970804E-04 Eh
   gradient norm :     0.0032526 Eh/α   predicted    -0.6367748E-04 ( -36.14%)
   displ. norm   :     0.3345431 α      lambda       -0.1993367E-03
   maximum displ.:     0.1967944 α      in ANC's #6, #8, #2, ...

........................................................................
.............................. CYCLE   49 ..............................
........................................................................
   1   -277.2316780 -0.277232E+03  0.352E-02    0.68       0.0  T
   2   -277.2316795 -0.146674E-05  0.204E-02    0.68       1.0  T
   3   -277.2316717  0.781820E-05  0.688E-03    0.68       1.1  T
   4   -277.2316805 -0.881703E-05  0.127E-03    0.68       6.2  T
   5   -277.2316806 -0.156538E-06  0.616E-04    0.68      12.8  T
   6   -277.2316806 -0.194336E-07  0.254E-04    0.68      31.1  T
     SCC iter.                  ...        0 min,  0.189 sec
     gradient                   ...        0 min,  0.093 sec
 * total energy  :  -272.7142274 Eh     change       -0.1530713E-03 Eh
   gradient norm :     0.0039566 Eh/α   predicted    -0.1108267E-03 ( -27.60%)
   displ. norm   :     0.4592372 α      lambda       -0.2332646E-03
   maximum displ.:     0.2662788 α      in ANC's #6, #8, #2, ...

........................................................................
.............................. CYCLE   50 ..............................
........................................................................
   1   -277.2311550 -0.277231E+03  0.498E-02    0.67       0.0  T
   2   -277.2311579 -0.287602E-05  0.285E-02    0.67       1.0  T
   3   -277.2311447  0.132234E-04  0.909E-03    0.68       1.0  T
   4   -277.2311599 -0.152147E-04  0.166E-03    0.68       4.8  T
   5   -277.2311601 -0.205650E-06  0.892E-04    0.67       8.9  T
   6   -277.2311602 -0.459344E-07  0.320E-04    0.68      24.7  T
     SCC iter.                  ...        0 min,  0.189 sec
     gradient                   ...        0 min,  0.090 sec
 * total energy  :  -272.7143986 Eh     change       -0.1711590E-03 Eh
   gradient norm :     0.0055790 Eh/α   predicted    -0.1412351E-03 ( -17.48%)
   displ. norm   :     0.4817426 α      lambda       -0.2352466E-03
   maximum displ.:     0.2771080 α      in ANC's #6, #8, #2, ...

........................................................................
.............................. CYCLE   51 ..............................
........................................................................
   1   -277.2307534 -0.277231E+03  0.501E-02    0.67       0.0  T
   2   -277.2307563 -0.294944E-05  0.286E-02    0.67       1.0  T
   3   -277.2307453  0.110030E-04  0.828E-03    0.67       1.0  T
   4   -277.2307582 -0.128966E-04  0.161E-03    0.67       4.9  T
   5   -277.2307583 -0.146271E-06  0.921E-04    0.67       8.6  T
   6   -277.2307584 -0.571801E-07  0.283E-04    0.67      27.9  T
     SCC iter.                  ...        0 min,  0.188 sec
     gradient                   ...        0 min,  0.091 sec
 * total energy  :  -272.7145988 Eh     change       -0.2002518E-03 Eh
   gradient norm :     0.0046255 Eh/α   predicted    -0.1449222E-03 ( -27.63%)
   displ. norm   :     0.5466146 α      lambda       -0.2700523E-03
   maximum displ.:     0.3160010 α      in ANC's #6, #8, #2, ...

........................................................................
.............................. CYCLE   52 ..............................
........................................................................
   1   -277.2317722 -0.277232E+03  0.545E-02    0.67       0.0  T
   2   -277.2317759 -0.364328E-05  0.311E-02    0.67       1.0  T
   3   -277.2317651  0.107635E-04  0.832E-03    0.67       1.0  T
   4   -277.2317781 -0.129487E-04  0.166E-03    0.67       4.8  T
   5   -277.2317782 -0.104510E-06  0.997E-04    0.67       7.9  T
   6   -277.2317782 -0.777933E-07  0.284E-04    0.67      27.8  T
     SCC iter.                  ...        0 min,  0.191 sec
     gradient                   ...        0 min,  0.090 sec
 * total energy  :  -272.7148024 Eh     change       -0.2035633E-03 Eh
   gradient norm :     0.0040577 Eh/α   predicted    -0.1753708E-03 ( -13.85%)
   displ. norm   :     0.6069391 α      lambda       -0.3584572E-03
   maximum displ.:     0.3560837 α      in ANC's #6, #8, #2, ...

........................................................................
.............................. CYCLE   53 ..............................
........................................................................
   1   -277.2328907 -0.277233E+03  0.731E-02    0.67       0.0  T
   2   -277.2328980 -0.738586E-05  0.410E-02    0.67       1.0  T
   3   -277.2328918  0.625136E-05  0.748E-03    0.67       1.1  T
   4   -277.2329013 -0.954538E-05  0.199E-03    0.67       4.0  T
   5   -277.2329014 -0.827349E-07  0.119E-03    0.67       6.6  T
   6   -277.2329016 -0.139436E-06  0.321E-04    0.67      24.6  T
   7   -277.2329016 -0.112963E-07  0.135E-04    0.67      58.6  T
     SCC iter.                  ...        0 min,  0.218 sec
     gradient                   ...        0 min,  0.090 sec
 * total energy  :  -272.7149933 Eh     change       -0.1908873E-03 Eh
   gradient norm :     0.0068098 Eh/α   predicted    -0.2452537E-03 (  28.48%)
   displ. norm   :     0.4666092 α      lambda       -0.2631310E-03
   maximum displ.:     0.2695863 α      in ANC's #6, #8, #2, ...

........................................................................
.............................. CYCLE   54 ..............................
........................................................................
   1   -277.2331377 -0.277233E+03  0.362E-02    0.67       0.0  T
   2   -277.2331392 -0.146377E-05  0.208E-02    0.67       1.0  T
   3   -277.2331353  0.386098E-05  0.489E-03    0.67       1.6  T
   4   -277.2331399 -0.459210E-05  0.113E-03    0.67       7.0  T
   5   -277.2331400 -0.648004E-07  0.627E-04    0.67      12.6  T
   6   -277.2331400 -0.314823E-07  0.212E-04    0.67      37.3  T
     SCC iter.                  ...        0 min,  0.188 sec
     gradient                   ...        0 min,  0.090 sec
 * total energy  :  -272.7152174 Eh     change       -0.2241204E-03 Eh
   gradient norm :     0.0047416 Eh/α   predicted    -0.1602107E-03 ( -28.52%)
   displ. norm   :     0.6217837 α      lambda       -0.3122970E-03
   maximum displ.:     0.3710907 α      in ANC's #6, #8, #2, ...

........................................................................
.............................. CYCLE   55 ..............................
........................................................................
   1   -277.2319867 -0.277232E+03  0.451E-02    0.67       0.0  T
   2   -277.2319887 -0.200611E-05  0.259E-02    0.67       1.0  T
   3   -277.2319858  0.292404E-05  0.468E-03    0.67       1.7  T
   4   -277.2319896 -0.375773E-05  0.138E-03    0.67       5.7  T
   5   -277.2319896 -0.760973E-07  0.758E-04    0.67      10.4  T
   6   -277.2319897 -0.522537E-07  0.270E-04    0.67      29.3  T
     SCC iter.                  ...        0 min,  0.194 sec
     gradient                   ...        0 min,  0.076 sec
 * total energy  :  -272.7154886 Eh     change       -0.2711863E-03 Eh
   gradient norm :     0.0038382 Eh/α   predicted    -0.2165207E-03 ( -20.16%)
   displ. norm   :     0.7006879 α      lambda       -0.3214694E-03
   maximum displ.:     0.4245127 α      in ANC's #6, #8, #2, ...

........................................................................
.............................. CYCLE   56 ..............................
........................................................................
   1   -277.2316491 -0.277232E+03  0.468E-02    0.67       0.0  T
   2   -277.2316510 -0.196997E-05  0.270E-02    0.67       1.0  T
   3   -277.2316466  0.439545E-05  0.555E-03    0.67       1.4  T
   4   -277.2316520 -0.532296E-05  0.146E-03    0.67       5.4  T
   5   -277.2316521 -0.882874E-07  0.815E-04    0.67       9.7  T
   6   -277.2316521 -0.608167E-07  0.285E-04    0.67      27.8  T
     SCC iter.                  ...        0 min,  0.189 sec
     gradient                   ...        0 min,  0.075 sec
 * total energy  :  -272.7157819 Eh     change       -0.2932507E-03 Eh
   gradient norm :     0.0048121 Eh/α   predicted    -0.2396550E-03 ( -18.28%)
   displ. norm   :     0.7186303 α      lambda       -0.3509628E-03
   maximum displ.:     0.4381081 α      in ANC's #6, #8, #2, ...

........................................................................
.............................. CYCLE   57 ..............................
........................................................................
   1   -277.2310916 -0.277231E+03  0.512E-02    0.67       0.0  T
   2   -277.2310945 -0.286446E-05  0.295E-02    0.67       1.0  T
   3   -277.2310837  0.107792E-04  0.845E-03    0.67       1.0  T
   4   -277.2310961 -0.124537E-04  0.177E-03    0.67       4.5  T
   5   -277.2310963 -0.200090E-06  0.998E-04    0.67       7.9  T
   6   -277.2310964 -0.823139E-07  0.338E-04    0.67      23.4  T
     SCC iter.                  ...        0 min,  0.189 sec
     gradient                   ...        0 min,  0.075 sec
 * total energy  :  -272.7161071 Eh     change       -0.3252772E-03 Eh
   gradient norm :     0.0048914 Eh/α   predicted    -0.2661059E-03 ( -18.19%)
   displ. norm   :     0.6794177 α      lambda       -0.3667526E-03
   maximum displ.:     0.4065719 α      in ANC's #6, #8, #2, ...

........................................................................
.............................. CYCLE   58 ..............................
........................................................................
   1   -277.2315407 -0.277232E+03  0.535E-02    0.67       0.0  T
   2   -277.2315446 -0.386664E-05  0.309E-02    0.67       1.0  T
   3   -277.2315271  0.174493E-04  0.108E-02    0.67       1.0  T
   4   -277.2315470 -0.198968E-04  0.202E-03    0.67       3.9  T
   5   -277.2315474 -0.401978E-06  0.104E-03    0.67       7.6  T
   6   -277.2315475 -0.761948E-07  0.377E-04    0.67      20.9  T
   7   -277.2315475 -0.119513E-07  0.166E-04    0.67      47.6  T
     SCC iter.                  ...        0 min,  0.222 sec
     gradient                   ...        0 min,  0.075 sec
 * total energy  :  -272.7164438 Eh     change       -0.3366204E-03 Eh
   gradient norm :     0.0050431 Eh/α   predicted    -0.2680278E-03 ( -20.38%)
   displ. norm   :     0.7390186 α      lambda       -0.3964363E-03
   maximum displ.:     0.4391012 α      in ANC's #6, #8, #2, ...

........................................................................
.............................. CYCLE   59 ..............................
........................................................................
   1   -277.2297247 -0.277230E+03  0.625E-02    0.67       0.0  T
   2   -277.2297305 -0.583699E-05  0.361E-02    0.68       1.0  T
   3   -277.2297030  0.275295E-04  0.134E-02    0.67       1.0  T
   4   -277.2297343 -0.313301E-04  0.244E-03    0.68       3.2  T
   5   -277.2297349 -0.600001E-06  0.124E-03    0.68       6.4  T
   6   -277.2297350 -0.988841E-07  0.478E-04    0.68      16.6  T
   7   -277.2297351 -0.186014E-07  0.209E-04    0.68      37.8  T
     SCC iter.                  ...        0 min,  0.228 sec
     gradient                   ...        0 min,  0.076 sec
 * total energy  :  -272.7168012 Eh     change       -0.3573972E-03 Eh
   gradient norm :     0.0059639 Eh/α   predicted    -0.3064762E-03 ( -14.25%)
   displ. norm   :     0.7966438 α      lambda       -0.4041301E-03
   maximum displ.:     0.4745228 α      in ANC's #6, #8, #5, ...

........................................................................
.............................. CYCLE   60 ..............................
........................................................................
   1   -277.2302720 -0.277230E+03  0.638E-02    0.68       0.0  T
   2   -277.2302782 -0.615314E-05  0.369E-02    0.68       1.0  T
   3   -277.2302536  0.245516E-04  0.130E-02    0.68       1.0  T
   4   -277.2302817 -0.281157E-04  0.238E-03    0.68       3.3  T
   5   -277.2302824 -0.627432E-06  0.120E-03    0.68       6.6  T
   6   -277.2302825 -0.953634E-07  0.464E-04    0.68      17.0  T
   7   -277.2302825 -0.190605E-07  0.186E-04    0.68      42.4  T
     SCC iter.                  ...        0 min,  0.218 sec
     gradient                   ...        0 min,  0.076 sec
 * total energy  :  -272.7171584 Eh     change       -0.3572223E-03 Eh
   gradient norm :     0.0041042 Eh/α   predicted    -0.3303093E-03 (  -7.53%)
   displ. norm   :     0.8189361 α      lambda       -0.3840967E-03
   maximum displ.:     0.4961597 α      in ANC's #6, #8, #2, ...

........................................................................
.............................. CYCLE   61 ..............................
........................................................................
   1   -277.2290949 -0.277229E+03  0.645E-02    0.68       0.0  T
   2   -277.2291008 -0.582807E-05  0.371E-02    0.68       1.0  T
   3   -277.2290780  0.227945E-04  0.124E-02    0.68       1.0  T
   4   -277.2291043 -0.263265E-04  0.231E-03    0.68       3.4  T
   5   -277.2291047 -0.408357E-06  0.129E-03    0.68       6.1  T
   6   -277.2291048 -0.111906E-06  0.482E-04    0.68      16.4  T
   7   -277.2291048 -0.213744E-07  0.206E-04    0.68      38.4  T
     SCC iter.                  ...        0 min,  0.223 sec
     gradient                   ...        0 min,  0.076 sec
 * total energy  :  -272.7175001 Eh     change       -0.3417172E-03 Eh
   gradient norm :     0.0052812 Eh/α   predicted    -0.3208530E-03 (  -6.11%)
[...]
                           133 H    0.984
    66   6 C    3.969 --    67 C    1.010    61 N    0.981   135 H    0.961
                           134 H    0.956
    67   6 C    3.990 --    66 C    1.010   138 H    0.987   136 H    0.984
                           137 H    0.983
    68   6 C    3.966 --    69 C    1.008    58 N    0.984   140 H    0.963
                           139 H    0.956
    69   6 C    3.989 --    68 C    1.008   141 H    0.987   142 H    0.984
                           143 H    0.982
    70   6 C    3.961 --    79 C    1.370    71 C    1.323    54 C    1.117
    71   6 C    3.976 --    72 C    1.470    70 C    1.323   144 H    0.957
    72   6 C    3.979 --    71 C    1.470    77 C    1.279    73 C    1.005
    73   6 C    3.926 --    74 O    1.814    75 C    1.006    72 C    1.005
    74   8 O    2.082 --    73 C    1.814
    75   6 C    3.980 --    83 C    1.466    76 C    1.280    73 C    1.006
    76   6 C    3.973 --    80 C    1.414    75 C    1.280    77 C    1.073
    77   6 C    3.967 --    78 C    1.414    72 C    1.279    76 C    1.073
    78   6 C    3.974 --    79 C    1.430    77 C    1.414   145 H    0.967
    79   6 C    3.975 --    78 C    1.430    70 C    1.370   146 H    0.963
    80   6 C    3.972 --    81 C    1.428    76 C    1.414   147 H    0.967
    81   6 C    3.969 --    80 C    1.428    82 C    1.372   148 H    0.967
    82   6 C    3.964 --    81 C    1.372    83 C    1.324    84 C    1.117
    83   6 C    3.975 --    75 C    1.466    82 C    1.324   149 H    0.965
    84   6 C    3.949 --    85 C    1.658    82 C    1.117   150 H    0.947
    85   6 C    3.971 --    84 C    1.658    94 C    1.101    86 C    1.002
    86   6 C    3.930 --    87 O    1.781    88 C    1.029    85 C    1.002
    87   8 O    2.071 --    86 C    1.781
    88   6 C    3.974 --    89 C    1.376    93 C    1.305    86 C    1.029
    89   6 C    3.984 --    90 C    1.449    88 C    1.376   151 H    0.963
    90   6 C    3.957 --    89 C    1.449    91 C    1.320   106 C    0.996
    91   6 C    3.968 --    92 C    1.457    90 C    1.320   100 C    0.997
    92   6 C    3.980 --    91 C    1.457    93 C    1.358   152 H    0.959
    93   6 C    3.982 --    92 C    1.358    88 C    1.305    94 C    1.098
    94   6 C    3.978 --    95 C    1.509    85 C    1.101    93 C    1.098
    95   6 C    3.966 --    94 C    1.509    98 C    1.094    96 C    1.092
    96   6 C    3.947 --    97 N    2.771    95 C    1.092
    97   7 N    2.977 --    96 C    2.771
    98   6 C    3.946 --    99 N    2.771    95 C    1.094
    99   7 N    2.977 --    98 C    2.771
   100   6 C    3.985 --    91 C    0.997   106 C    0.978   153 H    0.960
                           101 C    0.947
   101   6 C    3.989 --   102 C    1.010   105 C    0.985   154 H    0.972
                           100 C    0.947
   102   6 C    3.987 --   103 C    1.925   101 C    1.010   155 H    0.971
   103   6 C    3.987 --   102 C    1.925   104 C    1.010   156 H    0.971
   104   6 C    3.989 --   103 C    1.010   105 C    0.985   157 H    0.972
                           106 C    0.947
   105   6 C    3.993 --   101 C    0.985   104 C    0.985   159 H    0.978
                           158 H    0.976
   106   6 C    3.984 --    90 C    0.996   100 C    0.978   160 H    0.960
                           104 C    0.947
   107   1 H    0.994 --     1 C    0.944
   108   1 H    0.996 --     6 C    0.963
   109   1 H    0.996 --     9 C    0.958
   110   1 H    0.997 --    17 C    0.962
   111   1 H    0.998 --    18 C    0.971
   112   1 H    0.998 --    19 C    0.971
   113   1 H    0.998 --    20 C    0.971
   114   1 H    0.999 --    21 C    0.971
   115   1 H    0.999 --    22 C    0.974
   116   1 H    0.998 --    22 C    0.978
   117   1 H    0.996 --    23 C    0.961
   118   1 H    0.995 --    25 C    0.963
   119   1 H    0.997 --    32 C    0.967
   120   1 H    0.997 --    33 C    0.969
   121   1 H    0.997 --    34 C    0.967
   122   1 H    0.997 --    35 C    0.965
   123   1 H    0.996 --    37 C    0.959
   124   1 H    0.996 --    52 C    0.967
   125   1 H    0.998 --    52 C    0.969
   126   1 H    0.999 --    53 C    0.985
   127   1 H    0.998 --    53 C    0.987
   128   1 H    0.997 --    53 C    0.986
   129   1 H    0.997 --    64 C    0.969
   130   1 H    0.998 --    64 C    0.957
   131   1 H    0.997 --    65 C    0.986
   132   1 H    0.999 --    65 C    0.986
   133   1 H    0.998 --    65 C    0.984
   134   1 H    0.996 --    66 C    0.956
   135   1 H    0.995 --    66 C    0.961
   136   1 H    0.997 --    67 C    0.984
   137   1 H    0.997 --    67 C    0.983
   138   1 H    0.998 --    67 C    0.987
   139   1 H    0.995 --    68 C    0.956
   140   1 H    0.995 --    68 C    0.963
   141   1 H    0.997 --    69 C    0.987
   142   1 H    0.996 --    69 C    0.984
   143   1 H    0.997 --    69 C    0.982
   144   1 H    0.996 --    71 C    0.957
   145   1 H    0.997 --    78 C    0.967
   146   1 H    0.997 --    79 C    0.963
   147   1 H    0.997 --    80 C    0.967
   148   1 H    0.995 --    81 C    0.967
   149   1 H    0.996 --    83 C    0.965
   150   1 H    0.994 --    84 C    0.947
   151   1 H    0.996 --    89 C    0.963
   152   1 H    0.996 --    92 C    0.959
   153   1 H    0.997 --   100 C    0.960
   154   1 H    0.998 --   101 C    0.972
   155   1 H    0.999 --   102 C    0.971
   156   1 H    0.999 --   103 C    0.971
   157   1 H    0.998 --   104 C    0.972
   158   1 H    0.996 --   105 C    0.976
   159   1 H    0.998 --   105 C    0.978
   160   1 H    0.996 --   106 C    0.960
 ---------------------------------------------------------------------------

Topologies differ in bond orders
Writing corrected topology to xtbtopo.mol

molecular dipole:
                 x           y           z       tot (Debye)
 q only:        1.161      -0.499      -2.137
   full:        1.451      -0.717      -2.304       7.156
molecular quadrupole (traceless):
                xx          xy          yy          xz          yz          zz
 q only:      132.556      21.549    -115.721       4.066      12.807     -16.836
  q+dip:      150.942      24.718    -137.757       8.467      18.665     -13.185
   full:      154.062      32.587    -138.530       0.916      16.205     -15.532

           -------------------------------------------------
          |                Geometry Summary                 |
           -------------------------------------------------

      molecular mass/u    :     1439.7054265
   center of mass at/Å    :       -0.2457733       0.2286132       0.0476809
  moments of inertia/u·Å² :        0.4294392E+05   0.1679936E+06   0.2005962E+06
rotational constants/cm⁻¹ :        0.3925499E-03   0.1003469E-03   0.8403763E-04

 * 152 selected distances

     #   Z          #   Z                                           value/Å
     1   6 C        2   6 C                                       1.3547656
     3   6 C        4   8 O                                       1.2106013
     5   6 C        6   6 C                                       1.3941786
     6   6 C        7   6 C                                       1.3731371
     7   6 C        8   6 C                                       1.4025950
     8   6 C        9   6 C                                       1.3737451
     5   6 C       10   6 C                                       1.4093869
     9   6 C       10   6 C                                       1.4003350
    11   6 C       12   6 C                                       1.3690383
    13   6 C       14   7 N                                       1.1483233
    15   6 C       16   7 N                                       1.1479399
     8   6 C       17   6 C                                       1.5084369
    17   6 C       18   6 C                                       1.5436274
    19   6 C       20   6 C                                       1.3269249
    18   6 C       22   6 C                                       1.5341896
    21   6 C       22   6 C                                       1.5340960
     7   6 C       23   6 C                                       1.5080362
    17   6 C       23   6 C                                       1.5624242
    21   6 C       23   6 C                                       1.5434381
    24   6 C       25   6 C                                       1.4049864
    25   6 C       26   6 C                                       1.3724604
    27   6 C       28   8 O                                       1.2077383
    29   6 C       30   6 C                                       1.4082539
    26   6 C       31   6 C                                       1.4108461
    31   6 C       32   6 C                                       1.3829860
    24   6 C       33   6 C                                       1.3994988
    32   6 C       33   6 C                                       1.3861536
    30   6 C       34   6 C                                       1.3825722
    34   6 C       35   6 C                                       1.3868139
    35   6 C       36   6 C                                       1.3979723
    29   6 C       37   6 C                                       1.3740797
    36   6 C       37   6 C                                       1.4037188
    39  16 S       40   6 C                                       1.7114558
    40   6 C       41   6 C                                       1.4049841
    41   6 C       42   6 C                                       1.4107682
    42   6 C       43   6 C                                       1.4359949
    43   6 C       44   7 N                                       1.3234974
    44   7 N       45  16 S                                       1.6200615
    42   6 C       46   7 N                                       1.3237389
    45  16 S       46   7 N                                       1.6196165
    43   6 C       47   6 C                                       1.4119906
    47   6 C       48   6 C                                       1.4044152
    48   6 C       49  16 S                                       1.7317381
    49  16 S       50   6 C                                       1.7498100 (max)
    50   6 C       51   6 C                                       1.4099685
    52   6 C       53   6 C                                       1.5300005
    51   6 C       54   6 C                                       1.3774596
    50   6 C       56   6 C                                       1.3928472
    55  16 S       56   6 C                                       1.7239526
    48   6 C       57   6 C                                       1.3958879
    56   6 C       57   6 C                                       1.4018095
    57   6 C       58   7 N                                       1.3681286
    47   6 C       59   6 C                                       1.4229665
    58   7 N       59   6 C                                       1.3848557
    41   6 C       60   6 C                                       1.4169113
    59   6 C       60   6 C                                       1.4198786
    60   6 C       61   7 N                                       1.3904535
    40   6 C       62   6 C                                       1.3947533
    61   7 N       62   6 C                                       1.3830403
    38   6 C       63   6 C                                       1.3787761
    62   6 C       63   6 C                                       1.4182739
    64   6 C       65   6 C                                       1.5295988
    61   7 N       66   6 C                                       1.4496303
    66   6 C       67   6 C                                       1.5266933
    58   7 N       68   6 C                                       1.4447539
    68   6 C       69   6 C                                       1.5262759
    70   6 C       71   6 C                                       1.4065128
    71   6 C       72   6 C                                       1.3713115
    73   6 C       74   8 O                                       1.2081207
    75   6 C       76   6 C                                       1.4109856
    72   6 C       77   6 C                                       1.4093799
    77   6 C       78   6 C                                       1.3814872
    70   6 C       79   6 C                                       1.3986734
    78   6 C       79   6 C                                       1.3886032
    76   6 C       80   6 C                                       1.3822010
    80   6 C       81   6 C                                       1.3876526
    81   6 C       82   6 C                                       1.3967381
    75   6 C       83   6 C                                       1.3729218
    82   6 C       83   6 C                                       1.4045061
    84   6 C       85   6 C                                       1.3516205
    86   6 C       87   8 O                                       1.2101798
    88   6 C       89   6 C                                       1.3937871
    89   6 C       90   6 C                                       1.3737534
    90   6 C       91   6 C                                       1.4026443
    91   6 C       92   6 C                                       1.3736954
    88   6 C       93   6 C                                       1.4105959
    92   6 C       93   6 C                                       1.3985586
    94   6 C       95   6 C                                       1.3667951
    96   6 C       97   7 N                                       1.1476805
    98   6 C       99   7 N                                       1.1476528
    91   6 C      100   6 C                                       1.5077726
   100   6 C      101   6 C                                       1.5482631
   102   6 C      103   6 C                                       1.3262645
   101   6 C      105   6 C                                       1.5369449
   104   6 C      105   6 C                                       1.5371149
    90   6 C      106   6 C                                       1.5078267
   100   6 C      106   6 C                                       1.5612527
   104   6 C      106   6 C                                       1.5489670
     1   6 C      107   1 H                                       1.0833220
     6   6 C      108   1 H                                       1.0786658
     9   6 C      109   1 H                                       1.0770298
    17   6 C      110   1 H                                       1.0881752
    18   6 C      111   1 H                                       1.0864675
    19   6 C      112   1 H                                       1.0741284 (min)
    20   6 C      113   1 H                                       1.0742070
    21   6 C      114   1 H                                       1.0865850
    22   6 C      115   1 H                                       1.0885220
    22   6 C      116   1 H                                       1.0886685
    23   6 C      117   1 H                                       1.0882507
    25   6 C      118   1 H                                       1.0777329
    32   6 C      119   1 H                                       1.0794808
    33   6 C      120   1 H                                       1.0808266
    34   6 C      121   1 H                                       1.0794898
    35   6 C      122   1 H                                       1.0803010
    37   6 C      123   1 H                                       1.0774496
    52   6 C      124   1 H                                       1.0929163
    52   6 C      125   1 H                                       1.0906706
    53   6 C      126   1 H                                       1.0882937
    53   6 C      127   1 H                                       1.0873221
    53   6 C      128   1 H                                       1.0871009
    64   6 C      129   1 H                                       1.0902728
    64   6 C      130   1 H                                       1.0939062
    65   6 C      131   1 H                                       1.0873175
    65   6 C      132   1 H                                       1.0871145
    65   6 C      133   1 H                                       1.0874543
    66   6 C      134   1 H                                       1.0925796
    66   6 C      135   1 H                                       1.0882397
    67   6 C      136   1 H                                       1.0872177
    67   6 C      137   1 H                                       1.0866735
    67   6 C      138   1 H                                       1.0879219
    68   6 C      139   1 H                                       1.0911678
    68   6 C      140   1 H                                       1.0928001
    69   6 C      141   1 H                                       1.0874685
    69   6 C      142   1 H                                       1.0867665
    69   6 C      143   1 H                                       1.0870499
    71   6 C      144   1 H                                       1.0800421
    78   6 C      145   1 H                                       1.0796816
    79   6 C      146   1 H                                       1.0772714
    80   6 C      147   1 H                                       1.0791886
    81   6 C      148   1 H                                       1.0781772
    83   6 C      149   1 H                                       1.0800966
    84   6 C      150   1 H                                       1.0844583
    89   6 C      151   1 H                                       1.0787938
    92   6 C      152   1 H                                       1.0775140
   100   6 C      153   1 H                                       1.0880918
   101   6 C      154   1 H                                       1.0864928
   102   6 C      155   1 H                                       1.0741292
   103   6 C      156   1 H                                       1.0742448
   104   6 C      157   1 H                                       1.0867456
   105   6 C      158   1 H                                       1.0887488
   105   6 C      159   1 H                                       1.0891171
   106   6 C      160   1 H                                       1.0882783

 * 6 distinct bonds (by element types)

   Z      Z             #   av. dist./Å        max./Å        min./Å
   1 H    6 C          54     1.0844561     1.0939062     1.0741284
   6 C    6 C          76     1.4252076     1.5624242     1.3262645
   6 C    7 N          12     1.3049746     1.4496303     1.1476528
   6 C    8 O           4     1.2091600     1.2106013     1.2077383
   6 C   16 S           4     1.7292391     1.7498100     1.7114558
   7 N   16 S           2     1.6198390     1.6200615     1.6196165


optimized geometry written to: xtbopt.mol


           -------------------------------------------------
          | TOTAL ENERGY             -272.752045138904 Eh   |
          | GRADIENT NORM               0.000547770959 Eh/α |
          | HOMO-LUMO GAP               0.782371697426 eV   |
           -------------------------------------------------

------------------------------------------------------------------------
 * finished run on 2022/02/18 at 02:05:26.146     
------------------------------------------------------------------------
 total:
 * wall-time:     0 d,  0 h,  2 min, 25.648 sec
 *  cpu-time:     0 d,  0 h, 16 min, 59.354 sec
 * ratio c/w:     6.999 speedup
 SCF:
 * wall-time:     0 d,  0 h,  0 min,  0.536 sec
 *  cpu-time:     0 d,  0 h,  0 min,  3.746 sec
 * ratio c/w:     6.986 speedup
 ANC optimizer:
 * wall-time:     0 d,  0 h,  2 min, 25.013 sec
 *  cpu-time:     0 d,  0 h, 16 min, 55.031 sec
 * ratio c/w:     7.000 speedup

