      -----------------------------------------------------------      
     |                   =====================                   |     
     |                           x T B                           |     
     |                   =====================                   |     
     |                         S. Grimme                         |     
     |          Mulliken Center for Theoretical Chemistry        |     
     |                    University of Bonn                     |     
      -----------------------------------------------------------      

   * xtb version 6.4.1 (unknown) compiled by 'oda6@login1.crc.pitt.edu' on 2021-06-25

   xtb is free software: you can redistribute it and/or modify it under
   the terms of the GNU Lesser General Public License as published by
   the Free Software Foundation, either version 3 of the License, or
   (at your option) any later version.
   
   xtb is distributed in the hope that it will be useful,
   but WITHOUT ANY WARRANTY; without even the implied warranty of
   MERCHANTABILITY or FITNESS FOR A PARTICULAR PURPOSE.  See the
   GNU Lesser General Public License for more details.
   
   Cite this work as:
   * C. Bannwarth, E. Caldeweyher, S. Ehlert, A. Hansen, P. Pracht,
     J. Seibert, S. Spicher, S. Grimme, WIREs Comput. Mol. Sci., 2020, 11,
     e01493. DOI: 10.1002/wcms.1493
   
   for GFN2-xTB:
   * C. Bannwarth, S. Ehlert and S. Grimme., J. Chem. Theory Comput., 2019,
     15, 1652-1671. DOI: 10.1021/acs.jctc.8b01176
   for GFN1-xTB:
   * S. Grimme, C. Bannwarth, P. Shushkov, J. Chem. Theory Comput., 2017,
     13, 1989-2009. DOI: 10.1021/acs.jctc.7b00118
   for GFN0-xTB:
   * P. Pracht, E. Caldeweyher, S. Ehlert, S. Grimme, ChemRxiv, 2019, preprint.
     DOI: 10.26434/chemrxiv.8326202.v1
   for GFN-FF:
   * S. Spicher and S. Grimme, Angew. Chem. Int. Ed., 2020, 59, 15665-15673.
     DOI: 10.1002/anie.202004239
   
   for DFT-D4:
   * E. Caldeweyher, C. Bannwarth and S. Grimme, J. Chem. Phys., 2017,
     147, 034112. DOI: 10.1063/1.4993215
   * E. Caldeweyher, S. Ehlert, A. Hansen, H. Neugebauer, S. Spicher,
     C. Bannwarth and S. Grimme, J. Chem. Phys., 2019, 150, 154122.
     DOI: 10.1063/1.5090222
   * E. Caldeweyher, J.-M. Mewes, S. Ehlert and S. Grimme, Phys. Chem. Chem. Phys.
     2020, 22, 8499-8512. DOI: 10.1039/D0CP00502A
   
   for sTDA-xTB:
   * S. Grimme and C. Bannwarth, J. Chem. Phys., 2016, 145, 054103.
     DOI: 10.1063/1.4959605
   
   in the mass-spec context:
   * V. Asgeirsson, C. Bauer and S. Grimme, Chem. Sci., 2017, 8, 4879.
     DOI: 10.1039/c7sc00601b
   * J. Koopman and S. Grimme, ACS Omega 2019, 4, 12, 15120-15133.
     DOI: 10.1021/acsomega.9b02011
   
   for metadynamics refer to:
   * S. Grimme, J. Chem. Theory Comput., 2019, 155, 2847-2862
     DOI: 10.1021/acs.jctc.9b00143
   
   for SPH calculations refer to:
   * S. Spicher and S. Grimme, J. Chem. Theory Comput., 2021, 17, 1701-1714
     DOI: 10.1021/acs.jctc.0c01306
   
   with help from (in alphabetical order)
   P. Atkinson, C. Bannwarth, F. Bohle, G. Brandenburg, E. Caldeweyher
   M. Checinski, S. Dohm, S. Ehlert, S. Ehrlich, I. Gerasimov, J. Koopman
   C. Lavigne, S. Lehtola, F. März, M. Müller, F. Musil, H. Neugebauer
   J. Pisarek, C. Plett, P. Pracht, J. Seibert, P. Shushkov, S. Spicher
   M. Stahn, M. Steiner, T. Strunk, J. Stückrath, T. Rose, and J. Unsleber
   
 * started run on 2022/02/13 at 00:57:52.655     

           -------------------------------------------------
          |                Calculation Setup                |
           -------------------------------------------------

          program call               : /ihome/ghutchison/oda6/xtb/xtb-641/bin/xtb ../../FF_optimized/39_50_86_153_48.mol -opt
          hostname                   : smp-n25
          coordinate file            : ../../FF_optimized/39_50_86_153_48.mol
          omp threads                :                     8
          number of atoms            :                   178
          number of electrons        :                   552
          charge                     :                     0
          spin                       :                   0.0
          first test random number   :      0.96945899557509

   ID    Z sym.   atoms
    1    6 C      1-3, 5-13, 15, 17-26, 28-30, 32-42, 44-47, 51, 52, 54-64,
                  66, 67, 69, 70, 72, 73, 75-79, 81-83, 85-88, 90-94, 96-101,
                  104-106, 108-113
    2    8 O      4, 84, 95, 102, 107
    3    7 N      14, 16, 48, 50, 68, 71, 103
    4   16 S      27, 31, 43, 49, 53, 65, 74, 80, 89
    5    1 H      114-178
########################################################################
[WARNING] Please study the warnings concerning your input carefully
-1- prog_main_parseArguments: the use of '-opt' is discouraged, please use '--opt' next time
########################################################################

           -------------------------------------------------
          |                 G F N 2 - x T B                 |
           -------------------------------------------------

        Reference                      10.1021/acs.jctc.8b01176
      * Hamiltonian:
        H0-scaling (s, p, d)           1.850000    2.230000    2.230000
        zeta-weighting                 0.500000
      * Dispersion:
        s8                             2.700000
        a1                             0.520000
        a2                             5.000000
        s9                             5.000000
      * Repulsion:
        kExp                           1.500000    1.000000
        rExp                           1.000000
      * Coulomb:
        alpha                          2.000000
        third order                    shell-resolved
        anisotropic                    true
        a3                             3.000000
        a5                             4.000000
        cn-shift                       1.200000
        cn-exp                         4.000000
        max-rad                        5.000000


          ...................................................
          :                      SETUP                      :
          :.................................................:
          :  # basis functions                 571          :
          :  # atomic orbitals                 562          :
          :  # shells                          300          :
          :  # electrons                       552          :
          :  max. iterations                   250          :
          :  Hamiltonian                  GFN2-xTB          :
          :  restarted?                      false          :
          :  GBSA solvation                  false          :
          :  PC potential                    false          :
          :  electronic temp.          300.0000000     K    :
          :  accuracy                    1.0000000          :
          :  -> integral cutoff          0.2500000E+02      :
          :  -> integral neglect         0.1000000E-07      :
          :  -> SCF convergence          0.1000000E-05 Eh   :
          :  -> wf. convergence          0.1000000E-03 e    :
          :  Broyden damping             0.4000000          :
          ...................................................

 iter      E             dE          RMSdq      gap      omega  full diag
   1   -303.8605259 -0.303861E+03  0.438E+00    1.11       0.0  T
   2   -304.2076576 -0.347132E+00  0.259E+00    0.65       1.0  T
   3   -304.1209702  0.866874E-01  0.162E+00    0.59       1.0  T
   4   -304.3291820 -0.208212E+00  0.693E-01    0.62       1.0  T
   5   -304.3923511 -0.631691E-01  0.218E-01    0.32       1.0  T
   6   -304.3962289 -0.387784E-02  0.118E-01    0.49       1.0  T
   7   -304.3979190 -0.169011E-02  0.453E-02    0.44       1.0  T
   8   -304.3981544 -0.235409E-03  0.204E-02    0.45       1.0  T
   9   -304.3981681 -0.136675E-04  0.121E-02    0.45       1.0  T
  10   -304.3981822 -0.140793E-04  0.567E-03    0.45       1.3  T
  11   -304.3981843 -0.211195E-05  0.269E-03    0.45       2.8  T
  12   -304.3981848 -0.504114E-06  0.156E-03    0.45       4.8  T
  13   -304.3981850 -0.178904E-06  0.662E-04    0.45      11.3  T
  14   -304.3981850 -0.215492E-07  0.341E-04    0.45      22.0  T

   *** convergence criteria satisfied after 14 iterations ***

         #    Occupation            Energy/Eh            Energy/eV
      -------------------------------------------------------------
         1        2.0000           -0.7611568             -20.7121
       ...           ...                  ...                  ...
       270        2.0000           -0.3899893             -10.6121
       271        2.0000           -0.3881788             -10.5629
       272        2.0000           -0.3749640             -10.2033
       273        2.0000           -0.3705187             -10.0823
       274        2.0000           -0.3629950              -9.8776
       275        2.0000           -0.3611678              -9.8279
       276        1.9996           -0.3545340              -9.6474 (HOMO)
       277        0.0004           -0.3381246              -9.2008 (LUMO)
       278                         -0.3262347              -8.8773
       279                         -0.3170802              -8.6282
       280                         -0.3121442              -8.4939
       281                         -0.2978764              -8.1056
       ...                                ...                  ...
       562                          1.0858126              29.5465
      -------------------------------------------------------------
                  HL-Gap            0.0164094 Eh            0.4465 eV
             Fermi-level           -0.3463288 Eh           -9.4241 eV

 SCC (total)                   0 d,  0 h,  0 min,  0.603 sec
 SCC setup                      ...        0 min,  0.002 sec (  0.297%)
 Dispersion                     ...        0 min,  0.007 sec (  1.104%)
 classical contributions        ...        0 min,  0.000 sec (  0.050%)
 integral evaluation            ...        0 min,  0.029 sec (  4.856%)
 iterations                     ...        0 min,  0.457 sec ( 75.825%)
 molecular gradient             ...        0 min,  0.105 sec ( 17.436%)
 printout                       ...        0 min,  0.003 sec (  0.419%)

         :::::::::::::::::::::::::::::::::::::::::::::::::::::
         ::                     SUMMARY                     ::
         :::::::::::::::::::::::::::::::::::::::::::::::::::::
         :: total energy            -300.048856810497 Eh    ::
         :: gradient norm              0.350926909055 Eh/a0 ::
         :: HOMO-LUMO gap              0.446522465079 eV    ::
         ::.................................................::
         :: SCC energy              -304.398184993473 Eh    ::
         :: -> isotropic ES            0.203815409765 Eh    ::
         :: -> anisotropic ES          0.019291970366 Eh    ::
         :: -> anisotropic XC          0.154198249680 Eh    ::
         :: -> dispersion             -0.291156203569 Eh    ::
         :: repulsion energy           4.342922304308 Eh    ::
         :: add. restraining           0.000000000000 Eh    ::
         :: total charge              -0.000000000000 e     ::
         :::::::::::::::::::::::::::::::::::::::::::::::::::::

      ----------------------------------------------------------- 
     |                   =====================                   |
     |                        A N C O P T                        |
     |                   =====================                   |
     |               Approximate Normal Coordinate               |
     |                Rational Function Optimizer                |
      ----------------------------------------------------------- 

          ...................................................
          :                      SETUP                      :
          :.................................................:
          :   optimization level            normal          :
          :   max. optcycles                   534          :
          :   ANC micro-cycles                  20          :
          :   degrees of freedom               528          :
          :.................................................:
          :   RF solver                   davidson          :
          :   write xtbopt.log                true          :
          :   linear?                        false          :
          :   energy convergence         0.5000000E-05 Eh   :
          :   grad. convergence          0.1000000E-02 Eh/α :
          :   maximium RF displ.         1.0000000          :
          :   Hlow (freq-cutoff)         0.1000000E-01      :
          :   Hmax (freq-cutoff)         5.0000000          :
          :   S6 in model hess.         20.0000000          :
          ...................................................

generating ANC from model Hessian ...
Using Lindh-Hessian (1995)
 Shifting diagonal of input Hessian by   1.000671088508558E-002
 Lowest  eigenvalues of input Hessian
    0.010000    0.000000    0.000000    0.000000    0.000000    0.000000
    0.000000    0.010007    0.010028    0.010039    0.010055    0.010075
    0.010097    0.010100    0.010156    0.010172    0.010200    0.010216
 Highest eigenvalues
    2.225428    2.229722    2.254105    2.266391    2.513640    2.564647
 

........................................................................
.............................. CYCLE    1 ..............................
........................................................................
   1   -304.3981850 -0.304398E+03  0.165E-04    0.45       0.0  T
   2   -304.3981850  0.223622E-09  0.140E-04    0.45      53.4  T
   3   -304.3981850 -0.321018E-08  0.689E-05    0.45     108.8  T
     SCC iter.                  ...        0 min,  0.100 sec
     gradient                   ...        0 min,  0.104 sec
 * total energy  :  -300.0488568 Eh     change       -0.9513656E-08 Eh
   gradient norm :     0.3509284 Eh/α   predicted     0.0000000E+00 (-100.00%)
   displ. norm   :     0.5093114 α      lambda       -0.1323673E+00
   maximum displ.:     0.0908930 α      in ANC's #325, #308, #148, ...

........................................................................
.............................. CYCLE    2 ..............................
........................................................................
   1   -304.5971155 -0.304597E+03  0.306E-01    0.45       0.0  T
   2   -304.5987837 -0.166820E-02  0.179E-01    0.43       1.0  T
   3   -304.5977365  0.104721E-02  0.105E-01    0.43       1.0  T
   4   -304.5991110 -0.137451E-02  0.506E-02    0.42       1.0  T
   5   -304.5994364 -0.325444E-03  0.199E-02    0.42       1.0  T
   6   -304.5994743 -0.378879E-04  0.837E-03    0.43       1.0  T
   7   -304.5994799 -0.561701E-05  0.372E-03    0.43       2.0  T
   8   -304.5994813 -0.132365E-05  0.177E-03    0.43       4.2  T
   9   -304.5994814 -0.108014E-06  0.983E-04    0.43       7.6  T
  10   -304.5994815 -0.859499E-07  0.400E-04    0.43      18.7  T
     SCC iter.                  ...        0 min,  0.320 sec
     gradient                   ...        0 min,  0.104 sec
 * total energy  :  -300.1477055 Eh     change       -0.9884866E-01 Eh
   gradient norm :     0.1717608 Eh/α   predicted    -0.8339698E-01 ( -15.63%)
   displ. norm   :     0.5155362 α      lambda       -0.6095769E-01
   maximum displ.:     0.1129148 α      in ANC's #110, #103, #148, ...

........................................................................
.............................. CYCLE    3 ..............................
........................................................................
   1   -304.7281568 -0.304728E+03  0.254E-01    0.41       0.0  T
   2   -304.7292238 -0.106700E-02  0.143E-01    0.42       1.0  T
   3   -304.7285155  0.708231E-03  0.834E-02    0.41       1.0  T
   4   -304.7294056 -0.890047E-03  0.406E-02    0.41       1.0  T
   5   -304.7296052 -0.199636E-03  0.153E-02    0.41       1.0  T
   6   -304.7296268 -0.216240E-04  0.644E-03    0.41       1.2  T
   7   -304.7296300 -0.314734E-05  0.292E-03    0.41       2.6  T
   8   -304.7296308 -0.789874E-06  0.135E-03    0.41       5.6  T
   9   -304.7296308 -0.510985E-07  0.776E-04    0.41       9.7  T
  10   -304.7296309 -0.568481E-07  0.327E-04    0.41      23.0  T
     SCC iter.                  ...        0 min,  0.319 sec
     gradient                   ...        0 min,  0.104 sec
 * total energy  :  -300.1870668 Eh     change       -0.3936134E-01 Eh
   gradient norm :     0.0544206 Eh/α   predicted    -0.3857945E-01 (  -1.99%)
   displ. norm   :     0.4953267 α      lambda       -0.1606806E-01
   maximum displ.:     0.1343533 α      in ANC's #110, #103, #77, ...

........................................................................
.............................. CYCLE    4 ..............................
........................................................................
   1   -304.7630676 -0.304763E+03  0.140E-01    0.42       0.0  T
   2   -304.7632142 -0.146625E-03  0.797E-02    0.43       1.0  T
   3   -304.7629984  0.215840E-03  0.423E-02    0.43       1.0  T
   4   -304.7632412 -0.242832E-03  0.170E-02    0.43       1.0  T
   5   -304.7632851 -0.439186E-04  0.597E-03    0.43       1.3  T
   6   -304.7632875 -0.236029E-05  0.285E-03    0.43       2.6  T
   7   -304.7632884 -0.930370E-06  0.115E-03    0.43       6.5  T
   8   -304.7632885 -0.999048E-07  0.641E-04    0.43      11.7  T
   9   -304.7632885 -0.125762E-07  0.377E-04    0.43      19.9  T
     SCC iter.                  ...        0 min,  0.279 sec
     gradient                   ...        0 min,  0.104 sec
 * total energy  :  -300.1983303 Eh     change       -0.1126353E-01 Eh
   gradient norm :     0.0271275 Eh/α   predicted    -0.1000628E-01 ( -11.16%)
   displ. norm   :     0.5232723 α      lambda       -0.7325224E-02
   maximum displ.:     0.1237747 α      in ANC's #21, #77, #53, ...

........................................................................
.............................. CYCLE    5 ..............................
........................................................................
   1   -304.7762231 -0.304776E+03  0.160E-01    0.42       0.0  T
   2   -304.7763344 -0.111301E-03  0.894E-02    0.44       1.0  T
   3   -304.7761509  0.183462E-03  0.344E-02    0.42       1.0  T
   4   -304.7763595 -0.208598E-03  0.115E-02    0.44       1.0  T
   5   -304.7763823 -0.227612E-04  0.468E-03    0.44       1.6  T
   6   -304.7763835 -0.119190E-05  0.252E-03    0.44       3.0  T
   7   -304.7763842 -0.726348E-06  0.921E-04    0.44       8.1  T
   8   -304.7763842 -0.567290E-07  0.547E-04    0.44      13.7  T
     SCC iter.                  ...        0 min,  0.252 sec
     gradient                   ...        0 min,  0.104 sec
 * total energy  :  -300.2028106 Eh     change       -0.4480261E-02 Eh
   gradient norm :     0.0226333 Eh/α   predicted    -0.4665492E-02 (   4.13%)
   displ. norm   :     0.6005187 α      lambda       -0.6363886E-02
   maximum displ.:     0.1757307 α      in ANC's #39, #38, #81, ...

........................................................................
.............................. CYCLE    6 ..............................
........................................................................
   1   -304.7743715 -0.304774E+03  0.223E-01    0.46       0.0  T
   2   -304.7745272 -0.155634E-03  0.124E-01    0.47       1.0  T
   3   -304.7741351  0.392023E-03  0.496E-02    0.45       1.0  T
   4   -304.7746005 -0.465371E-03  0.111E-02    0.47       1.0  T
   5   -304.7746148 -0.142630E-04  0.528E-03    0.46       1.4  T
   6   -304.7746165 -0.177146E-05  0.271E-03    0.47       2.8  T
   7   -304.7746174 -0.867912E-06  0.109E-03    0.47       6.9  T
   8   -304.7746175 -0.938914E-07  0.627E-04    0.47      12.0  T
   9   -304.7746175 -0.252986E-07  0.308E-04    0.47      24.3  T
     SCC iter.                  ...        0 min,  0.283 sec
     gradient                   ...        0 min,  0.104 sec
 * total energy  :  -300.2041118 Eh     change       -0.1301235E-02 Eh
   gradient norm :     0.0333008 Eh/α   predicted    -0.4329423E-02 ( 232.72%)
   displ. norm   :     0.2924991 α      lambda       -0.4342569E-02
   maximum displ.:     0.1092498 α      in ANC's #21, #53, #48, ...

........................................................................
.............................. CYCLE    7 ..............................
........................................................................
   1   -304.7884762 -0.304788E+03  0.134E-01    0.46       0.0  T
   2   -304.7885308 -0.546526E-04  0.742E-02    0.47       1.0  T
   3   -304.7885156  0.152326E-04  0.135E-02    0.46       1.0  T
   4   -304.7885488 -0.332141E-04  0.483E-03    0.47       1.6  T
   5   -304.7885512 -0.235812E-05  0.239E-03    0.47       3.1  T
   6   -304.7885516 -0.389974E-06  0.993E-04    0.47       7.6  T
   7   -304.7885517 -0.107391E-06  0.383E-04    0.47      19.6  T
     SCC iter.                  ...        0 min,  0.219 sec
     gradient                   ...        0 min,  0.104 sec
 * total energy  :  -300.2068313 Eh     change       -0.2719440E-02 Eh
   gradient norm :     0.0218902 Eh/α   predicted    -0.2357063E-02 ( -13.33%)
   displ. norm   :     0.4461195 α      lambda       -0.2508599E-02
   maximum displ.:     0.1912657 α      in ANC's #21, #31, #33, ...

........................................................................
.............................. CYCLE    8 ..............................
........................................................................
   1   -304.7802138 -0.304780E+03  0.157E-01    0.43       0.0  T
   2   -304.7802751 -0.613424E-04  0.867E-02    0.45       1.0  T
   3   -304.7801284  0.146684E-03  0.300E-02    0.43       1.0  T
   4   -304.7803058 -0.177356E-03  0.628E-03    0.45       1.2  T
   5   -304.7803089 -0.313909E-05  0.336E-03    0.45       2.2  T
   6   -304.7803100 -0.107667E-05  0.141E-03    0.45       5.3  T
   7   -304.7803102 -0.249010E-06  0.481E-04    0.45      15.6  T
   8   -304.7803103 -0.111240E-07  0.270E-04    0.45      27.8  T
     SCC iter.                  ...        0 min,  0.249 sec
     gradient                   ...        0 min,  0.104 sec
 * total energy  :  -300.2082150 Eh     change       -0.1383752E-02 Eh
   gradient norm :     0.0334756 Eh/α   predicted    -0.1503938E-02 (   8.69%)
   displ. norm   :     0.5322631 α      lambda       -0.2781936E-02
   maximum displ.:     0.1705694 α      in ANC's #21, #31, #37, ...

........................................................................
.............................. CYCLE    9 ..............................
........................................................................
   1   -304.7877412 -0.304788E+03  0.106E-01    0.46       0.0  T
   2   -304.7877829 -0.417202E-04  0.593E-02    0.47       1.0  T
   3   -304.7877036  0.793331E-04  0.218E-02    0.46       1.0  T
   4   -304.7877922 -0.886002E-04  0.685E-03    0.47       1.1  T
   5   -304.7877974 -0.518978E-05  0.296E-03    0.47       2.5  T
   6   -304.7877981 -0.758334E-06  0.129E-03    0.47       5.8  T
   7   -304.7877983 -0.205115E-06  0.551E-04    0.47      13.6  T
   8   -304.7877984 -0.316362E-07  0.274E-04    0.47      27.4  T
     SCC iter.                  ...        0 min,  0.261 sec
     gradient                   ...        0 min,  0.104 sec
 * total energy  :  -300.2095627 Eh     change       -0.1347620E-02 Eh
   gradient norm :     0.0380863 Eh/α   predicted    -0.1785036E-02 (  32.46%)
   displ. norm   :     0.4516972 α      lambda       -0.2341170E-02
   maximum displ.:     0.1831014 α      in ANC's #21, #31, #33, ...

........................................................................
.............................. CYCLE   10 ..............................
........................................................................
   1   -304.7924885 -0.304792E+03  0.105E-01    0.47       0.0  T
   2   -304.7925264 -0.379441E-04  0.583E-02    0.49       1.0  T
   3   -304.7924190  0.107429E-03  0.242E-02    0.48       1.0  T
   4   -304.7925435 -0.124472E-03  0.539E-03    0.49       1.4  T
   5   -304.7925456 -0.213360E-05  0.288E-03    0.49       2.6  T
   6   -304.7925464 -0.797935E-06  0.117E-03    0.49       6.4  T
   7   -304.7925465 -0.117268E-06  0.576E-04    0.49      13.0  T
   8   -304.7925466 -0.381826E-07  0.262E-04    0.49      28.6  T
     SCC iter.                  ...        0 min,  0.248 sec
     gradient                   ...        0 min,  0.104 sec
 * total energy  :  -300.2111742 Eh     change       -0.1611516E-02 Eh
   gradient norm :     0.0233380 Eh/α   predicted    -0.1409422E-02 ( -12.54%)
   displ. norm   :     0.5932917 α      lambda       -0.1891422E-02
   maximum displ.:     0.2646493 α      in ANC's #21, #16, #12, ...

........................................................................
.............................. CYCLE   11 ..............................
........................................................................
   1   -304.7876436 -0.304788E+03  0.127E-01    0.47       0.0  T
   2   -304.7876846 -0.409945E-04  0.707E-02    0.50       1.0  T
   3   -304.7874585  0.226056E-03  0.335E-02    0.48       1.0  T
   4   -304.7877132 -0.254646E-03  0.692E-03    0.50       1.1  T
   5   -304.7877170 -0.381670E-05  0.370E-03    0.50       2.0  T
   6   -304.7877182 -0.115618E-05  0.157E-03    0.50       4.8  T
   7   -304.7877184 -0.283205E-06  0.587E-04    0.50      12.8  T
   8   -304.7877185 -0.187503E-07  0.322E-04    0.50      23.3  T
     SCC iter.                  ...        0 min,  0.252 sec
     gradient                   ...        0 min,  0.104 sec
 * total energy  :  -300.2126679 Eh     change       -0.1493745E-02 Eh
   gradient norm :     0.0252109 Eh/α   predicted    -0.1278597E-02 ( -14.40%)
   displ. norm   :     0.6588950 α      lambda       -0.1909374E-02
   maximum displ.:     0.2808493 α      in ANC's #21, #16, #12, ...

........................................................................
.............................. CYCLE   12 ..............................
........................................................................
   1   -304.7892107 -0.304789E+03  0.108E-01    0.49       0.0  T
   2   -304.7892416 -0.309815E-04  0.613E-02    0.53       1.0  T
   3   -304.7889866  0.255002E-03  0.358E-02    0.50       1.0  T
   4   -304.7892712 -0.284531E-03  0.771E-03    0.53       1.0  T
   5   -304.7892766 -0.547386E-05  0.392E-03    0.52       1.9  T
   6   -304.7892779 -0.122134E-05  0.173E-03    0.52       4.3  T
   7   -304.7892783 -0.385278E-06  0.624E-04    0.52      12.0  T
   8   -304.7892783 -0.256334E-07  0.353E-04    0.52      21.2  T
     SCC iter.                  ...        0 min,  0.250 sec
     gradient                   ...        0 min,  0.104 sec
 * total energy  :  -300.2142781 Eh     change       -0.1610161E-02 Eh
   gradient norm :     0.0172017 Eh/α   predicted    -0.1369161E-02 ( -14.97%)
   displ. norm   :     0.7451428 α      lambda       -0.1959138E-02
   maximum displ.:     0.3348129 α      in ANC's #21, #16, #12, ...

........................................................................
.............................. CYCLE   13 ..............................
........................................................................
   1   -304.7883654 -0.304788E+03  0.127E-01    0.52       0.0  T
   2   -304.7884027 -0.373014E-04  0.717E-02    0.56       1.0  T
   3   -304.7880278  0.374882E-03  0.409E-02    0.53       1.0  T
   4   -304.7884398 -0.411920E-03  0.898E-03    0.56       1.0  T
   5   -304.7884483 -0.855039E-05  0.423E-03    0.56       1.8  T
   6   -304.7884495 -0.121137E-05  0.183E-03    0.56       4.1  T
   7   -304.7884500 -0.451599E-06  0.672E-04    0.56      11.2  T
   8   -304.7884500 -0.347316E-07  0.370E-04    0.56      20.3  T
     SCC iter.                  ...        0 min,  0.257 sec
     gradient                   ...        0 min,  0.104 sec
 * total energy  :  -300.2159014 Eh     change       -0.1623317E-02 Eh
   gradient norm :     0.0182367 Eh/α   predicted    -0.1523465E-02 (  -6.15%)
   displ. norm   :     0.7244717 α      lambda       -0.1853750E-02
   maximum displ.:     0.2897212 α      in ANC's #21, #16, #12, ...

........................................................................
.............................. CYCLE   14 ..............................
........................................................................
   1   -304.7967012 -0.304797E+03  0.107E-01    0.56       0.0  T
   2   -304.7967354 -0.341455E-04  0.609E-02    0.59       1.0  T
   3   -304.7964279  0.307488E-03  0.385E-02    0.56       1.0  T
   4   -304.7967708 -0.342938E-03  0.897E-03    0.59       1.0  T
   5   -304.7967806 -0.973307E-05  0.417E-03    0.59       1.8  T
   6   -304.7967819 -0.130255E-05  0.179E-03    0.59       4.2  T
   7   -304.7967824 -0.481713E-06  0.668E-04    0.59      11.2  T
   8   -304.7967824 -0.364259E-07  0.350E-04    0.59      21.4  T
     SCC iter.                  ...        0 min,  0.255 sec
     gradient                   ...        0 min,  0.104 sec
 * total energy  :  -300.2172430 Eh     change       -0.1341642E-02 Eh
   gradient norm :     0.0228031 Eh/α   predicted    -0.1413355E-02 (   5.35%)
   displ. norm   :     0.7594975 α      lambda       -0.1624905E-02
   maximum displ.:     0.3582753 α      in ANC's #21, #16, #12, ...

........................................................................
.............................. CYCLE   15 ..............................
........................................................................
   1   -304.7830079 -0.304783E+03  0.142E-01    0.57       0.0  T
   2   -304.7830367 -0.287992E-04  0.800E-02    0.62       1.0  T
   3   -304.7822345  0.802226E-03  0.579E-02    0.57       1.0  T
   4   -304.7831197 -0.885263E-03  0.807E-03    0.61       1.0  T
   5   -304.7831246 -0.491307E-05  0.417E-03    0.61       1.8  T
   6   -304.7831258 -0.118533E-05  0.173E-03    0.61       4.3  T
   7   -304.7831261 -0.311136E-06  0.693E-04    0.61      10.8  T
   8   -304.7831262 -0.422378E-07  0.349E-04    0.61      21.5  T
     SCC iter.                  ...        0 min,  0.257 sec
     gradient                   ...        0 min,  0.104 sec
 * total energy  :  -300.2184884 Eh     change       -0.1245361E-02 Eh
   gradient norm :     0.0204022 Eh/α   predicted    -0.1281106E-02 (   2.87%)
   displ. norm   :     0.6333556 α      lambda       -0.1310397E-02
   maximum displ.:     0.2707306 α      in ANC's #21, #16, #12, ...

........................................................................
.............................. CYCLE   16 ..............................
........................................................................
   1   -304.7918280 -0.304792E+03  0.994E-02    0.62       0.0  T
   2   -304.7918497 -0.216629E-04  0.560E-02    0.64       1.0  T
   3   -304.7916118  0.237935E-03  0.313E-02    0.61       1.0  T
   4   -304.7918710 -0.259235E-03  0.668E-03    0.64       1.1  T
   5   -304.7918764 -0.536822E-05  0.308E-03    0.64       2.4  T
   6   -304.7918770 -0.593445E-06  0.133E-03    0.64       5.6  T
   7   -304.7918771 -0.187692E-06  0.538E-04    0.64      13.9  T
   8   -304.7918772 -0.299307E-07  0.247E-04    0.64      30.3  T
     SCC iter.                  ...        0 min,  0.257 sec
     gradient                   ...        0 min,  0.104 sec
 * total energy  :  -300.2194164 Eh     change       -0.9280244E-03 Eh
   gradient norm :     0.0226627 Eh/α   predicted    -0.9180281E-03 (  -1.08%)
   displ. norm   :     0.6886872 α      lambda       -0.1565254E-02
   maximum displ.:     0.2752456 α      in ANC's #16, #21, #12, ...

........................................................................
.............................. CYCLE   17 ..............................
........................................................................
   1   -304.7889047 -0.304789E+03  0.109E-01    0.63       0.0  T
   2   -304.7889289 -0.242520E-04  0.617E-02    0.66       1.0  T
   3   -304.7884880  0.440899E-03  0.443E-02    0.62       1.0  T
   4   -304.7889782 -0.490180E-03  0.766E-03    0.66       1.0  T
   5   -304.7889845 -0.630044E-05  0.393E-03    0.66       1.9  T
   6   -304.7889859 -0.136411E-05  0.153E-03    0.66       4.9  T
   7   -304.7889861 -0.227639E-06  0.619E-04    0.66      12.1  T
   8   -304.7889861 -0.362144E-07  0.288E-04    0.66      26.0  T
     SCC iter.                  ...        0 min,  0.261 sec
     gradient                   ...        0 min,  0.104 sec
 * total energy  :  -300.2204187 Eh     change       -0.1002308E-02 Eh
   gradient norm :     0.0155719 Eh/α   predicted    -0.1153822E-02 (  15.12%)
   displ. norm   :     0.6031831 α      lambda       -0.1011163E-02
   maximum displ.:     0.2588115 α      in ANC's #16, #21, #12, ...

........................................................................
.............................. CYCLE   18 ..............................
........................................................................
   1   -304.7876345 -0.304788E+03  0.939E-02    0.65       0.0  T
   2   -304.7876519 -0.173116E-04  0.529E-02    0.67       1.0  T
   3   -304.7873793  0.272582E-03  0.340E-02    0.64       1.0  T
   4   -304.7876786 -0.299332E-03  0.593E-03    0.67       1.3  T
   5   -304.7876823 -0.367480E-05  0.318E-03    0.67       2.4  T
   6   -304.7876832 -0.895074E-06  0.118E-03    0.67       6.3  T
   7   -304.7876833 -0.144517E-06  0.473E-04    0.67      15.8  T
   8   -304.7876833 -0.200046E-07  0.224E-04    0.67      33.4  T
     SCC iter.                  ...        0 min,  0.253 sec
     gradient                   ...        0 min,  0.104 sec
 * total energy  :  -300.2211936 Eh     change       -0.7748877E-03 Eh
   gradient norm :     0.0207015 Eh/α   predicted    -0.6895307E-03 ( -11.02%)
   displ. norm   :     0.6278028 α      lambda       -0.1422912E-02
   maximum displ.:     0.2734342 α      in ANC's #16, #12, #19, ...

........................................................................
.............................. CYCLE   19 ..............................
........................................................................
   1   -304.8081138 -0.304808E+03  0.812E-02    0.68       0.0  T
   2   -304.8081303 -0.165069E-04  0.466E-02    0.68       1.0  T
   3   -304.8080361  0.941714E-04  0.239E-02    0.68       1.0  T
   4   -304.8081404 -0.104272E-03  0.505E-03    0.68       1.5  T
   5   -304.8081426 -0.223542E-05  0.290E-03    0.68       2.6  T
   6   -304.8081439 -0.130564E-05  0.115E-03    0.68       6.5  T
   7   -304.8081441 -0.190915E-06  0.527E-04    0.68      14.2  T
   8   -304.8081442 -0.338337E-07  0.243E-04    0.68      30.8  T
     SCC iter.                  ...        0 min,  0.253 sec
     gradient                   ...        0 min,  0.104 sec
 * total energy  :  -300.2219701 Eh     change       -0.7765171E-03 Eh
   gradient norm :     0.0244247 Eh/α   predicted    -0.9918714E-03 (  27.73%)
   displ. norm   :     0.6381359 α      lambda       -0.1224143E-02
   maximum displ.:     0.2847161 α      in ANC's #16, #12, #21, ...

........................................................................
.............................. CYCLE   20 ..............................
........................................................................
   1   -304.7987721 -0.304799E+03  0.112E-01    0.67       0.0  T
   2   -304.7987832 -0.111111E-04  0.640E-02    0.69       1.0  T
   3   -304.7983323  0.450893E-03  0.468E-02    0.66       1.0  T
   4   -304.7988334 -0.501076E-03  0.586E-03    0.69       1.3  T
   5   -304.7988360 -0.257464E-05  0.372E-03    0.69       2.0  T
   6   -304.7988376 -0.161435E-05  0.142E-03    0.69       5.3  T
   7   -304.7988379 -0.309370E-06  0.559E-04    0.69      13.4  T
   8   -304.7988379 -0.351317E-07  0.258E-04    0.69      29.0  T
     SCC iter.                  ...        0 min,  0.253 sec
     gradient                   ...        0 min,  0.104 sec
 * total energy  :  -300.2228215 Eh     change       -0.8513766E-03 Eh
   gradient norm :     0.0201100 Eh/α   predicted    -0.8613195E-03 (   1.17%)
   displ. norm   :     0.6005740 α      lambda       -0.1198370E-02
   maximum displ.:     0.2775570 α      in ANC's #16, #12, #3, ...
 * RMSD in coord.:     0.6782195 α      energy gain  -0.1739647E+00 Eh

generating ANC from model Hessian ...
Using Lindh-Hessian (1995)
 Shifting diagonal of input Hessian by   1.000874318985752E-002
 Lowest  eigenvalues of input Hessian
    0.010000    0.000000    0.000000    0.000000    0.000000    0.000000
    0.000000    0.010013    0.010034    0.010050    0.010071    0.010082
    0.010092    0.010114    0.010147    0.010184    0.010223    0.010229
 Highest eigenvalues
    2.276641    2.283519    2.295355    2.410414    2.591370    2.616242
 

........................................................................
.............................. CYCLE   21 ..............................
........................................................................
   1   -304.7943434 -0.304794E+03  0.838E-02    0.68       0.0  T
   2   -304.7943588 -0.154348E-04  0.479E-02    0.70       1.0  T
   3   -304.7941234  0.235444E-03  0.323E-02    0.67       1.0  T
   4   -304.7943815 -0.258055E-03  0.679E-03    0.70       1.1  T
   5   -304.7943871 -0.563224E-05  0.323E-03    0.69       2.3  T
   6   -304.7943879 -0.801011E-06  0.132E-03    0.70       5.7  T
   7   -304.7943881 -0.234215E-06  0.549E-04    0.69      13.6  T
   8   -304.7943882 -0.413795E-07  0.247E-04    0.69      30.3  T
     SCC iter.                  ...        0 min,  0.251 sec
     gradient                   ...        0 min,  0.104 sec
 * total energy  :  -300.2235303 Eh     change       -0.7088158E-03 Eh
   gradient norm :     0.0236026 Eh/α   predicted     0.0000000E+00 (-100.00%)
   displ. norm   :     0.1737726 α      lambda       -0.9528775E-03
   maximum displ.:     0.0842415 α      in ANC's #29, #28, #24, ...

........................................................................
.............................. CYCLE   22 ..............................
........................................................................
   1   -304.8000932 -0.304800E+03  0.897E-02    0.70       0.0  T
   2   -304.8001073 -0.140841E-04  0.505E-02    0.69       1.0  T
   3   -304.7999443  0.162985E-03  0.275E-02    0.71       1.0  T
   4   -304.8001246 -0.180303E-03  0.306E-03    0.69       2.4  T
   5   -304.8001253 -0.691132E-06  0.198E-03    0.69       3.8  T
   6   -304.8001258 -0.507709E-06  0.777E-04    0.69       9.7  T
   7   -304.8001259 -0.688943E-07  0.351E-04    0.69      21.4  T
     SCC iter.                  ...        0 min,  0.222 sec
     gradient                   ...        0 min,  0.104 sec
 * total energy  :  -300.2240115 Eh     change       -0.4811401E-03 Eh
   gradient norm :     0.0093854 Eh/α   predicted    -0.4909844E-03 (   2.05%)
   displ. norm   :     0.3010781 α      lambda       -0.1020767E-02
   maximum displ.:     0.1006719 α      in ANC's #29, #35, #24, ...

........................................................................
.............................. CYCLE   23 ..............................
........................................................................
   1   -304.8068804 -0.304807E+03  0.118E-01    0.70       0.0  T
   2   -304.8069011 -0.207010E-04  0.665E-02    0.68       1.0  T
   3   -304.8065879  0.313160E-03  0.369E-02    0.71       1.0  T
   4   -304.8069342 -0.346265E-03  0.439E-03    0.69       1.7  T
   5   -304.8069349 -0.739998E-06  0.268E-03    0.69       2.8  T
   6   -304.8069355 -0.612726E-06  0.103E-03    0.69       7.2  T
   7   -304.8069357 -0.152520E-06  0.401E-04    0.69      18.7  T
   8   -304.8069357 -0.115623E-07  0.213E-04    0.69      35.2  T
     SCC iter.                  ...        0 min,  0.257 sec
     gradient                   ...        0 min,  0.104 sec
 * total energy  :  -300.2242781 Eh     change       -0.2666703E-03 Eh
   gradient norm :     0.0149534 Eh/α   predicted    -0.5566500E-03 ( 108.74%)
   displ. norm   :     0.2320476 α      lambda       -0.7807143E-03
   maximum displ.:     0.1028996 α      in ANC's #29, #24, #28, ...

........................................................................
.............................. CYCLE   24 ..............................
........................................................................
   1   -304.8062839 -0.304806E+03  0.570E-02    0.69       0.0  T
   2   -304.8062888 -0.494017E-05  0.322E-02    0.69       1.0  T
   3   -304.8062769  0.119251E-04  0.901E-03    0.68       1.0  T
   4   -304.8062915 -0.145531E-04  0.214E-03    0.69       3.5  T
   5   -304.8062915 -0.787323E-07  0.128E-03    0.69       5.8  T
   6   -304.8062918 -0.209990E-06  0.478E-04    0.69      15.7  T
   7   -304.8062918 -0.349158E-07  0.199E-04    0.69      37.6  T
     SCC iter.                  ...        0 min,  0.224 sec
     gradient                   ...        0 min,  0.104 sec
 * total energy  :  -300.2248012 Eh     change       -0.5230228E-03 Eh
   gradient norm :     0.0134992 Eh/α   predicted    -0.4113847E-03 ( -21.34%)
   displ. norm   :     0.4861109 α      lambda       -0.1224801E-02
   maximum displ.:     0.2245715 α      in ANC's #29, #24, #28, ...

........................................................................
.............................. CYCLE   25 ..............................
........................................................................
   1   -304.7885005 -0.304789E+03  0.165E-01    0.67       0.0  T
   2   -304.7885556 -0.551132E-04  0.918E-02    0.68       1.0  T
   3   -304.7882916  0.263999E-03  0.389E-02    0.67       1.0  T
   4   -304.7885983 -0.306728E-03  0.541E-03    0.68       1.4  T
   5   -304.7885983 -0.493895E-08  0.390E-03    0.68       1.9  T
   6   -304.7886008 -0.247284E-05  0.143E-03    0.68       5.2  T
   7   -304.7886011 -0.315540E-06  0.585E-04    0.68      12.8  T
   8   -304.7886012 -0.464042E-07  0.261E-04    0.68      28.7  T
     SCC iter.                  ...        0 min,  0.253 sec
     gradient                   ...        0 min,  0.104 sec
 * total energy  :  -300.2251217 Eh     change       -0.3205684E-03 Eh
   gradient norm :     0.0401942 Eh/α   predicted    -0.7571184E-03 ( 136.18%)
   displ. norm   :     0.2387800 α      lambda       -0.1047319E-02
   maximum displ.:     0.0845817 α      in ANC's #24, #12, #3, ...

........................................................................
.............................. CYCLE   26 ..............................
........................................................................
   1   -304.7967118 -0.304797E+03  0.446E-02    0.69       0.0  T
   2   -304.7967166 -0.488860E-05  0.256E-02    0.69       1.0  T
   3   -304.7967079  0.879033E-05  0.830E-03    0.69       1.0  T
   4   -304.7967181 -0.102247E-04  0.199E-03    0.69       3.8  T
   5   -304.7967183 -0.213758E-06  0.119E-03    0.69       6.3  T
   6   -304.7967185 -0.181269E-06  0.622E-04    0.69      12.0  T
   7   -304.7967185 -0.689383E-07  0.200E-04    0.69      37.5  T
     SCC iter.                  ...        0 min,  0.219 sec
     gradient                   ...        0 min,  0.104 sec
 * total energy  :  -300.2258036 Eh     change       -0.6819119E-03 Eh
   gradient norm :     0.0115518 Eh/α   predicted    -0.5535190E-03 ( -18.83%)
   displ. norm   :     0.4929826 α      lambda       -0.7709029E-03
   maximum displ.:     0.1793810 α      in ANC's #24, #12, #29, ...

........................................................................
.............................. CYCLE   27 ..............................
........................................................................
   1   -304.8004078 -0.304800E+03  0.889E-02    0.69       0.0  T
   2   -304.8004226 -0.148072E-04  0.501E-02    0.70       1.0  T
   3   -304.8003857  0.369580E-04  0.148E-02    0.69       1.0  T
   4   -304.8004305 -0.448083E-04  0.354E-03    0.70       2.1  T
   5   -304.8004306 -0.109487E-06  0.217E-03    0.70       3.5  T
   6   -304.8004313 -0.769849E-06  0.754E-04    0.70       9.9  T
   7   -304.8004314 -0.752972E-07  0.341E-04    0.70      22.0  T
     SCC iter.                  ...        0 min,  0.222 sec
     gradient                   ...        0 min,  0.104 sec
 * total energy  :  -300.2264153 Eh     change       -0.6116160E-03 Eh
   gradient norm :     0.0107356 Eh/α   predicted    -0.4791334E-03 ( -21.66%)
   displ. norm   :     0.7144606 α      lambda       -0.9803737E-03
   maximum displ.:     0.2633539 α      in ANC's #24, #12, #29, ...

........................................................................
.............................. CYCLE   28 ..............................
........................................................................
   1   -304.7976831 -0.304798E+03  0.146E-01    0.69       0.0  T
   2   -304.7977232 -0.400500E-04  0.818E-02    0.70       1.0  T
   3   -304.7976547  0.684861E-04  0.207E-02    0.70       1.0  T
   4   -304.7977421 -0.874327E-04  0.543E-03    0.70       1.4  T
   5   -304.7977434 -0.130810E-05  0.310E-03    0.70       2.4  T
   6   -304.7977445 -0.103456E-05  0.104E-03    0.70       7.2  T
   7   -304.7977446 -0.131125E-06  0.504E-04    0.70      14.9  T
   8   -304.7977446 -0.346318E-07  0.259E-04    0.70      28.9  T
     SCC iter.                  ...        0 min,  0.252 sec
     gradient                   ...        0 min,  0.104 sec
 * total energy  :  -300.2272116 Eh     change       -0.7963668E-03 Eh
   gradient norm :     0.0093789 Eh/α   predicted    -0.7404099E-03 (  -7.03%)
   displ. norm   :     0.7066649 α      lambda       -0.9761041E-03
   maximum displ.:     0.2612851 α      in ANC's #12, #24, #3, ...

........................................................................
.............................. CYCLE   29 ..............................
........................................................................
   1   -304.7979574 -0.304798E+03  0.134E-01    0.70       0.0  T
   2   -304.7979995 -0.420438E-04  0.748E-02    0.71       1.0  T
   3   -304.7979352  0.643145E-04  0.209E-02    0.70       1.0  T
   4   -304.7980179 -0.827145E-04  0.520E-03    0.71       1.4  T
   5   -304.7980189 -0.101188E-05  0.364E-03    0.71       2.1  T
   6   -304.7980208 -0.187711E-05  0.139E-03    0.71       5.4  T
   7   -304.7980211 -0.314628E-06  0.476E-04    0.71      15.7  T
   8   -304.7980211 -0.205235E-07  0.238E-04    0.71      31.5  T
     SCC iter.                  ...        0 min,  0.247 sec
     gradient                   ...        0 min,  0.104 sec
 * total energy  :  -300.2278844 Eh     change       -0.6727406E-03 Eh
   gradient norm :     0.0243057 Eh/α   predicted    -0.7317744E-03 (   8.78%)
   displ. norm   :     0.6160946 α      lambda       -0.8933569E-03
   maximum displ.:     0.2358929 α      in ANC's #12, #24, #3, ...

........................................................................
.............................. CYCLE   30 ..............................
........................................................................
   1   -304.8027751 -0.304803E+03  0.862E-02    0.71       0.0  T
   2   -304.8027925 -0.174893E-04  0.487E-02    0.72       1.0  T
   3   -304.8027208  0.716987E-04  0.188E-02    0.71       1.0  T
   4   -304.8027988 -0.779877E-04  0.508E-03    0.72       1.5  T
   5   -304.8028026 -0.374192E-05  0.272E-03    0.72       2.8  T
   6   -304.8028034 -0.865564E-06  0.889E-04    0.72       8.4  T
   7   -304.8028035 -0.806847E-07  0.374E-04    0.72      20.0  T
     SCC iter.                  ...        0 min,  0.220 sec
     gradient                   ...        0 min,  0.104 sec
 * total energy  :  -300.2285709 Eh     change       -0.6865719E-03 Eh
   gradient norm :     0.0106893 Eh/α   predicted    -0.6162307E-03 ( -10.25%)
   displ. norm   :     0.7549066 α      lambda       -0.8405659E-03
   maximum displ.:     0.2920755 α      in ANC's #12, #24, #3, ...

........................................................................
.............................. CYCLE   31 ..............................
........................................................................
   1   -304.7996918 -0.304800E+03  0.104E-01    0.72       0.0  T
   2   -304.7997006 -0.879240E-05  0.599E-02    0.73       1.0  T
   3   -304.7993869  0.313707E-03  0.387E-02    0.71       1.0  T
   4   -304.7997307 -0.343818E-03  0.518E-03    0.73       1.4  T
   5   -304.7997319 -0.123265E-05  0.346E-03    0.73       2.2  T
   6   -304.7997335 -0.159081E-05  0.130E-03    0.73       5.8  T
   7   -304.7997339 -0.331381E-06  0.455E-04    0.73      16.5  T
   8   -304.7997339 -0.204910E-07  0.201E-04    0.73      37.3  T
     SCC iter.                  ...        0 min,  0.247 sec
     gradient                   ...        0 min,  0.104 sec
 * total energy  :  -300.2292304 Eh     change       -0.6594322E-03 Eh
   gradient norm :     0.0089932 Eh/α   predicted    -0.6598024E-03 (   0.06%)
   displ. norm   :     0.6752219 α      lambda       -0.9757058E-03
   maximum displ.:     0.2833452 α      in ANC's #12, #3, #24, ...

........................................................................
.............................. CYCLE   32 ..............................
........................................................................
   1   -304.8219587 -0.304822E+03  0.753E-02    0.73       0.0  T
   2   -304.8219721 -0.134280E-04  0.429E-02    0.74       1.0  T
   3   -304.8219002  0.718917E-04  0.227E-02    0.74       1.0  T
   4   -304.8219824 -0.821396E-04  0.479E-03    0.74       1.6  T
   5   -304.8219852 -0.280666E-05  0.238E-03    0.74       3.2  T
   6   -304.8219857 -0.512506E-06  0.107E-03    0.74       7.0  T
   7   -304.8219859 -0.185653E-06  0.501E-04    0.74      14.9  T
   8   -304.8219859 -0.354101E-07  0.234E-04    0.74      32.0  T
     SCC iter.                  ...        0 min,  0.250 sec
     gradient                   ...        0 min,  0.104 sec
 * total energy  :  -300.2296451 Eh     change       -0.4146945E-03 Eh
   gradient norm :     0.0373126 Eh/α   predicted    -0.7102835E-03 (  71.28%)
   displ. norm   :     0.6248741 α      lambda       -0.1107011E-02
   maximum displ.:     0.2439071 α      in ANC's #12, #24, #3, ...

........................................................................
.............................. CYCLE   33 ..............................
........................................................................
   1   -304.8065575 -0.304807E+03  0.107E-01    0.73       0.0  T
   2   -304.8065832 -0.256466E-04  0.606E-02    0.74       1.0  T
   3   -304.8064964  0.867484E-04  0.221E-02    0.73       1.0  T
   4   -304.8065966 -0.100176E-03  0.461E-03    0.74       1.6  T
   5   -304.8065977 -0.108949E-05  0.302E-03    0.74       2.5  T
   6   -304.8065989 -0.117754E-05  0.117E-03    0.74       6.4  T
   7   -304.8065991 -0.228247E-06  0.494E-04    0.74      15.2  T
   8   -304.8065991 -0.336866E-07  0.226E-04    0.74      33.2  T
     SCC iter.                  ...        0 min,  0.248 sec
     gradient                   ...        0 min,  0.104 sec
 * total energy  :  -300.2304245 Eh     change       -0.7794416E-03 Eh
   gradient norm :     0.0082436 Eh/α   predicted    -0.7696320E-03 (  -1.26%)
   displ. norm   :     0.7671381 α      lambda       -0.6689907E-03
   maximum displ.:     0.3151564 α      in ANC's #12, #24, #3, ...

........................................................................
.............................. CYCLE   34 ..............................
........................................................................
   1   -304.8001867 -0.304800E+03  0.887E-02    0.74       0.0  T
   2   -304.8001979 -0.111751E-04  0.502E-02    0.75       1.0  T
   3   -304.8001035  0.943638E-04  0.207E-02    0.74       1.0  T
   4   -304.8002058 -0.102288E-03  0.485E-03    0.75       1.5  T
   5   -304.8002073 -0.150487E-05  0.289E-03    0.75       2.6  T
   6   -304.8002084 -0.106317E-05  0.886E-04    0.75       8.5  T
   7   -304.8002085 -0.135955E-06  0.402E-04    0.75      18.7  T
   8   -304.8002086 -0.194097E-07  0.174E-04    0.75      43.0  T
     SCC iter.                  ...        0 min,  0.249 sec
     gradient                   ...        0 min,  0.104 sec
 * total energy  :  -300.2310011 Eh     change       -0.5766095E-03 Eh
   gradient norm :     0.0086770 Eh/α   predicted    -0.5313495E-03 (  -7.85%)
   displ. norm   :     0.6822782 α      lambda       -0.7904876E-03
   maximum displ.:     0.2915058 α      in ANC's #12, #3, #24, ...

........................................................................
.............................. CYCLE   35 ..............................
........................................................................
   1   -304.8068911 -0.304807E+03  0.648E-02    0.75       0.0  T
   2   -304.8068991 -0.802645E-05  0.362E-02    0.75       1.0  T
   3   -304.8068773  0.217994E-04  0.118E-02    0.75       1.0  T
   4   -304.8068996 -0.223354E-04  0.456E-03    0.75       1.6  T
   5   -304.8069015 -0.190449E-05  0.242E-03    0.75       3.1  T
   6   -304.8069026 -0.108247E-05  0.882E-04    0.75       8.5  T
   7   -304.8069028 -0.133511E-06  0.328E-04    0.75      22.8  T
   8   -304.8069028 -0.107640E-07  0.168E-04    0.75      44.6  T
     SCC iter.                  ...        0 min,  0.251 sec
     gradient                   ...        0 min,  0.104 sec
 * total energy  :  -300.2316227 Eh     change       -0.6216215E-03 Eh
   gradient norm :     0.0167910 Eh/α   predicted    -0.5792370E-03 (  -6.82%)
   displ. norm   :     0.7771483 α      lambda       -0.8377432E-03
   maximum displ.:     0.3331321 α      in ANC's #12, #3, #24, ...

........................................................................
.............................. CYCLE   36 ..............................
........................................................................
   1   -304.8087346 -0.304809E+03  0.818E-02    0.76       0.0  T
   2   -304.8087440 -0.945998E-05  0.458E-02    0.75       1.0  T
   3   -304.8087066  0.374280E-04  0.143E-02    0.76       1.0  T
   4   -304.8087465 -0.399422E-04  0.512E-03    0.75       1.5  T
   5   -304.8087487 -0.216106E-05  0.258E-03    0.76       2.9  T
   6   -304.8087499 -0.115269E-05  0.889E-04    0.75       8.4  T
   7   -304.8087500 -0.138122E-06  0.353E-04    0.75      21.3  T
   8   -304.8087500 -0.882619E-08  0.188E-04    0.75      39.9  T
     SCC iter.                  ...        0 min,  0.251 sec
     gradient                   ...        0 min,  0.104 sec
 * total energy  :  -300.2322844 Eh     change       -0.6616878E-03 Eh
   gradient norm :     0.0105438 Eh/α   predicted    -0.6718549E-03 (   1.54%)
   displ. norm   :     0.7625254 α      lambda       -0.7256262E-03
   maximum displ.:     0.3277270 α      in ANC's #12, #3, #24, ...

........................................................................
.............................. CYCLE   37 ..............................
........................................................................
   1   -304.8093914 -0.304809E+03  0.703E-02    0.76       0.0  T
   2   -304.8093971 -0.570378E-05  0.395E-02    0.75       1.0  T
   3   -304.8093445  0.526216E-04  0.160E-02    0.76       1.0  T
   4   -304.8093999 -0.553899E-04  0.482E-03    0.75       1.6  T
   5   -304.8094018 -0.196557E-05  0.277E-03    0.76       2.7  T
   6   -304.8094030 -0.118240E-05  0.767E-04    0.76       9.8  T
   7   -304.8094031 -0.907153E-07  0.286E-04    0.76      26.2  T
   8   -304.8094031 -0.506066E-08  0.164E-04    0.76      45.8  T
     SCC iter.                  ...        0 min,  0.249 sec
     gradient                   ...        0 min,  0.104 sec
 * total energy  :  -300.2329264 Eh     change       -0.6420256E-03 Eh
   gradient norm :     0.0098581 Eh/α   predicted    -0.5737743E-03 ( -10.63%)
   displ. norm   :     0.7671395 α      lambda       -0.7666475E-03
   maximum displ.:     0.3297074 α      in ANC's #12, #3, #2, ...

........................................................................
.............................. CYCLE   38 ..............................
........................................................................
   1   -304.8133934 -0.304813E+03  0.661E-02    0.76       0.0  T
   2   -304.8134002 -0.679191E-05  0.369E-02    0.76       1.0  T
   3   -304.8133608  0.393733E-04  0.147E-02    0.76       1.0  T
   4   -304.8134022 -0.413944E-04  0.493E-03    0.75       1.5  T
   5   -304.8134039 -0.170757E-05  0.308E-03    0.76       2.4  T
   6   -304.8134056 -0.167151E-05  0.770E-04    0.76       9.7  T
   7   -304.8134057 -0.896775E-07  0.307E-04    0.76      24.4  T
   8   -304.8134057 -0.728397E-08  0.179E-04    0.76      41.9  T
     SCC iter.                  ...        0 min,  0.249 sec
     gradient                   ...        0 min,  0.104 sec
 * total energy  :  -300.2335935 Eh     change       -0.6670716E-03 Eh
   gradient norm :     0.0098348 Eh/α   predicted    -0.6089184E-03 (  -8.72%)
   displ. norm   :     0.8477514 α      lambda       -0.7352221E-03
   maximum displ.:     0.3659390 α      in ANC's #12, #3, #2, ...

........................................................................
.............................. CYCLE   39 ..............................
........................................................................
   1   -304.8072920 -0.304807E+03  0.764E-02    0.76       0.0  T
   2   -304.8073000 -0.799460E-05  0.422E-02    0.76       1.0  T
   3   -304.8072836  0.163893E-04  0.110E-02    0.76       1.0  T
   4   -304.8073010 -0.173963E-04  0.501E-03    0.76       1.5  T
   5   -304.8073030 -0.193936E-05  0.205E-03    0.76       3.6  T
   6   -304.8073037 -0.696622E-06  0.710E-04    0.76      10.6  T
   7   -304.8073038 -0.864869E-07  0.308E-04    0.76      24.3  T
     SCC iter.                  ...        0 min,  0.216 sec
     gradient                   ...        0 min,  0.104 sec
 * total energy  :  -300.2342354 Eh     change       -0.6418997E-03 Eh
   gradient norm :     0.0094622 Eh/α   predicted    -0.6318156E-03 (  -1.57%)
   displ. norm   :     0.7371941 α      lambda       -0.7902788E-03
   maximum displ.:     0.2981500 α      in ANC's #12, #2, #3, ...

........................................................................
.............................. CYCLE   40 ..............................
........................................................................
   1   -304.8147531 -0.304815E+03  0.696E-02    0.76       0.0  T
   2   -304.8147629 -0.981514E-05  0.384E-02    0.76       1.0  T
   3   -304.8147435  0.194110E-04  0.120E-02    0.76       1.0  T
   4   -304.8147657 -0.221968E-04  0.459E-03    0.76       1.6  T
   5   -304.8147668 -0.110996E-05  0.224E-03    0.76       3.4  T
   6   -304.8147676 -0.811983E-06  0.730E-04    0.76      10.3  T
   7   -304.8147677 -0.706336E-07  0.347E-04    0.76      21.6  T
     SCC iter.                  ...        0 min,  0.214 sec
     gradient                   ...        0 min,  0.104 sec
 * total energy  :  -300.2348240 Eh     change       -0.5885986E-03 Eh
   gradient norm :     0.0125480 Eh/α   predicted    -0.6098865E-03 (   3.62%)
   displ. norm   :     0.8031629 α      lambda       -0.6735286E-03
   maximum displ.:     0.3517539 α      in ANC's #12, #3, #2, ...

........................................................................
.............................. CYCLE   41 ..............................
........................................................................
   1   -304.8060306 -0.304806E+03  0.696E-02    0.76       0.0  T
   2   -304.8060357 -0.507928E-05  0.385E-02    0.76       1.0  T
   3   -304.8059852  0.504405E-04  0.157E-02    0.75       1.0  T
   4   -304.8060383 -0.530513E-04  0.499E-03    0.76       1.5  T
   5   -304.8060397 -0.147860E-05  0.267E-03    0.76       2.8  T
   6   -304.8060409 -0.119708E-05  0.813E-04    0.76       9.2  T
   7   -304.8060411 -0.123339E-06  0.272E-04    0.76      27.5  T
   8   -304.8060411 -0.449882E-08  0.159E-04    0.76      47.2  T
     SCC iter.                  ...        0 min,  0.239 sec
     gradient                   ...        0 min,  0.104 sec
 * total energy  :  -300.2354172 Eh     change       -0.5932118E-03 Eh
   gradient norm :     0.0107004 Eh/α   predicted    -0.5540044E-03 (  -6.61%)
   displ. norm   :     0.6927261 α      lambda       -0.7950270E-03
   maximum displ.:     0.2880069 α      in ANC's #12, #2, #3, ...

........................................................................
.............................. CYCLE   42 ..............................
........................................................................
   1   -304.8068069 -0.304807E+03  0.650E-02    0.76       0.0  T
   2   -304.8068113 -0.447189E-05  0.359E-02    0.77       1.0  T
   3   -304.8066951  0.116272E-03  0.226E-02    0.76       1.0  T
   4   -304.8068216 -0.126558E-03  0.503E-03    0.77       1.5  T
   5   -304.8068229 -0.129377E-05  0.319E-03    0.77       2.4  T
   6   -304.8068242 -0.132150E-05  0.938E-04    0.77       8.0  T
   7   -304.8068244 -0.154505E-06  0.367E-04    0.77      20.4  T
   8   -304.8068244 -0.152680E-07  0.188E-04    0.77      39.9  T
     SCC iter.                  ...        0 min,  0.239 sec
     gradient                   ...        0 min,  0.104 sec
 * total energy  :  -300.2360986 Eh     change       -0.6813710E-03 Eh
   gradient norm :     0.0096278 Eh/α   predicted    -0.5882722E-03 ( -13.66%)
   displ. norm   :     0.7054313 α      lambda       -0.8138823E-03
   maximum displ.:     0.2774842 α      in ANC's #12, #2, #3, ...
 * RMSD in coord.:     0.9240866 α      energy gain  -0.1327709E-01 Eh

generating ANC from model Hessian ...
Using Lindh-Hessian (1995)
 Shifting diagonal of input Hessian by   1.000468990517465E-002
 Lowest  eigenvalues of input Hessian
    0.010000    0.000000    0.000000    0.000000    0.000000    0.000000
    0.000000    0.010014    0.010036    0.010043    0.010063    0.010075
    0.010083    0.010110    0.010134    0.010186    0.010215    0.010238
 Highest eigenvalues
    2.274888    2.281460    2.293368    2.407018    2.592972    2.648715
 

........................................................................
.............................. CYCLE   43 ..............................
........................................................................
   1   -304.8079630 -0.304808E+03  0.673E-02    0.76       0.0  T
   2   -304.8079660 -0.296648E-05  0.376E-02    0.77       1.0  T
   3   -304.8077820  0.183971E-03  0.282E-02    0.75       1.0  T
   4   -304.8079836 -0.201570E-03  0.519E-03    0.77       1.4  T
   5   -304.8079852 -0.156072E-05  0.312E-03    0.77       2.4  T
   6   -304.8079863 -0.109294E-05  0.944E-04    0.77       7.9  T
   7   -304.8079864 -0.130965E-06  0.375E-04    0.77      20.0  T
   8   -304.8079864 -0.106812E-07  0.222E-04    0.77      33.8  T
     SCC iter.                  ...        0 min,  0.241 sec
     gradient                   ...        0 min,  0.104 sec
 * total energy  :  -300.2367651 Eh     change       -0.6665207E-03 Eh
   gradient norm :     0.0094983 Eh/α   predicted     0.0000000E+00 (-100.00%)
   displ. norm   :     0.1149906 α      lambda       -0.2905846E-03
   maximum displ.:     0.0352767 α      in ANC's #2, #44, #15, ...

........................................................................
.............................. CYCLE   44 ..............................
........................................................................
   1   -304.8125865 -0.304813E+03  0.368E-02    0.77       0.0  T
   2   -304.8125897 -0.320716E-05  0.205E-02    0.77       1.0  T
   3   -304.8125825  0.720323E-05  0.625E-03    0.77       1.2  T
   4   -304.8125911 -0.859463E-05  0.169E-03    0.77       4.4  T
   5   -304.8125913 -0.231993E-06  0.972E-04    0.77       7.7  T
   6   -304.8125914 -0.110857E-06  0.450E-04    0.77      16.7  T
     SCC iter.                  ...        0 min,  0.195 sec
     gradient                   ...        0 min,  0.104 sec
 * total energy  :  -300.2369820 Eh     change       -0.2168414E-03 Eh
   gradient norm :     0.0052986 Eh/α   predicted    -0.1472144E-03 ( -32.11%)
   displ. norm   :     0.3294677 α      lambda       -0.5547466E-03
   maximum displ.:     0.1088350 α      in ANC's #2, #29, #15, ...

........................................................................
.............................. CYCLE   45 ..............................
........................................................................
   1   -304.8204970 -0.304820E+03  0.779E-02    0.77       0.0  T
   2   -304.8205101 -0.131272E-04  0.433E-02    0.77       1.0  T
   3   -304.8204704  0.397039E-04  0.145E-02    0.76       1.0  T
   4   -304.8205143 -0.438937E-04  0.476E-03    0.77       1.6  T
   5   -304.8205168 -0.252472E-05  0.252E-03    0.77       3.0  T
   6   -304.8205177 -0.940489E-06  0.934E-04    0.77       8.0  T
   7   -304.8205179 -0.142765E-06  0.398E-04    0.77      18.8  T
     SCC iter.                  ...        0 min,  0.231 sec
     gradient                   ...        0 min,  0.104 sec
 * total energy  :  -300.2372665 Eh     change       -0.2845013E-03 Eh
   gradient norm :     0.0081719 Eh/α   predicted    -0.3074822E-03 (   8.08%)
   displ. norm   :     0.2649463 α      lambda       -0.3292179E-03
   maximum displ.:     0.0927536 α      in ANC's #2, #15, #29, ...

........................................................................
.............................. CYCLE   46 ..............................
........................................................................
   1   -304.8182851 -0.304818E+03  0.526E-02    0.77       0.0  T
   2   -304.8182913 -0.612818E-05  0.291E-02    0.77       1.0  T
   3   -304.8182743  0.169623E-04  0.950E-03    0.76       1.0  T
   4   -304.8182938 -0.195431E-04  0.275E-03    0.77       2.7  T
   5   -304.8182943 -0.448115E-06  0.175E-03    0.76       4.3  T
   6   -304.8182948 -0.509379E-06  0.578E-04    0.77      13.0  T
   7   -304.8182949 -0.548858E-07  0.221E-04    0.77      33.9  T
     SCC iter.                  ...        0 min,  0.233 sec
     gradient                   ...        0 min,  0.104 sec
 * total energy  :  -300.2375131 Eh     change       -0.2465891E-03 Eh
   gradient norm :     0.0091052 Eh/α   predicted    -0.1762136E-03 ( -28.54%)
   displ. norm   :     0.4252530 α      lambda       -0.4466872E-03
   maximum displ.:     0.1562949 α      in ANC's #2, #15, #21, ...

........................................................................
.............................. CYCLE   47 ..............................
........................................................................
   1   -304.8135411 -0.304814E+03  0.609E-02    0.76       0.0  T
   2   -304.8135478 -0.665676E-05  0.334E-02    0.77       1.0  T
   3   -304.8135388  0.894868E-05  0.812E-03    0.76       1.0  T
   4   -304.8135491 -0.102405E-04  0.369E-03    0.77       2.0  T
   5   -304.8135498 -0.756656E-06  0.221E-03    0.76       3.4  T
   6   -304.8135507 -0.902879E-06  0.630E-04    0.76      11.9  T
   7   -304.8135508 -0.687809E-07  0.259E-04    0.76      28.9  T
     SCC iter.                  ...        0 min,  0.221 sec
     gradient                   ...        0 min,  0.104 sec
 * total energy  :  -300.2378651 Eh     change       -0.3520715E-03 Eh
   gradient norm :     0.0076638 Eh/α   predicted    -0.2637415E-03 ( -25.09%)
   displ. norm   :     0.5566897 α      lambda       -0.4959034E-03
   maximum displ.:     0.2092879 α      in ANC's #2, #15, #21, ...

........................................................................
.............................. CYCLE   48 ..............................
........................................................................
   1   -304.8076358 -0.304808E+03  0.839E-02    0.76       0.0  T
   2   -304.8076480 -0.121792E-04  0.460E-02    0.76       1.0  T
   3   -304.8075859  0.621059E-04  0.168E-02    0.75       1.0  T
   4   -304.8076540 -0.680829E-04  0.500E-03    0.76       1.5  T
   5   -304.8076560 -0.195965E-05  0.271E-03    0.76       2.8  T
   6   -304.8076570 -0.105967E-05  0.774E-04    0.76       9.7  T
   7   -304.8076571 -0.817033E-07  0.320E-04    0.76      23.4  T
   8   -304.8076571 -0.547175E-08  0.181E-04    0.76      41.4  T
     SCC iter.                  ...        0 min,  0.254 sec
     gradient                   ...        0 min,  0.104 sec
 * total energy  :  -300.2382516 Eh     change       -0.3865206E-03 Eh
   gradient norm :     0.0095418 Eh/α   predicted    -0.3247944E-03 ( -15.97%)
   displ. norm   :     0.5537547 α      lambda       -0.4869351E-03
   maximum displ.:     0.2217636 α      in ANC's #2, #15, #21, ...

........................................................................
.............................. CYCLE   49 ..............................
........................................................................
   1   -304.8081393 -0.304808E+03  0.694E-02    0.76       0.0  T
   2   -304.8081494 -0.100774E-04  0.378E-02    0.77       1.0  T
   3   -304.8081381  0.112771E-04  0.980E-03    0.76       1.0  T
   4   -304.8081515 -0.134351E-04  0.406E-03    0.77       1.8  T
   5   -304.8081520 -0.516033E-06  0.260E-03    0.76       2.9  T
   6   -304.8081534 -0.135308E-05  0.738E-04    0.77      10.2  T
   7   -304.8081535 -0.975164E-07  0.303E-04    0.77      24.7  T
   8   -304.8081535 -0.818818E-08  0.158E-04    0.77      47.4  T
     SCC iter.                  ...        0 min,  0.254 sec
     gradient                   ...        0 min,  0.104 sec
 * total energy  :  -300.2386247 Eh     change       -0.3730967E-03 Eh
   gradient norm :     0.0101740 Eh/α   predicted    -0.3181283E-03 ( -14.73%)
   displ. norm   :     0.5827825 α      lambda       -0.4758157E-03
   maximum displ.:     0.2405904 α      in ANC's #2, #15, #3, ...

........................................................................
.............................. CYCLE   50 ..............................
........................................................................
   1   -304.8097162 -0.304810E+03  0.706E-02    0.76       0.0  T
   2   -304.8097238 -0.756725E-05  0.385E-02    0.77       1.0  T
   3   -304.8096873  0.365582E-04  0.138E-02    0.76       1.0  T
   4   -304.8097265 -0.392611E-04  0.459E-03    0.77       1.6  T
   5   -304.8097280 -0.151660E-05  0.264E-03    0.77       2.8  T
   6   -304.8097293 -0.131365E-05  0.576E-04    0.77      13.0  T
   7   -304.8097294 -0.435901E-07  0.274E-04    0.77      27.4  T
   8   -304.8097294 -0.503945E-08  0.140E-04    0.77      53.4  T
     SCC iter.                  ...        0 min,  0.251 sec
     gradient                   ...        0 min,  0.104 sec
 * total energy  :  -300.2390241 Eh     change       -0.3993498E-03 Eh
   gradient norm :     0.0080326 Eh/α   predicted    -0.3187119E-03 ( -20.19%)
   displ. norm   :     0.5973948 α      lambda       -0.5398671E-03
   maximum displ.:     0.2635586 α      in ANC's #2, #15, #3, ...

........................................................................
.............................. CYCLE   51 ..............................
........................................................................
   1   -304.8179720 -0.304818E+03  0.585E-02    0.77       0.0  T
   2   -304.8179779 -0.588514E-05  0.320E-02    0.77       1.0  T
   3   -304.8179669  0.109878E-04  0.964E-03    0.77       1.0  T
   4   -304.8179796 -0.127155E-04  0.368E-03    0.77       2.0  T
   5   -304.8179798 -0.182015E-06  0.231E-03    0.77       3.2  T
   6   -304.8179809 -0.109190E-05  0.641E-04    0.77      11.7  T
   7   -304.8179809 -0.784358E-07  0.269E-04    0.77      27.9  T
   8   -304.8179809 -0.594542E-08  0.135E-04    0.77      55.4  T
     SCC iter.                  ...        0 min,  0.249 sec
     gradient                   ...        0 min,  0.104 sec
 * total energy  :  -300.2394575 Eh     change       -0.4333661E-03 Eh
   gradient norm :     0.0084713 Eh/α   predicted    -0.3662687E-03 ( -15.48%)
   displ. norm   :     0.7165817 α      lambda       -0.4919159E-03
   maximum displ.:     0.3097946 α      in ANC's #2, #15, #3, ...

........................................................................
.............................. CYCLE   52 ..............................
........................................................................
   1   -304.8171408 -0.304817E+03  0.706E-02    0.77       0.0  T
   2   -304.8171481 -0.734164E-05  0.382E-02    0.78       1.0  T
   3   -304.8171223  0.258144E-04  0.133E-02    0.77       1.0  T
   4   -304.8171504 -0.280522E-04  0.505E-03    0.78       1.5  T
   5   -304.8171509 -0.503338E-06  0.302E-03    0.77       2.5  T
   6   -304.8171529 -0.199339E-05  0.823E-04    0.77       9.1  T
   7   -304.8171530 -0.138021E-06  0.297E-04    0.77      25.2  T
   8   -304.8171530 -0.654001E-08  0.161E-04    0.77      46.5  T
     SCC iter.                  ...        0 min,  0.262 sec
     gradient                   ...        0 min,  0.104 sec
 * total energy  :  -300.2398754 Eh     change       -0.4179371E-03 Eh
   gradient norm :     0.0064882 Eh/α   predicted    -0.3722621E-03 ( -10.93%)
   displ. norm   :     0.6658312 α      lambda       -0.5055257E-03
   maximum displ.:     0.3066082 α      in ANC's #2, #15, #3, ...

........................................................................
.............................. CYCLE   53 ..............................
........................................................................
   1   -304.8203091 -0.304820E+03  0.560E-02    0.78       0.0  T
   2   -304.8203138 -0.471022E-05  0.309E-02    0.78       1.0  T
   3   -304.8202903  0.235075E-04  0.109E-02    0.78       1.0  T
   4   -304.8203134 -0.230502E-04  0.483E-03    0.78       1.6  T
   5   -304.8203162 -0.282036E-05  0.246E-03    0.78       3.0  T
   6   -304.8203172 -0.950864E-06  0.695E-04    0.78      10.8  T
   7   -304.8203172 -0.725011E-07  0.278E-04    0.78      27.0  T
     SCC iter.                  ...        0 min,  0.218 sec
     gradient                   ...        0 min,  0.105 sec
 * total energy  :  -300.2402900 Eh     change       -0.4146447E-03 Eh
   gradient norm :     0.0082464 Eh/α   predicted    -0.3648231E-03 ( -12.02%)
   displ. norm   :     0.7381881 α      lambda       -0.4749364E-03
   maximum displ.:     0.3352804 α      in ANC's #2, #15, #3, ...

........................................................................
.............................. CYCLE   54 ..............................
........................................................................
   1   -304.8153190 -0.304815E+03  0.687E-02    0.78       0.0  T
   2   -304.8153261 -0.704773E-05  0.371E-02    0.78       1.0  T
   3   -304.8153040  0.221055E-04  0.118E-02    0.78       1.0  T
   4   -304.8153269 -0.228885E-04  0.526E-03    0.78       1.4  T
   5   -304.8153288 -0.190854E-05  0.285E-03    0.78       2.6  T
   6   -304.8153302 -0.143691E-05  0.792E-04    0.78       9.5  T
   7   -304.8153303 -0.118386E-06  0.304E-04    0.78      24.7  T
   8   -304.8153303 -0.649754E-08  0.175E-04    0.78      42.7  T
     SCC iter.                  ...        0 min,  0.250 sec
     gradient                   ...        0 min,  0.104 sec
 * total energy  :  -300.2406887 Eh     change       -0.3986326E-03 Eh
   gradient norm :     0.0067823 Eh/α   predicted    -0.3668709E-03 (  -7.97%)
   displ. norm   :     0.6852450 α      lambda       -0.4760352E-03
   maximum displ.:     0.3198631 α      in ANC's #2, #15, #3, ...

........................................................................
.............................. CYCLE   55 ..............................
........................................................................
   1   -304.8143091 -0.304814E+03  0.654E-02    0.79       0.0  T
   2   -304.8143132 -0.405023E-05  0.360E-02    0.78       1.0  T
   3   -304.8142163  0.969203E-04  0.204E-02    0.79       1.0  T
   4   -304.8143214 -0.105183E-03  0.445E-03    0.78       1.7  T
   5   -304.8143224 -0.964048E-06  0.239E-03    0.78       3.1  T
   6   -304.8143232 -0.757824E-06  0.694E-04    0.78      10.8  T
   7   -304.8143232 -0.731094E-07  0.314E-04    0.78      23.9  T
     SCC iter.                  ...        0 min,  0.220 sec
     gradient                   ...        0 min,  0.104 sec
 * total energy  :  -300.2410679 Eh     change       -0.3792179E-03 Eh
   gradient norm :     0.0077330 Eh/α   predicted    -0.3497865E-03 (  -7.76%)
   displ. norm   :     0.6621761 α      lambda       -0.4066832E-03
   maximum displ.:     0.3173089 α      in ANC's #2, #15, #3, ...

........................................................................
.............................. CYCLE   56 ..............................
........................................................................
   1   -304.8127100 -0.304813E+03  0.582E-02    0.78       0.0  T
   2   -304.8127135 -0.348612E-05  0.322E-02    0.78       1.0  T
   3   -304.8126552  0.583167E-04  0.159E-02    0.78       1.0  T
   4   -304.8127177 -0.624892E-04  0.428E-03    0.78       1.8  T
   5   -304.8127191 -0.140862E-05  0.232E-03    0.78       3.2  T
   6   -304.8127198 -0.719730E-06  0.699E-04    0.78      10.7  T
   7   -304.8127199 -0.833811E-07  0.279E-04    0.78      26.8  T
     SCC iter.                  ...        0 min,  0.220 sec
     gradient                   ...        0 min,  0.104 sec
 * total energy  :  -300.2414016 Eh     change       -0.3337423E-03 Eh
   gradient norm :     0.0089563 Eh/α   predicted    -0.2925041E-03 ( -12.36%)
   displ. norm   :     0.6941818 α      lambda       -0.4227372E-03
   maximum displ.:     0.3296125 α      in ANC's #2, #15, #3, ...

........................................................................
.............................. CYCLE   57 ..............................
........................................................................
   1   -304.8119565 -0.304812E+03  0.571E-02    0.78       0.0  T
   2   -304.8119606 -0.409100E-05  0.309E-02    0.78       1.0  T
   3   -304.8119282  0.323683E-04  0.128E-02    0.78       1.0  T
   4   -304.8119620 -0.337335E-04  0.476E-03    0.78       1.6  T
   5   -304.8119638 -0.182468E-05  0.254E-03    0.78       3.0  T
   6   -304.8119649 -0.107657E-05  0.687E-04    0.78      10.9  T
   7   -304.8119650 -0.851346E-07  0.250E-04    0.78      30.0  T
   8   -304.8119650 -0.522039E-08  0.138E-04    0.78      54.3  T
     SCC iter.                  ...        0 min,  0.249 sec
     gradient                   ...        0 min,  0.104 sec
 * total energy  :  -300.2417598 Eh     change       -0.3581958E-03 Eh
   gradient norm :     0.0069736 Eh/α   predicted    -0.3132317E-03 ( -12.55%)
   displ. norm   :     0.6609828 α      lambda       -0.4907325E-03
   maximum displ.:     0.3178136 α      in ANC's #2, #3, #15, ...

........................................................................
.............................. CYCLE   58 ..............................
........................................................................
   1   -304.8176082 -0.304818E+03  0.601E-02    0.78       0.0  T
   2   -304.8176134 -0.519010E-05  0.337E-02    0.78       1.0  T
   3   -304.8175619  0.515522E-04  0.153E-02    0.78       1.0  T
   4   -304.8176171 -0.552232E-04  0.418E-03    0.78       1.8  T
   5   -304.8176189 -0.183657E-05  0.240E-03    0.78       3.1  T
[...]
                           103 N    0.964
   105   6 C    3.992 --   104 C    1.010   173 H    0.987   174 H    0.986
                           175 H    0.984
   106   6 C    3.948 --   107 O    1.696   103 N    1.130   108 C    1.026
   107   8 O    2.016 --   106 C    1.696   103 N    0.138
   108   6 C    3.986 --   109 C    1.465   113 C    1.256   106 C    1.026
                           111 C    0.104
   109   6 C    3.975 --   108 C    1.465   110 C    1.354   176 H    0.964
   110   6 C    3.987 --   111 C    1.528   109 C    1.354   177 H    0.969
   111   6 C    3.986 --   110 C    1.528   112 C    1.292   178 H    0.965
                           108 C    0.104
   112   6 C    3.986 --   111 C    1.292   113 C    1.256    97 C    1.226
   113   6 C    3.990 --   108 C    1.256   112 C    1.256   100 C    1.254
   114   1 H    0.992 --     1 C    0.948
   115   1 H    0.996 --     6 C    0.964
   116   1 H    0.997 --     9 C    0.960
   117   1 H    0.997 --    17 C    0.962
   118   1 H    0.998 --    18 C    0.971
   119   1 H    0.999 --    19 C    0.971
   120   1 H    0.999 --    20 C    0.971
   121   1 H    0.999 --    21 C    0.971
   122   1 H    0.998 --    22 C    0.978
   123   1 H    0.999 --    22 C    0.974
   124   1 H    0.996 --    23 C    0.962
   125   1 H    0.996 --    25 C    0.957
   126   1 H    0.996 --    28 C    0.971
   127   1 H    0.996 --    28 C    0.971
   128   1 H    0.997 --    29 C    0.986
   129   1 H    0.997 --    29 C    0.979
   130   1 H    0.998 --    29 C    0.983
   131   1 H    0.997 --    35 C    0.964
   132   1 H    0.997 --    36 C    0.970
   133   1 H    0.998 --    37 C    0.969
   134   1 H    0.998 --    39 C    0.976
   135   1 H    0.998 --    39 C    0.972
   136   1 H    0.999 --    40 C    0.988
   137   1 H    0.998 --    40 C    0.986
   138   1 H    0.999 --    40 C    0.987
   139   1 H    0.999 --    41 C    0.966
   140   1 H    0.998 --    57 C    0.967
   141   1 H    0.997 --    58 C    0.970
   142   1 H    0.998 --    59 C    0.969
   143   1 H    0.998 --    61 C    0.972
   144   1 H    0.998 --    61 C    0.976
   145   1 H    0.999 --    62 C    0.987
   146   1 H    0.999 --    62 C    0.989
   147   1 H    0.998 --    62 C    0.986
   148   1 H    0.999 --    63 C    0.967
   149   1 H    0.994 --    75 C    0.964
   150   1 H    0.996 --    75 C    0.968
   151   1 H    0.995 --    76 C    0.981
   152   1 H    0.996 --    76 C    0.977
   153   1 H    0.998 --    76 C    0.978
   154   1 H    0.994 --    77 C    0.967
   155   1 H    0.995 --    77 C    0.961
   156   1 H    0.996 --    78 C    0.981
   157   1 H    0.997 --    78 C    0.983
   158   1 H    0.998 --    78 C    0.987
   159   1 H    0.997 --    87 C    0.971
   160   1 H    0.994 --    87 C    0.955
   161   1 H    0.997 --    88 C    0.984
   162   1 H    0.997 --    88 C    0.986
   163   1 H    0.998 --    88 C    0.988
   164   1 H    0.997 --    91 C    0.972
   165   1 H    0.994 --    91 C    0.955
   166   1 H    0.997 --    92 C    0.984
   167   1 H    0.997 --    92 C    0.985
   168   1 H    0.998 --    92 C    0.988
   169   1 H    0.997 --    98 C    0.967
   170   1 H    0.993 --    99 C    0.963
   171   1 H    0.995 --   104 C    0.968
   172   1 H    0.995 --   104 C    0.968
   173   1 H    0.998 --   105 C    0.987
   174   1 H    0.997 --   105 C    0.986
   175   1 H    0.997 --   105 C    0.984
   176   1 H    0.994 --   109 C    0.964
   177   1 H    0.997 --   110 C    0.969
   178   1 H    0.998 --   111 C    0.965
 ---------------------------------------------------------------------------

Topologies differ in bond orders
Writing corrected topology to xtbtopo.mol

molecular dipole:
                 x           y           z       tot (Debye)
 q only:       -0.819      -0.417      -3.081
   full:       -0.354      -0.781      -3.640       9.506
molecular quadrupole (traceless):
                xx          xy          yy          xz          yz          zz
 q only:        6.595      19.040      33.232      10.718      50.492     -39.828
  q+dip:       24.286      36.179      10.577      -1.585      56.083     -34.862
   full:       30.737      26.675       6.564       4.040      53.251     -37.301

           -------------------------------------------------
          |                Geometry Summary                 |
           -------------------------------------------------

      molecular mass/u    :     1637.1308853
   center of mass at/Å    :       -0.2697538       0.6347642       0.2320861
  moments of inertia/u·Å² :        0.3550014E+05   0.1128104E+06   0.1353133E+06
rotational constants/cm⁻¹ :        0.4748610E-03   0.1494333E-03   0.1245822E-03

 * 179 selected distances

     #   Z          #   Z                                           value/Å
     1   6 C        2   6 C                                       1.3609781
     3   6 C        4   8 O                                       1.2103592
     5   6 C        6   6 C                                       1.3937620
     6   6 C        7   6 C                                       1.3745755
     7   6 C        8   6 C                                       1.4019056
     8   6 C        9   6 C                                       1.3741274
     5   6 C       10   6 C                                       1.4114411
     9   6 C       10   6 C                                       1.3972654
    11   6 C       12   6 C                                       1.3716974
    13   6 C       14   7 N                                       1.1482075
    15   6 C       16   7 N                                       1.1489839
     8   6 C       17   6 C                                       1.5082274
    17   6 C       18   6 C                                       1.5432348
    19   6 C       20   6 C                                       1.3268833
    18   6 C       22   6 C                                       1.5341308
    21   6 C       22   6 C                                       1.5341573
     7   6 C       23   6 C                                       1.5088416
    17   6 C       23   6 C                                       1.5624252
    21   6 C       23   6 C                                       1.5438216
     1   6 C       24   6 C                                       1.4175232
    24   6 C       25   6 C                                       1.3789609
    25   6 C       26   6 C                                       1.4024247
    26   6 C       27  16 S                                       1.7543806
    28   6 C       29   6 C                                       1.5170537
    26   6 C       30   6 C                                       1.3894878
    24   6 C       31  16 S                                       1.7421064
    30   6 C       31  16 S                                       1.7380060
    30   6 C       32   6 C                                       1.4218763
    32   6 C       33   6 C                                       1.3859871
    34   6 C       35   6 C                                       1.3930916
    35   6 C       36   6 C                                       1.3807027
    36   6 C       37   6 C                                       1.3844721
    37   6 C       38   6 C                                       1.3884635
    39   6 C       40   6 C                                       1.5298996
    34   6 C       41   6 C                                       1.3929199
    38   6 C       41   6 C                                       1.3855560
    33   6 C       42   6 C                                       1.4127723
    42   6 C       43  16 S                                       1.7506471
    43  16 S       44   6 C                                       1.7332021
    44   6 C       45   6 C                                       1.4055858
    45   6 C       46   6 C                                       1.4139733
    46   6 C       47   6 C                                       1.4396676
    47   6 C       48   7 N                                       1.3230192
    48   7 N       49  16 S                                       1.6194377
    46   6 C       50   7 N                                       1.3229815
    49  16 S       50   7 N                                       1.6193961
    47   6 C       51   6 C                                       1.4131770
    51   6 C       52   6 C                                       1.4061857
    52   6 C       53  16 S                                       1.7329484
    53  16 S       54   6 C                                       1.7523551
    54   6 C       55   6 C                                       1.4003235
    56   6 C       57   6 C                                       1.3914107
    57   6 C       58   6 C                                       1.3821590
    58   6 C       59   6 C                                       1.3838869
    59   6 C       60   6 C                                       1.3896351
    61   6 C       62   6 C                                       1.5308363
    56   6 C       63   6 C                                       1.3932912
    60   6 C       63   6 C                                       1.3850868
    55   6 C       64   6 C                                       1.3971984
    64   6 C       65  16 S                                       1.7560386
    54   6 C       66   6 C                                       1.3988157
    65  16 S       66   6 C                                       1.7236708
    52   6 C       67   6 C                                       1.3991463
    66   6 C       67   6 C                                       1.3979924
    67   6 C       68   7 N                                       1.3709166
    51   6 C       69   6 C                                       1.4216055
    68   7 N       69   6 C                                       1.3810970
    45   6 C       70   6 C                                       1.4221695
    69   6 C       70   6 C                                       1.4145719
    70   6 C       71   7 N                                       1.3814066
    44   6 C       72   6 C                                       1.3981035
    71   7 N       72   6 C                                       1.3692767
    42   6 C       73   6 C                                       1.3970929
    72   6 C       73   6 C                                       1.3979115
    32   6 C       74  16 S                                       1.7597377 (max)
    73   6 C       74  16 S                                       1.7209956
    71   7 N       75   6 C                                       1.4497738
    75   6 C       76   6 C                                       1.5266897
    68   7 N       77   6 C                                       1.4470223
    77   6 C       78   6 C                                       1.5281441
    64   6 C       79   6 C                                       1.4220833
    79   6 C       80  16 S                                       1.7513143
    80  16 S       81   6 C                                       1.7313593
    81   6 C       82   6 C                                       1.3741590
    83   6 C       84   8 O                                       1.2199974
    85   6 C       86   6 C                                       1.3716484
    86   6 C       87   6 C                                       1.4850434
    87   6 C       88   6 C                                       1.5316294
    86   6 C       89  16 S                                       1.7309756
    89  16 S       90   6 C                                       1.7311773
    90   6 C       91   6 C                                       1.4859191
    91   6 C       92   6 C                                       1.5315460
    85   6 C       93   6 C                                       1.4326795
    90   6 C       93   6 C                                       1.3725386
    94   6 C       95   8 O                                       1.2275480
    79   6 C       96   6 C                                       1.3920827
    82   6 C       96   6 C                                       1.4291828
    97   6 C       98   6 C                                       1.3812395
    98   6 C       99   6 C                                       1.3919879
    99   6 C      100   6 C                                       1.3794340
   101   6 C      102   8 O                                       1.2145801
   101   6 C      103   7 N                                       1.3850352
   103   7 N      104   6 C                                       1.4596965
   104   6 C      105   6 C                                       1.5232883
   103   7 N      106   6 C                                       1.3846382
   106   6 C      107   8 O                                       1.2145710
   108   6 C      109   6 C                                       1.3787845
   109   6 C      110   6 C                                       1.3961423
   110   6 C      111   6 C                                       1.3708343
    97   6 C      112   6 C                                       1.4224672
   111   6 C      112   6 C                                       1.4086662
   100   6 C      113   6 C                                       1.4096574
   108   6 C      113   6 C                                       1.4097738
   112   6 C      113   6 C                                       1.4171566
     1   6 C      114   1 H                                       1.0847713
     6   6 C      115   1 H                                       1.0786842
     9   6 C      116   1 H                                       1.0779400
    17   6 C      117   1 H                                       1.0883923
    18   6 C      118   1 H                                       1.0865628
    19   6 C      119   1 H                                       1.0742523
    20   6 C      120   1 H                                       1.0742148 (min)
    21   6 C      121   1 H                                       1.0866059
    22   6 C      122   1 H                                       1.0886894
    22   6 C      123   1 H                                       1.0883968
    23   6 C      124   1 H                                       1.0884715
    25   6 C      125   1 H                                       1.0744647
    28   6 C      126   1 H                                       1.0899236
    28   6 C      127   1 H                                       1.0884549
    29   6 C      128   1 H                                       1.0874060
    29   6 C      129   1 H                                       1.0884009
    29   6 C      130   1 H                                       1.0875192
    35   6 C      131   1 H                                       1.0787881
    36   6 C      132   1 H                                       1.0799866
    37   6 C      133   1 H                                       1.0806166
    39   6 C      134   1 H                                       1.0914250
    39   6 C      135   1 H                                       1.0921902
    40   6 C      136   1 H                                       1.0876229
    40   6 C      137   1 H                                       1.0876711
    40   6 C      138   1 H                                       1.0876257
    41   6 C      139   1 H                                       1.0808379
    57   6 C      140   1 H                                       1.0790757
    58   6 C      141   1 H                                       1.0797963
    59   6 C      142   1 H                                       1.0804005
    61   6 C      143   1 H                                       1.0921932
    61   6 C      144   1 H                                       1.0911476
    62   6 C      145   1 H                                       1.0877943
    62   6 C      146   1 H                                       1.0878743
    62   6 C      147   1 H                                       1.0874573
    63   6 C      148   1 H                                       1.0817378
    75   6 C      149   1 H                                       1.0962131
    75   6 C      150   1 H                                       1.0894577
    76   6 C      151   1 H                                       1.0862116
    76   6 C      152   1 H                                       1.0864880
    76   6 C      153   1 H                                       1.0873659
    77   6 C      154   1 H                                       1.0949024
    77   6 C      155   1 H                                       1.0861548
    78   6 C      156   1 H                                       1.0857816
    78   6 C      157   1 H                                       1.0866334
    78   6 C      158   1 H                                       1.0881597
    87   6 C      159   1 H                                       1.0919283
    87   6 C      160   1 H                                       1.0920533
    88   6 C      161   1 H                                       1.0863287
    88   6 C      162   1 H                                       1.0866404
    88   6 C      163   1 H                                       1.0881272
    91   6 C      164   1 H                                       1.0918033
    91   6 C      165   1 H                                       1.0917295
    92   6 C      166   1 H                                       1.0865143
    92   6 C      167   1 H                                       1.0865671
    92   6 C      168   1 H                                       1.0879258
    98   6 C      169   1 H                                       1.0803255
    99   6 C      170   1 H                                       1.0795274
   104   6 C      171   1 H                                       1.0912482
   104   6 C      172   1 H                                       1.0915292
   105   6 C      173   1 H                                       1.0875799
   105   6 C      174   1 H                                       1.0875298
   105   6 C      175   1 H                                       1.0863446
   109   6 C      176   1 H                                       1.0796088
   110   6 C      177   1 H                                       1.0797929
   111   6 C      178   1 H                                       1.0799867

 * 6 distinct bonds (by element types)

   Z      Z             #   av. dist./Å        max./Å        min./Å
   1 H    6 C          65     1.0859669     1.0962131     1.0742148
   6 C    6 C          79     1.4238136     1.5624252     1.3268833
   6 C    7 N          13     1.3516965     1.4596965     1.1482075
   6 C    8 O           5     1.2174111     1.2275480     1.2103592
   6 C   16 S          15     1.7405943     1.7597377     1.7209956
   7 N   16 S           2     1.6194169     1.6194377     1.6193961


optimized geometry written to: xtbopt.mol


           -------------------------------------------------
          | TOTAL ENERGY             -300.273090517281 Eh   |
          | GRADIENT NORM               0.000195745593 Eh/α |
          | HOMO-LUMO GAP               0.785967774899 eV   |
           -------------------------------------------------

------------------------------------------------------------------------
 * finished run on 2022/02/13 at 01:00:13.467     
------------------------------------------------------------------------
 total:
 * wall-time:     0 d,  0 h,  2 min, 20.812 sec
 *  cpu-time:     0 d,  0 h, 18 min, 46.196 sec
 * ratio c/w:     7.998 speedup
 SCF:
 * wall-time:     0 d,  0 h,  0 min,  0.605 sec
 *  cpu-time:     0 d,  0 h,  0 min,  4.826 sec
 * ratio c/w:     7.975 speedup
 ANC optimizer:
 * wall-time:     0 d,  0 h,  2 min, 20.061 sec
 *  cpu-time:     0 d,  0 h, 18 min, 40.340 sec
 * ratio c/w:     7.999 speedup

