      -----------------------------------------------------------      
     |                   =====================                   |     
     |                           x T B                           |     
     |                   =====================                   |     
     |                         S. Grimme                         |     
     |          Mulliken Center for Theoretical Chemistry        |     
     |                    University of Bonn                     |     
      -----------------------------------------------------------      

   * xtb version 6.4.1 (unknown) compiled by 'oda6@login1.crc.pitt.edu' on 2021-06-25

   xtb is free software: you can redistribute it and/or modify it under
   the terms of the GNU Lesser General Public License as published by
   the Free Software Foundation, either version 3 of the License, or
   (at your option) any later version.
   
   xtb is distributed in the hope that it will be useful,
   but WITHOUT ANY WARRANTY; without even the implied warranty of
   MERCHANTABILITY or FITNESS FOR A PARTICULAR PURPOSE.  See the
   GNU Lesser General Public License for more details.
   
   Cite this work as:
   * C. Bannwarth, E. Caldeweyher, S. Ehlert, A. Hansen, P. Pracht,
     J. Seibert, S. Spicher, S. Grimme, WIREs Comput. Mol. Sci., 2020, 11,
     e01493. DOI: 10.1002/wcms.1493
   
   for GFN2-xTB:
   * C. Bannwarth, S. Ehlert and S. Grimme., J. Chem. Theory Comput., 2019,
     15, 1652-1671. DOI: 10.1021/acs.jctc.8b01176
   for GFN1-xTB:
   * S. Grimme, C. Bannwarth, P. Shushkov, J. Chem. Theory Comput., 2017,
     13, 1989-2009. DOI: 10.1021/acs.jctc.7b00118
   for GFN0-xTB:
   * P. Pracht, E. Caldeweyher, S. Ehlert, S. Grimme, ChemRxiv, 2019, preprint.
     DOI: 10.26434/chemrxiv.8326202.v1
   for GFN-FF:
   * S. Spicher and S. Grimme, Angew. Chem. Int. Ed., 2020, 59, 15665-15673.
     DOI: 10.1002/anie.202004239
   
   for DFT-D4:
   * E. Caldeweyher, C. Bannwarth and S. Grimme, J. Chem. Phys., 2017,
     147, 034112. DOI: 10.1063/1.4993215
   * E. Caldeweyher, S. Ehlert, A. Hansen, H. Neugebauer, S. Spicher,
     C. Bannwarth and S. Grimme, J. Chem. Phys., 2019, 150, 154122.
     DOI: 10.1063/1.5090222
   * E. Caldeweyher, J.-M. Mewes, S. Ehlert and S. Grimme, Phys. Chem. Chem. Phys.
     2020, 22, 8499-8512. DOI: 10.1039/D0CP00502A
   
   for sTDA-xTB:
   * S. Grimme and C. Bannwarth, J. Chem. Phys., 2016, 145, 054103.
     DOI: 10.1063/1.4959605
   
   in the mass-spec context:
   * V. Asgeirsson, C. Bauer and S. Grimme, Chem. Sci., 2017, 8, 4879.
     DOI: 10.1039/c7sc00601b
   * J. Koopman and S. Grimme, ACS Omega 2019, 4, 12, 15120-15133.
     DOI: 10.1021/acsomega.9b02011
   
   for metadynamics refer to:
   * S. Grimme, J. Chem. Theory Comput., 2019, 155, 2847-2862
     DOI: 10.1021/acs.jctc.9b00143
   
   for SPH calculations refer to:
   * S. Spicher and S. Grimme, J. Chem. Theory Comput., 2021, 17, 1701-1714
     DOI: 10.1021/acs.jctc.0c01306
   
   with help from (in alphabetical order)
   P. Atkinson, C. Bannwarth, F. Bohle, G. Brandenburg, E. Caldeweyher
   M. Checinski, S. Dohm, S. Ehlert, S. Ehrlich, I. Gerasimov, J. Koopman
   C. Lavigne, S. Lehtola, F. März, M. Müller, F. Musil, H. Neugebauer
   J. Pisarek, C. Plett, P. Pracht, J. Seibert, P. Shushkov, S. Spicher
   M. Stahn, M. Steiner, T. Strunk, J. Stückrath, T. Rose, and J. Unsleber
   
 * started run on 2022/02/22 at 17:46:39.531     

           -------------------------------------------------
          |                Calculation Setup                |
           -------------------------------------------------

          program call               : /ihome/ghutchison/oda6/xtb/xtb-641/bin/xtb ../../FF_optimized/39_99_86_49_21.mol -opt
          hostname                   : smp-n9
          coordinate file            : ../../FF_optimized/39_99_86_49_21.mol
          omp threads                :                     8
          number of atoms            :                   208
          number of electrons        :                   634
          charge                     :                     0
          spin                       :                   0.0
          first test random number   :      0.30364172198323

   ID    Z sym.   atoms
    1    6 C      1-3, 5-13, 15, 17-31, 33-35, 37-44, 46-49, 51, 53, 54,
                  56-66, 68-71, 75, 76, 78-88, 90, 91, 93, 94, 96, 97,
                  99-108, 110-115, 118-120, 123, 125-128
    2    8 O      4, 116, 124
    3    7 N      14, 16, 72, 74, 92, 95, 117, 122
    4   16 S      32, 45, 52, 55, 67, 73, 77, 89, 98, 121
    5    9 F      36, 50
    6   34 Se     109
    7    1 H      129-208
########################################################################
[WARNING] Please study the warnings concerning your input carefully
-1- prog_main_parseArguments: the use of '-opt' is discouraged, please use '--opt' next time
########################################################################

           -------------------------------------------------
          |                 G F N 2 - x T B                 |
           -------------------------------------------------

        Reference                      10.1021/acs.jctc.8b01176
      * Hamiltonian:
        H0-scaling (s, p, d)           1.850000    2.230000    2.230000
        zeta-weighting                 0.500000
      * Dispersion:
        s8                             2.700000
        a1                             0.520000
        a2                             5.000000
        s9                             5.000000
      * Repulsion:
        kExp                           1.500000    1.000000
        rExp                           1.000000
      * Coulomb:
        alpha                          2.000000
        third order                    shell-resolved
        anisotropic                    true
        a3                             3.000000
        a5                             4.000000
        cn-shift                       1.200000
        cn-exp                         4.000000
        max-rad                        5.000000


          ...................................................
          :                      SETUP                      :
          :.................................................:
          :  # basis functions                 658          :
          :  # atomic orbitals                 647          :
          :  # shells                          347          :
          :  # electrons                       634          :
          :  max. iterations                   250          :
          :  Hamiltonian                  GFN2-xTB          :
          :  restarted?                      false          :
          :  GBSA solvation                  false          :
          :  PC potential                    false          :
          :  electronic temp.          300.0000000     K    :
          :  accuracy                    1.0000000          :
          :  -> integral cutoff          0.2500000E+02      :
          :  -> integral neglect         0.1000000E-07      :
          :  -> SCF convergence          0.1000000E-05 Eh   :
          :  -> wf. convergence          0.1000000E-03 e    :
          :  Broyden damping             0.4000000          :
          ...................................................

 iter      E             dE          RMSdq      gap      omega  full diag
   1   -348.2193129 -0.348219E+03  0.454E+00    1.12       0.0  T
   2   -348.5452751 -0.325962E+00  0.276E+00    0.74       1.0  T
   3   -347.8757587  0.669516E+00  0.238E+00    0.41       1.0  T
   4   -348.4011140 -0.525355E+00  0.144E+00    0.73       1.0  T
   5   -348.8232583 -0.422144E+00  0.587E-01    0.09       1.0  T
   6   -348.8668304 -0.435721E-01  0.290E-01    0.64       1.0  T
   7   -348.8777738 -0.109434E-01  0.163E-01    0.43       1.0  T
   8   -348.8800331 -0.225936E-02  0.994E-02    0.47       1.0  T
   9   -348.8805329 -0.499798E-03  0.591E-02    0.46       1.0  T
  10   -348.8811755 -0.642589E-03  0.291E-02    0.38       1.0  T
  11   -348.8812288 -0.532770E-04  0.149E-02    0.35       1.0  T
  12   -348.8812526 -0.237885E-04  0.584E-03    0.33       1.2  T
  13   -348.8812562 -0.362195E-05  0.275E-03    0.32       2.5  T
  14   -348.8812564 -0.234748E-06  0.161E-03    0.32       4.3  T
  15   -348.8812568 -0.313382E-06  0.757E-04    0.33       9.2  T
  16   -348.8812568 -0.579300E-07  0.329E-04    0.33      21.1  T

   *** convergence criteria satisfied after 16 iterations ***

         #    Occupation            Energy/Eh            Energy/eV
      -------------------------------------------------------------
         1        2.0000           -0.8244210             -22.4336
       ...           ...                  ...                  ...
       311        2.0000           -0.3763086             -10.2399
       312        2.0000           -0.3738555             -10.1731
       313        2.0000           -0.3695587             -10.0562
       314        2.0000           -0.3682891             -10.0217
       315        2.0000           -0.3641828              -9.9099
       316        1.9999           -0.3624298              -9.8622
       317        1.9964           -0.3586219              -9.7586 (HOMO)
       318        0.0036           -0.3466149              -9.4319 (LUMO)
       319                         -0.3230678              -8.7911
       320                         -0.3154453              -8.5837
       321                         -0.3011663              -8.1952
       322                         -0.2983911              -8.1196
       ...                                ...                  ...
       647                          1.0730982              29.2005
      -------------------------------------------------------------
                  HL-Gap            0.0120071 Eh            0.3267 eV
             Fermi-level           -0.3526085 Eh           -9.5950 eV

 SCC (total)                   0 d,  0 h,  0 min,  1.208 sec
 SCC setup                      ...        0 min,  0.003 sec (  0.240%)
 Dispersion                     ...        0 min,  0.011 sec (  0.946%)
 classical contributions        ...        0 min,  0.001 sec (  0.054%)
 integral evaluation            ...        0 min,  0.044 sec (  3.650%)
 iterations                     ...        0 min,  0.986 sec ( 81.593%)
 molecular gradient             ...        0 min,  0.158 sec ( 13.076%)
 printout                       ...        0 min,  0.005 sec (  0.436%)

         :::::::::::::::::::::::::::::::::::::::::::::::::::::
         ::                     SUMMARY                     ::
         :::::::::::::::::::::::::::::::::::::::::::::::::::::
         :: total energy            -343.508249642186 Eh    ::
         :: gradient norm              0.964652027027 Eh/a0 ::
         :: HOMO-LUMO gap              0.326729246958 eV    ::
         ::.................................................::
         :: SCC energy              -348.881256818380 Eh    ::
         :: -> isotropic ES            0.186778330225 Eh    ::
         :: -> anisotropic ES          0.024531809335 Eh    ::
         :: -> anisotropic XC          0.172564149814 Eh    ::
         :: -> dispersion             -0.323652325977 Eh    ::
         :: repulsion energy           5.368969302178 Eh    ::
         :: add. restraining           0.000000000000 Eh    ::
         :: total charge              -0.000000000002 e     ::
         :::::::::::::::::::::::::::::::::::::::::::::::::::::

      ----------------------------------------------------------- 
     |                   =====================                   |
     |                        A N C O P T                        |
     |                   =====================                   |
     |               Approximate Normal Coordinate               |
     |                Rational Function Optimizer                |
      ----------------------------------------------------------- 

          ...................................................
          :                      SETUP                      :
          :.................................................:
          :   optimization level            normal          :
          :   max. optcycles                   624          :
          :   ANC micro-cycles                  20          :
          :   degrees of freedom               618          :
          :.................................................:
          :   RF solver                   davidson          :
          :   write xtbopt.log                true          :
          :   linear?                        false          :
          :   energy convergence         0.5000000E-05 Eh   :
          :   grad. convergence          0.1000000E-02 Eh/α :
          :   maximium RF displ.         1.0000000          :
          :   Hlow (freq-cutoff)         0.1000000E-01      :
          :   Hmax (freq-cutoff)         5.0000000          :
          :   S6 in model hess.         20.0000000          :
          ...................................................

generating ANC from model Hessian ...
Using Lindh-Hessian (1995)
 Shifting diagonal of input Hessian by   9.998881939697389E-003
 Lowest  eigenvalues of input Hessian
    0.000000    0.000000    0.000000    0.000000    0.000000    0.000000
    0.010000    0.010002    0.010007    0.010015    0.010029    0.010046
    0.010053    0.010071    0.010076    0.010078    0.010099    0.010124
 Highest eigenvalues
    2.338303    2.353989    2.380756    2.470465    2.486786    2.534308
 

........................................................................
.............................. CYCLE    1 ..............................
........................................................................
   1   -348.8812568 -0.348881E+03  0.197E-04    0.33       0.0  T
   2   -348.8812568  0.134708E-08  0.165E-04    0.33      42.1  T
   3   -348.8812568 -0.368959E-08  0.102E-04    0.33      67.9  T
     SCC iter.                  ...        0 min,  0.187 sec
     gradient                   ...        0 min,  0.155 sec
 * total energy  :  -343.5082497 Eh     change       -0.1078587E-07 Eh
   gradient norm :     0.9646514 Eh/α   predicted     0.0000000E+00 (-100.00%)
   displ. norm   :     0.5667564 α      lambda       -0.4851027E+00
   maximum displ.:     0.1281837 α      in ANC's #569, #615, #444, ...

........................................................................
.............................. CYCLE    2 ..............................
........................................................................
   1   -349.0949559 -0.349095E+03  0.399E-01    0.53       0.0  T
   2   -349.0987985 -0.384262E-02  0.245E-01    0.48       1.0  T
   3   -349.0964559  0.234268E-02  0.151E-01    0.49       1.0  T
   4   -349.0988549 -0.239907E-02  0.777E-02    0.43       1.0  T
   5   -349.0997277 -0.872757E-03  0.388E-02    0.47       1.0  T
   6   -349.0999205 -0.192774E-03  0.179E-02    0.46       1.0  T
   7   -349.0999583 -0.377973E-04  0.727E-03    0.47       1.0  T
   8   -349.0999668 -0.856771E-05  0.345E-03    0.46       2.0  T
   9   -349.0999685 -0.163248E-05  0.165E-03    0.46       4.2  T
  10   -349.0999686 -0.115234E-06  0.960E-04    0.46       7.2  T
  11   -349.0999686 -0.643265E-07  0.403E-04    0.46      17.2  T
     SCC iter.                  ...        0 min,  0.671 sec
     gradient                   ...        0 min,  0.152 sec
 * total energy  :  -343.8889287 Eh     change       -0.3806790E+00 Eh
   gradient norm :     0.5263637 Eh/α   predicted    -0.3204809E+00 ( -15.81%)
   displ. norm   :     0.5965740 α      lambda       -0.2775493E+00
   maximum displ.:     0.1232797 α      in ANC's #569, #578, #444, ...

........................................................................
.............................. CYCLE    3 ..............................
........................................................................
   1   -349.2866609 -0.349287E+03  0.391E-01    0.65       0.0  T
   2   -349.2906407 -0.397986E-02  0.227E-01    0.63       1.0  T
   3   -349.2890475  0.159325E-02  0.142E-01    0.65       1.0  T
   4   -349.2909615 -0.191402E-02  0.652E-02    0.59       1.0  T
   5   -349.2915932 -0.631695E-03  0.324E-02    0.63       1.0  T
   6   -349.2917498 -0.156609E-03  0.103E-02    0.62       1.0  T
   7   -349.2917616 -0.117829E-04  0.468E-03    0.62       1.5  T
   8   -349.2917639 -0.228193E-05  0.220E-03    0.62       3.2  T
   9   -349.2917644 -0.521300E-06  0.122E-03    0.62       5.7  T
  10   -349.2917645 -0.713505E-07  0.621E-04    0.62      11.2  T
  11   -349.2917645 -0.306916E-07  0.280E-04    0.62      24.8  T
     SCC iter.                  ...        0 min,  0.889 sec
     gradient                   ...        0 min,  0.131 sec
 * total energy  :  -344.0590725 Eh     change       -0.1701438E+00 Eh
   gradient norm :     0.3173534 Eh/α   predicted    -0.1881646E+00 (  10.59%)
   displ. norm   :     0.5999589 α      lambda       -0.1257462E+00
   maximum displ.:     0.1007397 α      in ANC's #443, #116, #471, ...

........................................................................
.............................. CYCLE    4 ..............................
........................................................................
   1   -349.2348133 -0.349235E+03  0.309E-01    0.61       0.0  T
   2   -349.2359944 -0.118111E-02  0.187E-01    0.57       1.0  T
   3   -349.2339842  0.201014E-02  0.133E-01    0.63       1.0  T
   4   -349.2369126 -0.292835E-02  0.425E-02    0.60       1.0  T
   5   -349.2371874 -0.274852E-03  0.191E-02    0.60       1.0  T
   6   -349.2372313 -0.438446E-04  0.785E-03    0.60       1.0  T
   7   -349.2372382 -0.689594E-05  0.407E-03    0.60       1.7  T
   8   -349.2372397 -0.157947E-05  0.190E-03    0.60       3.7  T
   9   -349.2372401 -0.322308E-06  0.115E-03    0.60       6.0  T
  10   -349.2372401 -0.541907E-07  0.586E-04    0.60      11.8  T
  11   -349.2372402 -0.481033E-07  0.221E-04    0.60      31.4  T
     SCC iter.                  ...        0 min,  0.618 sec
     gradient                   ...        0 min,  0.143 sec
 * total energy  :  -344.1223796 Eh     change       -0.6330710E-01 Eh
   gradient norm :     0.1665540 Eh/α   predicted    -0.8550449E-01 (  35.06%)
   displ. norm   :     0.6383238 α      lambda       -0.5010584E-01
   maximum displ.:     0.1326671 α      in ANC's #116, #174, #162, ...

........................................................................
.............................. CYCLE    5 ..............................
........................................................................
   1   -349.2456926 -0.349246E+03  0.213E-01    0.62       0.0  T
   2   -349.2459294 -0.236864E-03  0.124E-01    0.59       1.0  T
   3   -349.2447315  0.119793E-02  0.867E-02    0.64       1.0  T
   4   -349.2461235 -0.139197E-02  0.201E-02    0.60       1.0  T
   5   -349.2461777 -0.542283E-04  0.113E-02    0.61       1.0  T
   6   -349.2461981 -0.204014E-04  0.417E-03    0.60       1.7  T
   7   -349.2461994 -0.127852E-05  0.210E-03    0.60       3.3  T
   8   -349.2461998 -0.441461E-06  0.121E-03    0.60       5.7  T
   9   -349.2461999 -0.899443E-07  0.656E-04    0.60      10.6  T
  10   -349.2462000 -0.410618E-07  0.262E-04    0.60      26.4  T
     SCC iter.                  ...        0 min,  0.556 sec
     gradient                   ...        0 min,  0.147 sec
 * total energy  :  -344.1596019 Eh     change       -0.3722230E-01 Eh
   gradient norm :     0.0685361 Eh/α   predicted    -0.3526083E-01 (  -5.27%)
   displ. norm   :     0.6980805 α      lambda       -0.2868520E-01
   maximum displ.:     0.1739692 α      in ANC's #116, #103, #69, ...

........................................................................
.............................. CYCLE    6 ..............................
........................................................................
   1   -349.2759680 -0.349276E+03  0.201E-01    0.67       0.0  T
   2   -349.2761010 -0.132953E-03  0.119E-01    0.66       1.0  T
   3   -349.2751113  0.989615E-03  0.774E-02    0.65       1.0  T
   4   -349.2762344 -0.112309E-02  0.151E-02    0.66       1.0  T
   5   -349.2762483 -0.138174E-04  0.986E-03    0.66       1.0  T
   6   -349.2762579 -0.964412E-05  0.349E-03    0.66       2.0  T
   7   -349.2762589 -0.999213E-06  0.169E-03    0.66       4.1  T
   8   -349.2762590 -0.146522E-06  0.115E-03    0.66       6.0  T
   9   -349.2762591 -0.733790E-07  0.548E-04    0.66      12.7  T
  10   -349.2762591 -0.254838E-07  0.227E-04    0.66      30.5  T
     SCC iter.                  ...        0 min,  0.543 sec
     gradient                   ...        0 min,  0.132 sec
 * total energy  :  -344.1791013 Eh     change       -0.1949945E-01 Eh
   gradient norm :     0.0584851 Eh/α   predicted    -0.2133197E-01 (   9.40%)
   displ. norm   :     0.7131882 α      lambda       -0.1684665E-01
   maximum displ.:     0.1729163 α      in ANC's #76, #38, #106, ...

........................................................................
.............................. CYCLE    7 ..............................
........................................................................
   1   -349.3002548 -0.349300E+03  0.208E-01    0.63       0.0  T
   2   -349.3003760 -0.121198E-03  0.118E-01    0.62       1.0  T
   3   -349.2994316  0.944361E-03  0.718E-02    0.65       1.0  T
   4   -349.3005174 -0.108579E-02  0.121E-02    0.63       1.0  T
   5   -349.3005276 -0.102020E-04  0.755E-03    0.63       1.0  T
   6   -349.3005341 -0.650856E-05  0.276E-03    0.63       2.5  T
   7   -349.3005348 -0.679958E-06  0.132E-03    0.63       5.3  T
   8   -349.3005349 -0.144026E-06  0.791E-04    0.63       8.8  T
   9   -349.3005350 -0.485468E-07  0.388E-04    0.63      17.9  T
     SCC iter.                  ...        0 min,  0.504 sec
     gradient                   ...        0 min,  0.134 sec
 * total energy  :  -344.1920354 Eh     change       -0.1293409E-01 Eh
   gradient norm :     0.0275976 Eh/α   predicted    -0.1270774E-01 (  -1.75%)
   displ. norm   :     0.7232187 α      lambda       -0.1096990E-01
   maximum displ.:     0.2121651 α      in ANC's #38, #76, #69, ...

........................................................................
.............................. CYCLE    8 ..............................
........................................................................
   1   -349.3136253 -0.349314E+03  0.131E-01    0.62       0.0  T
   2   -349.3136669 -0.416028E-04  0.745E-02    0.62       1.0  T
   3   -349.3134363  0.230655E-03  0.366E-02    0.62       1.0  T
   4   -349.3136977 -0.261439E-03  0.861E-03    0.63       1.0  T
   5   -349.3137018 -0.404445E-05  0.508E-03    0.62       1.4  T
   6   -349.3137050 -0.321332E-05  0.176E-03    0.62       3.9  T
   7   -349.3137053 -0.311907E-06  0.815E-04    0.62       8.5  T
   8   -349.3137054 -0.595208E-07  0.449E-04    0.62      15.4  T
     SCC iter.                  ...        0 min,  0.446 sec
     gradient                   ...        0 min,  0.146 sec
 * total energy  :  -344.2008912 Eh     change       -0.8855816E-02 Eh
   gradient norm :     0.0286178 Eh/α   predicted    -0.8353829E-02 (  -5.67%)
   displ. norm   :     0.7690101 α      lambda       -0.8791068E-02
   maximum displ.:     0.2847668 α      in ANC's #38, #76, #69, ...

........................................................................
.............................. CYCLE    9 ..............................
........................................................................
   1   -349.3439695 -0.349344E+03  0.123E-01    0.63       0.0  T
   2   -349.3440054 -0.358884E-04  0.687E-02    0.63       1.0  T
   3   -349.3438373  0.168106E-03  0.284E-02    0.63       1.0  T
   4   -349.3440267 -0.189436E-03  0.774E-03    0.63       1.0  T
   5   -349.3440304 -0.368502E-05  0.429E-03    0.63       1.6  T
   6   -349.3440327 -0.231189E-05  0.146E-03    0.63       4.7  T
   7   -349.3440330 -0.264177E-06  0.747E-04    0.63       9.3  T
   8   -349.3440330 -0.761543E-07  0.369E-04    0.63      18.8  T
     SCC iter.                  ...        0 min,  0.441 sec
     gradient                   ...        0 min,  0.131 sec
 * total energy  :  -344.2079961 Eh     change       -0.7104854E-02 Eh
   gradient norm :     0.0244505 Eh/α   predicted    -0.6994959E-02 (  -1.55%)
   displ. norm   :     0.7891419 α      lambda       -0.7283749E-02
   maximum displ.:     0.3047791 α      in ANC's #38, #76, #39, ...

........................................................................
.............................. CYCLE   10 ..............................
........................................................................
   1   -349.3501963 -0.349350E+03  0.128E-01    0.61       0.0  T
   2   -349.3502389 -0.426723E-04  0.707E-02    0.61       1.0  T
   3   -349.3500834  0.155566E-03  0.300E-02    0.62       1.0  T
   4   -349.3502658 -0.182429E-03  0.730E-03    0.61       1.0  T
   5   -349.3502670 -0.122120E-05  0.433E-03    0.61       1.6  T
   6   -349.3502699 -0.284487E-05  0.155E-03    0.61       4.5  T
   7   -349.3502702 -0.376942E-06  0.640E-04    0.61      10.8  T
   8   -349.3502703 -0.226947E-07  0.378E-04    0.61      18.3  T
     SCC iter.                  ...        0 min,  0.439 sec
     gradient                   ...        0 min,  0.153 sec
 * total energy  :  -344.2139840 Eh     change       -0.5987849E-02 Eh
   gradient norm :     0.0288905 Eh/α   predicted    -0.5909833E-02 (  -1.30%)
   displ. norm   :     0.7940045 α      lambda       -0.6216093E-02
   maximum displ.:     0.3276857 α      in ANC's #38, #76, #39, ...

........................................................................
.............................. CYCLE   11 ..............................
........................................................................
   1   -349.3659748 -0.349366E+03  0.103E-01    0.62       0.0  T
   2   -349.3660011 -0.262899E-04  0.567E-02    0.62       1.0  T
   3   -349.3659085  0.925357E-04  0.234E-02    0.62       1.0  T
   4   -349.3660141 -0.105613E-03  0.700E-03    0.62       1.0  T
   5   -349.3660161 -0.190813E-05  0.390E-03    0.62       1.8  T
   6   -349.3660179 -0.180602E-05  0.130E-03    0.62       5.3  T
   7   -349.3660181 -0.238253E-06  0.599E-04    0.62      11.6  T
   8   -349.3660181 -0.261858E-07  0.308E-04    0.62      22.5  T
     SCC iter.                  ...        0 min,  0.444 sec
     gradient                   ...        0 min,  0.132 sec
 * total energy  :  -344.2190059 Eh     change       -0.5021981E-02 Eh
   gradient norm :     0.0233092 Eh/α   predicted    -0.5067507E-02 (   0.91%)
   displ. norm   :     0.7966880 α      lambda       -0.5464198E-02
   maximum displ.:     0.3606493 α      in ANC's #38, #76, #45, ...

........................................................................
.............................. CYCLE   12 ..............................
........................................................................
   1   -349.3714796 -0.349371E+03  0.133E-01    0.60       0.0  T
   2   -349.3715202 -0.405994E-04  0.730E-02    0.60       1.0  T
   3   -349.3713885  0.131681E-03  0.274E-02    0.61       1.0  T
   4   -349.3715435 -0.154999E-03  0.705E-03    0.61       1.0  T
   5   -349.3715443 -0.814243E-06  0.471E-03    0.60       1.5  T
   6   -349.3715477 -0.342041E-05  0.152E-03    0.61       4.6  T
   7   -349.3715481 -0.353734E-06  0.688E-04    0.61      10.1  T
   8   -349.3715481 -0.277377E-07  0.413E-04    0.61      16.8  T
     SCC iter.                  ...        0 min,  0.442 sec
     gradient                   ...        0 min,  0.134 sec
 * total energy  :  -344.2236068 Eh     change       -0.4600821E-02 Eh
   gradient norm :     0.0203213 Eh/α   predicted    -0.4466212E-02 (  -2.93%)
   displ. norm   :     0.7946454 α      lambda       -0.4560785E-02
   maximum displ.:     0.3567598 α      in ANC's #38, #39, #27, ...

........................................................................
.............................. CYCLE   13 ..............................
........................................................................
   1   -349.3801782 -0.349380E+03  0.106E-01    0.60       0.0  T
   2   -349.3802022 -0.239820E-04  0.579E-02    0.61       1.0  T
   3   -349.3800835  0.118653E-03  0.247E-02    0.60       1.0  T
   4   -349.3802156 -0.132101E-03  0.713E-03    0.61       1.0  T
   5   -349.3802177 -0.206475E-05  0.439E-03    0.60       1.6  T
   6   -349.3802208 -0.309954E-05  0.133E-03    0.61       5.2  T
   7   -349.3802210 -0.248897E-06  0.662E-04    0.61      10.5  T
   8   -349.3802211 -0.361842E-07  0.384E-04    0.61      18.0  T
     SCC iter.                  ...        0 min,  0.436 sec
     gradient                   ...        0 min,  0.137 sec
 * total energy  :  -344.2275251 Eh     change       -0.3918385E-02 Eh
   gradient norm :     0.0195327 Eh/α   predicted    -0.3720378E-02 (  -5.05%)
   displ. norm   :     0.8240264 α      lambda       -0.4509178E-02
   maximum displ.:     0.3592278 α      in ANC's #38, #32, #27, ...

........................................................................
.............................. CYCLE   14 ..............................
........................................................................
   1   -349.3977716 -0.349398E+03  0.123E-01    0.62       0.0  T
   2   -349.3978212 -0.495054E-04  0.682E-02    0.63       1.0  T
   3   -349.3977517  0.694275E-04  0.219E-02    0.63       1.0  T
   4   -349.3978377 -0.859392E-04  0.666E-03    0.63       1.0  T
   5   -349.3978393 -0.162247E-05  0.340E-03    0.63       2.0  T
   6   -349.3978410 -0.168294E-05  0.139E-03    0.63       5.0  T
   7   -349.3978413 -0.305550E-06  0.596E-04    0.63      11.6  T
   8   -349.3978413 -0.200109E-07  0.344E-04    0.63      20.2  T
     SCC iter.                  ...        0 min,  0.440 sec
     gradient                   ...        0 min,  0.136 sec
 * total energy  :  -344.2305550 Eh     change       -0.3029829E-02 Eh
   gradient norm :     0.0447493 Eh/α   predicted    -0.3785502E-02 (  24.94%)
   displ. norm   :     0.7116352 α      lambda       -0.3723614E-02
   maximum displ.:     0.3079162 α      in ANC's #38, #32, #39, ...

........................................................................
.............................. CYCLE   15 ..............................
........................................................................
   1   -349.3940693 -0.349394E+03  0.114E-01    0.62       0.0  T
   2   -349.3941085 -0.391902E-04  0.628E-02    0.62       1.0  T
   3   -349.3940493  0.592529E-04  0.189E-02    0.62       1.0  T
   4   -349.3941200 -0.706799E-04  0.627E-03    0.62       1.1  T
   5   -349.3941221 -0.213303E-05  0.370E-03    0.62       1.9  T
   6   -349.3941244 -0.233302E-05  0.131E-03    0.62       5.3  T
   7   -349.3941247 -0.253726E-06  0.561E-04    0.62      12.4  T
   8   -349.3941247 -0.373693E-07  0.279E-04    0.62      24.9  T
     SCC iter.                  ...        0 min,  0.442 sec
     gradient                   ...        0 min,  0.150 sec
 * total energy  :  -344.2334471 Eh     change       -0.2892152E-02 Eh
   gradient norm :     0.0159539 Eh/α   predicted    -0.2804675E-02 (  -3.02%)
   displ. norm   :     0.7069154 α      lambda       -0.2543674E-02
   maximum displ.:     0.3002861 α      in ANC's #38, #32, #17, ...

........................................................................
.............................. CYCLE   16 ..............................
........................................................................
   1   -349.4021788 -0.349402E+03  0.955E-02    0.62       0.0  T
   2   -349.4021982 -0.194509E-04  0.526E-02    0.63       1.0  T
   3   -349.4021503  0.479811E-04  0.167E-02    0.62       1.0  T
   4   -349.4022049 -0.546205E-04  0.577E-03    0.63       1.2  T
   5   -349.4022067 -0.180921E-05  0.324E-03    0.62       2.1  T
   6   -349.4022084 -0.169147E-05  0.115E-03    0.63       6.0  T
   7   -349.4022086 -0.236077E-06  0.459E-04    0.63      15.1  T
   8   -349.4022086 -0.252502E-07  0.243E-04    0.63      28.5  T
     SCC iter.                  ...        0 min,  0.445 sec
     gradient                   ...        0 min,  0.149 sec
 * total energy  :  -344.2354547 Eh     change       -0.2007589E-02 Eh
   gradient norm :     0.0234602 Eh/α   predicted    -0.1907414E-02 (  -4.99%)
   displ. norm   :     0.7520874 α      lambda       -0.2370236E-02
   maximum displ.:     0.2816475 α      in ANC's #38, #32, #17, ...

........................................................................
.............................. CYCLE   17 ..............................
........................................................................
   1   -349.3981284 -0.349398E+03  0.885E-02    0.63       0.0  T
   2   -349.3981492 -0.208002E-04  0.483E-02    0.64       1.0  T
   3   -349.3981148  0.343762E-04  0.155E-02    0.64       1.0  T
   4   -349.3981534 -0.385772E-04  0.626E-03    0.63       1.1  T
   5   -349.3981556 -0.225385E-05  0.331E-03    0.64       2.1  T
   6   -349.3981572 -0.157976E-05  0.131E-03    0.63       5.3  T
   7   -349.3981575 -0.325952E-06  0.501E-04    0.64      13.8  T
   8   -349.3981576 -0.289094E-07  0.282E-04    0.64      24.6  T
     SCC iter.                  ...        0 min,  0.437 sec
     gradient                   ...        0 min,  0.153 sec
 * total energy  :  -344.2371617 Eh     change       -0.1707030E-02 Eh
   gradient norm :     0.0191931 Eh/α   predicted    -0.1855469E-02 (   8.70%)
   displ. norm   :     0.6185437 α      lambda       -0.2240839E-02
   maximum displ.:     0.1954502 α      in ANC's #17, #38, #32, ...

........................................................................
.............................. CYCLE   18 ..............................
........................................................................
   1   -349.4213889 -0.349421E+03  0.758E-02    0.64       0.0  T
   2   -349.4214087 -0.197598E-04  0.425E-02    0.64       1.0  T
   3   -349.4213397  0.689459E-04  0.185E-02    0.65       1.0  T
   4   -349.4214134 -0.736336E-04  0.594E-03    0.64       1.2  T
   5   -349.4214178 -0.441362E-05  0.298E-03    0.64       2.3  T
   6   -349.4214188 -0.103660E-05  0.127E-03    0.64       5.5  T
   7   -349.4214190 -0.225520E-06  0.485E-04    0.64      14.3  T
   8   -349.4214191 -0.314881E-07  0.247E-04    0.64      28.1  T
     SCC iter.                  ...        0 min,  0.443 sec
     gradient                   ...        0 min,  0.144 sec
 * total energy  :  -344.2385528 Eh     change       -0.1391085E-02 Eh
   gradient norm :     0.0170466 Eh/α   predicted    -0.1549090E-02 (  11.36%)
   displ. norm   :     0.6383710 α      lambda       -0.1834372E-02
   maximum displ.:     0.1990480 α      in ANC's #17, #38, #32, ...

........................................................................
.............................. CYCLE   19 ..............................
........................................................................
   1   -349.4137025 -0.349414E+03  0.903E-02    0.64       0.0  T
   2   -349.4137204 -0.179007E-04  0.496E-02    0.64       1.0  T
   3   -349.4136888  0.315094E-04  0.142E-02    0.64       1.0  T
   4   -349.4137254 -0.365559E-04  0.565E-03    0.64       1.2  T
   5   -349.4137276 -0.218728E-05  0.263E-03    0.64       2.6  T
   6   -349.4137284 -0.781883E-06  0.104E-03    0.64       6.6  T
   7   -349.4137285 -0.153919E-06  0.416E-04    0.64      16.6  T
   8   -349.4137285 -0.809393E-08  0.271E-04    0.64      25.6  T
     SCC iter.                  ...        0 min,  0.437 sec
     gradient                   ...        0 min,  0.140 sec
 * total energy  :  -344.2398514 Eh     change       -0.1298590E-02 Eh
   gradient norm :     0.0160863 Eh/α   predicted    -0.1290957E-02 (  -0.59%)
   displ. norm   :     0.6530156 α      lambda       -0.1690618E-02
   maximum displ.:     0.2102121 α      in ANC's #17, #32, #33, ...

........................................................................
.............................. CYCLE   20 ..............................
........................................................................
   1   -349.4049106 -0.349405E+03  0.924E-02    0.64       0.0  T
   2   -349.4049402 -0.295991E-04  0.509E-02    0.64       1.0  T
   3   -349.4049013  0.389315E-04  0.166E-02    0.64       1.0  T
   4   -349.4049463 -0.450058E-04  0.612E-03    0.64       1.1  T
   5   -349.4049498 -0.348934E-05  0.272E-03    0.64       2.5  T
   6   -349.4049502 -0.370766E-06  0.156E-03    0.64       4.4  T
   7   -349.4049505 -0.372893E-06  0.469E-04    0.64      14.8  T
   8   -349.4049506 -0.217890E-07  0.263E-04    0.64      26.4  T
     SCC iter.                  ...        0 min,  0.443 sec
     gradient                   ...        0 min,  0.146 sec
 * total energy  :  -344.2406151 Eh     change       -0.7636904E-03 Eh
   gradient norm :     0.0299664 Eh/α   predicted    -0.1205777E-02 (  57.89%)
   displ. norm   :     0.4560623 α      lambda       -0.1937424E-02
   maximum displ.:     0.1571322 α      in ANC's #17, #33, #26, ...
 * RMSD in coord.:     0.7066046 α      energy gain  -0.7323655E+00 Eh

generating ANC from model Hessian ...
Using Lindh-Hessian (1995)
 Shifting diagonal of input Hessian by   1.000304542563090E-002
 Lowest  eigenvalues of input Hessian
    0.010000    0.000000    0.000000    0.000000    0.000000    0.000000
    0.000000    0.010007    0.010012    0.010019    0.010037    0.010043
    0.010048    0.010058    0.010067    0.010078    0.010085    0.010104
 Highest eigenvalues
    2.243868    2.284269    2.327761    2.392134    2.591950    2.637545
 

........................................................................
.............................. CYCLE   21 ..............................
........................................................................
   1   -349.4094644 -0.349409E+03  0.549E-02    0.65       0.0  T
   2   -349.4094786 -0.142701E-04  0.302E-02    0.65       1.0  T
   3   -349.4094603  0.183622E-04  0.117E-02    0.65       1.0  T
   4   -349.4094806 -0.203650E-04  0.447E-03    0.65       1.5  T
   5   -349.4094824 -0.180229E-05  0.232E-03    0.65       3.0  T
   6   -349.4094829 -0.440476E-06  0.121E-03    0.65       5.8  T
   7   -349.4094831 -0.228914E-06  0.465E-04    0.65      14.9  T
   8   -349.4094831 -0.185781E-07  0.268E-04    0.65      25.9  T
     SCC iter.                  ...        0 min,  0.436 sec
     gradient                   ...        0 min,  0.155 sec
 * total energy  :  -344.2419649 Eh     change       -0.1349817E-02 Eh
   gradient norm :     0.0155596 Eh/α   predicted     0.0000000E+00 (-100.00%)
   displ. norm   :     0.1853883 α      lambda       -0.7912195E-03
   maximum displ.:     0.0613186 α      in ANC's #17, #59, #34, ...

........................................................................
.............................. CYCLE   22 ..............................
........................................................................
   1   -349.4179238 -0.349418E+03  0.273E-02    0.65       0.0  T
   2   -349.4179255 -0.169152E-05  0.157E-02    0.65       1.0  T
   3   -349.4179110  0.144949E-04  0.897E-03    0.66       1.0  T
   4   -349.4179271 -0.160938E-04  0.204E-03    0.65       3.4  T
   5   -349.4179273 -0.264589E-06  0.125E-03    0.65       5.6  T
   6   -349.4179275 -0.196087E-06  0.540E-04    0.65      12.8  T
   7   -349.4179276 -0.355648E-07  0.257E-04    0.65      27.0  T
     SCC iter.                  ...        0 min,  0.383 sec
     gradient                   ...        0 min,  0.153 sec
 * total energy  :  -344.2425919 Eh     change       -0.6270075E-03 Eh
   gradient norm :     0.0063653 Eh/α   predicted    -0.4092277E-03 ( -34.73%)
   displ. norm   :     0.4818861 α      lambda       -0.1272783E-02
   maximum displ.:     0.1646043 α      in ANC's #17, #59, #56, ...

........................................................................
.............................. CYCLE   23 ..............................
........................................................................
   1   -349.4247002 -0.349425E+03  0.753E-02    0.65       0.0  T
   2   -349.4247139 -0.136716E-04  0.422E-02    0.66       1.0  T
   3   -349.4246902  0.237304E-04  0.123E-02    0.66       1.0  T
   4   -349.4247198 -0.296093E-04  0.358E-03    0.66       1.9  T
   5   -349.4247203 -0.535231E-06  0.216E-03    0.66       3.2  T
   6   -349.4247208 -0.448407E-06  0.852E-04    0.66       8.1  T
   7   -349.4247208 -0.923877E-07  0.425E-04    0.66      16.3  T
     SCC iter.                  ...        0 min,  0.385 sec
     gradient                   ...        0 min,  0.148 sec
 * total energy  :  -344.2435269 Eh     change       -0.9349706E-03 Eh
   gradient norm :     0.0103442 Eh/α   predicted    -0.7843049E-03 ( -16.11%)
   displ. norm   :     0.6064723 α      lambda       -0.1221659E-02
   maximum displ.:     0.2115469 α      in ANC's #17, #59, #56, ...

........................................................................
.............................. CYCLE   24 ..............................
........................................................................
   1   -349.4224842 -0.349422E+03  0.645E-02    0.66       0.0  T
   2   -349.4224913 -0.715091E-05  0.368E-02    0.66       1.0  T
   3   -349.4224664  0.249288E-04  0.123E-02    0.66       1.0  T
   4   -349.4224941 -0.276825E-04  0.374E-03    0.66       1.9  T
   5   -349.4224947 -0.630269E-06  0.221E-03    0.66       3.1  T
   6   -349.4224954 -0.666761E-06  0.740E-04    0.66       9.4  T
   7   -349.4224955 -0.865792E-07  0.338E-04    0.66      20.5  T
     SCC iter.                  ...        0 min,  0.395 sec
     gradient                   ...        0 min,  0.133 sec
 * total energy  :  -344.2443562 Eh     change       -0.8293486E-03 Eh
   gradient norm :     0.0176790 Eh/α   predicted    -0.8355077E-03 (   0.74%)
   displ. norm   :     0.5620926 α      lambda       -0.1117696E-02
   maximum displ.:     0.2047876 α      in ANC's #17, #24, #59, ...

........................................................................
.............................. CYCLE   25 ..............................
........................................................................
   1   -349.4149634 -0.349415E+03  0.824E-02    0.66       0.0  T
   2   -349.4149792 -0.158403E-04  0.460E-02    0.66       1.0  T
   3   -349.4149485  0.307297E-04  0.130E-02    0.66       1.0  T
   4   -349.4149865 -0.379982E-04  0.331E-03    0.66       2.1  T
   5   -349.4149867 -0.236184E-06  0.198E-03    0.66       3.5  T
   6   -349.4149873 -0.544890E-06  0.734E-04    0.66       9.5  T
   7   -349.4149873 -0.660409E-07  0.340E-04    0.66      20.4  T
     SCC iter.                  ...        0 min,  0.384 sec
     gradient                   ...        0 min,  0.152 sec
 * total energy  :  -344.2452249 Eh     change       -0.8686462E-03 Eh
   gradient norm :     0.0162792 Eh/α   predicted    -0.7354155E-03 ( -15.34%)
   displ. norm   :     0.5384929 α      lambda       -0.1348039E-02
   maximum displ.:     0.2141781 α      in ANC's #17, #24, #31, ...

........................................................................
.............................. CYCLE   26 ..............................
........................................................................
   1   -349.4133467 -0.349413E+03  0.642E-02    0.66       0.0  T
   2   -349.4133572 -0.104944E-04  0.358E-02    0.66       1.0  T
   3   -349.4133425  0.146612E-04  0.997E-03    0.66       1.0  T
   4   -349.4133596 -0.171080E-04  0.386E-03    0.66       1.8  T
   5   -349.4133610 -0.139395E-05  0.174E-03    0.66       4.0  T
   6   -349.4133612 -0.236435E-06  0.842E-04    0.66       8.2  T
   7   -349.4133614 -0.113775E-06  0.332E-04    0.66      20.9  T
     SCC iter.                  ...        0 min,  0.383 sec
     gradient                   ...        0 min,  0.155 sec
 * total energy  :  -344.2462087 Eh     change       -0.9838403E-03 Eh
   gradient norm :     0.0133774 Eh/α   predicted    -0.8694648E-03 ( -11.63%)
   displ. norm   :     0.6710132 α      lambda       -0.1116800E-02
   maximum displ.:     0.2664747 α      in ANC's #17, #31, #24, ...

........................................................................
.............................. CYCLE   27 ..............................
........................................................................
   1   -349.4102051 -0.349410E+03  0.632E-02    0.67       0.0  T
   2   -349.4102122 -0.709170E-05  0.353E-02    0.67       1.0  T
   3   -349.4101882  0.239936E-04  0.112E-02    0.67       1.0  T
   4   -349.4102138 -0.255290E-04  0.412E-03    0.67       1.7  T
   5   -349.4102154 -0.158071E-05  0.213E-03    0.67       3.3  T
   6   -349.4102160 -0.625877E-06  0.782E-04    0.67       8.9  T
   7   -349.4102161 -0.982552E-07  0.322E-04    0.67      21.5  T
     SCC iter.                  ...        0 min,  0.383 sec
     gradient                   ...        0 min,  0.140 sec
 * total energy  :  -344.2471049 Eh     change       -0.8961149E-03 Eh
   gradient norm :     0.0120653 Eh/α   predicted    -0.8098275E-03 (  -9.63%)
   displ. norm   :     0.6346869 α      lambda       -0.1158135E-02
   maximum displ.:     0.2650124 α      in ANC's #17, #24, #31, ...

........................................................................
.............................. CYCLE   28 ..............................
........................................................................
   1   -349.4159269 -0.349416E+03  0.638E-02    0.67       0.0  T
   2   -349.4159344 -0.750738E-05  0.352E-02    0.67       1.0  T
   3   -349.4159102  0.242402E-04  0.116E-02    0.67       1.0  T
   4   -349.4159362 -0.259782E-04  0.442E-03    0.67       1.6  T
   5   -349.4159378 -0.161172E-05  0.229E-03    0.67       3.0  T
   6   -349.4159385 -0.723651E-06  0.829E-04    0.67       8.4  T
   7   -349.4159386 -0.115899E-06  0.344E-04    0.67      20.2  T
     SCC iter.                  ...        0 min,  0.383 sec
     gradient                   ...        0 min,  0.142 sec
 * total energy  :  -344.2480238 Eh     change       -0.9189346E-03 Eh
   gradient norm :     0.0114243 Eh/α   predicted    -0.8123289E-03 ( -11.60%)
   displ. norm   :     0.7741084 α      lambda       -0.1113847E-02
   maximum displ.:     0.3185247 α      in ANC's #17, #24, #31, ...

........................................................................
.............................. CYCLE   29 ..............................
........................................................................
   1   -349.4110858 -0.349411E+03  0.764E-02    0.67       0.0  T
   2   -349.4110966 -0.108800E-04  0.425E-02    0.67       1.0  T
   3   -349.4110693  0.273382E-04  0.123E-02    0.67       1.0  T
   4   -349.4110997 -0.304386E-04  0.461E-03    0.67       1.5  T
   5   -349.4111014 -0.163622E-05  0.236E-03    0.67       2.9  T
   6   -349.4111021 -0.747631E-06  0.897E-04    0.67       7.7  T
   7   -349.4111022 -0.119986E-06  0.397E-04    0.67      17.4  T
     SCC iter.                  ...        0 min,  0.382 sec
     gradient                   ...        0 min,  0.148 sec
 * total energy  :  -344.2488895 Eh     change       -0.8657309E-03 Eh
   gradient norm :     0.0142737 Eh/α   predicted    -0.8906614E-03 (   2.88%)
   displ. norm   :     0.6394591 α      lambda       -0.1228954E-02
   maximum displ.:     0.2719207 α      in ANC's #17, #24, #9, ...

........................................................................
.............................. CYCLE   30 ..............................
........................................................................
   1   -349.4232897 -0.349423E+03  0.615E-02    0.68       0.0  T
   2   -349.4232967 -0.698891E-05  0.343E-02    0.68       1.0  T
   3   -349.4232246  0.720559E-04  0.180E-02    0.68       1.0  T
   4   -349.4233031 -0.784691E-04  0.467E-03    0.67       1.5  T
   5   -349.4233049 -0.182580E-05  0.262E-03    0.68       2.6  T
   6   -349.4233058 -0.889074E-06  0.810E-04    0.68       8.6  T
   7   -349.4233059 -0.871431E-07  0.318E-04    0.68      21.8  T
     SCC iter.                  ...        0 min,  0.383 sec
     gradient                   ...        0 min,  0.153 sec
 * total energy  :  -344.2497648 Eh     change       -0.8752933E-03 Eh
   gradient norm :     0.0096577 Eh/α   predicted    -0.8657425E-03 (  -1.09%)
   displ. norm   :     0.7858335 α      lambda       -0.9940880E-03
   maximum displ.:     0.3307638 α      in ANC's #17, #24, #31, ...

........................................................................
.............................. CYCLE   31 ..............................
........................................................................
   1   -349.4160789 -0.349416E+03  0.762E-02    0.68       0.0  T
   2   -349.4160884 -0.950059E-05  0.424E-02    0.68       1.0  T
   3   -349.4160691  0.193037E-04  0.109E-02    0.68       1.0  T
   4   -349.4160908 -0.216923E-04  0.448E-03    0.68       1.5  T
   5   -349.4160923 -0.147564E-05  0.208E-03    0.68       3.3  T
   6   -349.4160929 -0.656081E-06  0.690E-04    0.68      10.0  T
   7   -349.4160930 -0.780171E-07  0.323E-04    0.68      21.4  T
     SCC iter.                  ...        0 min,  0.393 sec
     gradient                   ...        0 min,  0.146 sec
 * total energy  :  -344.2506292 Eh     change       -0.8644060E-03 Eh
   gradient norm :     0.0095120 Eh/α   predicted    -0.8039891E-03 (  -6.99%)
   displ. norm   :     0.7559045 α      lambda       -0.1021923E-02
   maximum displ.:     0.3203723 α      in ANC's #17, #24, #9, ...

........................................................................
.............................. CYCLE   32 ..............................
........................................................................
   1   -349.4166053 -0.349417E+03  0.715E-02    0.68       0.0  T
   2   -349.4166143 -0.893294E-05  0.400E-02    0.69       1.0  T
   3   -349.4166001  0.141878E-04  0.100E-02    0.69       1.0  T
   4   -349.4166166 -0.164882E-04  0.408E-03    0.69       1.7  T
   5   -349.4166177 -0.114834E-05  0.181E-03    0.69       3.8  T
   6   -349.4166182 -0.459908E-06  0.612E-04    0.69      11.3  T
   7   -349.4166182 -0.515557E-07  0.265E-04    0.69      26.2  T
     SCC iter.                  ...        0 min,  0.383 sec
     gradient                   ...        0 min,  0.136 sec
 * total energy  :  -344.2514874 Eh     change       -0.8581365E-03 Eh
   gradient norm :     0.0091928 Eh/α   predicted    -0.8029190E-03 (  -6.43%)
   displ. norm   :     0.7942448 α      lambda       -0.9349118E-03
   maximum displ.:     0.3380453 α      in ANC's #17, #9, #31, ...

........................................................................
.............................. CYCLE   33 ..............................
........................................................................
   1   -349.4160113 -0.349416E+03  0.708E-02    0.69       0.0  T
   2   -349.4160210 -0.970846E-05  0.396E-02    0.69       1.0  T
   3   -349.4160085  0.124869E-04  0.936E-03    0.69       1.0  T
   4   -349.4160216 -0.130812E-04  0.438E-03    0.69       1.6  T
   5   -349.4160238 -0.214919E-05  0.196E-03    0.69       3.5  T
   6   -349.4160243 -0.526294E-06  0.807E-04    0.69       8.6  T
   7   -349.4160244 -0.129088E-06  0.299E-04    0.69      23.2  T
     SCC iter.                  ...        0 min,  0.383 sec
     gradient                   ...        0 min,  0.148 sec
 * total energy  :  -344.2522209 Eh     change       -0.7335422E-03 Eh
   gradient norm :     0.0103676 Eh/α   predicted    -0.7623395E-03 (   3.93%)
   displ. norm   :     0.7546348 α      lambda       -0.1013906E-02
   maximum displ.:     0.3153608 α      in ANC's #17, #9, #31, ...

........................................................................
.............................. CYCLE   34 ..............................
........................................................................
   1   -349.4236622 -0.349424E+03  0.638E-02    0.69       0.0  T
   2   -349.4236704 -0.825491E-05  0.358E-02    0.69       1.0  T
   3   -349.4236567  0.136983E-04  0.962E-03    0.69       1.0  T
   4   -349.4236703 -0.135269E-04  0.434E-03    0.69       1.6  T
   5   -349.4236724 -0.215473E-05  0.203E-03    0.69       3.4  T
   6   -349.4236730 -0.570832E-06  0.805E-04    0.69       8.6  T
   7   -349.4236731 -0.122889E-06  0.265E-04    0.69      26.1  T
     SCC iter.                  ...        0 min,  0.384 sec
     gradient                   ...        0 min,  0.151 sec
 * total energy  :  -344.2529466 Eh     change       -0.7257414E-03 Eh
   gradient norm :     0.0135579 Eh/α   predicted    -0.7956483E-03 (   9.63%)
   displ. norm   :     0.7316900 α      lambda       -0.8678737E-03
   maximum displ.:     0.3029750 α      in ANC's #17, #9, #31, ...

........................................................................
.............................. CYCLE   35 ..............................
........................................................................
   1   -349.4225046 -0.349423E+03  0.784E-02    0.69       0.0  T
   2   -349.4225162 -0.115670E-04  0.440E-02    0.69       1.0  T
   3   -349.4224849  0.312856E-04  0.138E-02    0.69       1.0  T
   4   -349.4225214 -0.365457E-04  0.388E-03    0.69       1.8  T
   5   -349.4225216 -0.188836E-06  0.247E-03    0.69       2.8  T
   6   -349.4225228 -0.121778E-05  0.672E-04    0.69      10.3  T
   7   -349.4225229 -0.571757E-07  0.297E-04    0.69      23.3  T
   8   -349.4225229 -0.558362E-08  0.158E-04    0.69      43.8  T
     SCC iter.                  ...        0 min,  0.443 sec
     gradient                   ...        0 min,  0.147 sec
 * total energy  :  -344.2536277 Eh     change       -0.6810320E-03 Eh
   gradient norm :     0.0149381 Eh/α   predicted    -0.6662526E-03 (  -2.17%)
   displ. norm   :     0.7555573 α      lambda       -0.8831315E-03
   maximum displ.:     0.3131443 α      in ANC's #17, #9, #31, ...

........................................................................
.............................. CYCLE   36 ..............................
........................................................................
   1   -349.4229412 -0.349423E+03  0.616E-02    0.69       0.0  T
   2   -349.4229468 -0.561862E-05  0.347E-02    0.69       1.0  T
   3   -349.4229382  0.857730E-05  0.848E-03    0.69       1.0  T
   4   -349.4229477 -0.950416E-05  0.347E-03    0.69       2.0  T
   5   -349.4229485 -0.782169E-06  0.157E-03    0.69       4.4  T
   6   -349.4229489 -0.345528E-06  0.563E-04    0.69      12.3  T
   7   -349.4229489 -0.478400E-07  0.254E-04    0.69      27.2  T
     SCC iter.                  ...        0 min,  0.392 sec
     gradient                   ...        0 min,  0.131 sec
 * total energy  :  -344.2543522 Eh     change       -0.7245579E-03 Eh
   gradient norm :     0.0068898 Eh/α   predicted    -0.6936456E-03 (  -4.27%)
   displ. norm   :     0.7507603 α      lambda       -0.8167503E-03
   maximum displ.:     0.2899714 α      in ANC's #17, #9, #31, ...

........................................................................
.............................. CYCLE   37 ..............................
........................................................................
   1   -349.4371440 -0.349437E+03  0.600E-02    0.69       0.0  T
   2   -349.4371500 -0.593213E-05  0.341E-02    0.69       1.0  T
   3   -349.4371408  0.916380E-05  0.859E-03    0.69       1.0  T
   4   -349.4371510 -0.101507E-04  0.328E-03    0.69       2.1  T
   5   -349.4371517 -0.781900E-06  0.153E-03    0.69       4.5  T
   6   -349.4371520 -0.278692E-06  0.609E-04    0.69      11.4  T
   7   -349.4371521 -0.557928E-07  0.245E-04    0.69      28.3  T
     SCC iter.                  ...        0 min,  0.385 sec
     gradient                   ...        0 min,  0.147 sec
 * total energy  :  -344.2549469 Eh     change       -0.5947180E-03 Eh
   gradient norm :     0.0132492 Eh/α   predicted    -0.6385523E-03 (   7.37%)
   displ. norm   :     0.8126288 α      lambda       -0.9636193E-03
   maximum displ.:     0.3279600 α      in ANC's #17, #9, #31, ...

........................................................................
.............................. CYCLE   38 ..............................
........................................................................
   1   -349.4254056 -0.349425E+03  0.697E-02    0.69       0.0  T
   2   -349.4254161 -0.104923E-04  0.394E-02    0.69       1.0  T
   3   -349.4253992  0.168515E-04  0.103E-02    0.69       1.0  T
   4   -349.4254171 -0.178713E-04  0.435E-03    0.69       1.6  T
   5   -349.4254195 -0.235667E-05  0.180E-03    0.69       3.8  T
   6   -349.4254197 -0.251890E-06  0.837E-04    0.69       8.3  T
   7   -349.4254198 -0.115315E-06  0.350E-04    0.69      19.8  T
     SCC iter.                  ...        0 min,  0.384 sec
     gradient                   ...        0 min,  0.141 sec
 * total energy  :  -344.2556411 Eh     change       -0.6941287E-03 Eh
   gradient norm :     0.0101345 Eh/α   predicted    -0.7999786E-03 (  15.25%)
   displ. norm   :     0.7455928 α      lambda       -0.7287164E-03
   maximum displ.:     0.2860323 α      in ANC's #17, #9, #31, ...

........................................................................
.............................. CYCLE   39 ..............................
........................................................................
   1   -349.4264466 -0.349426E+03  0.591E-02    0.69       0.0  T
   2   -349.4264511 -0.453188E-05  0.338E-02    0.69       1.0  T
   3   -349.4264457  0.542719E-05  0.659E-03    0.69       1.1  T
   4   -349.4264518 -0.614925E-05  0.296E-03    0.69       2.3  T
   5   -349.4264526 -0.766984E-06  0.135E-03    0.69       5.2  T
   6   -349.4264528 -0.223434E-06  0.499E-04    0.69      13.9  T
   7   -349.4264529 -0.311611E-07  0.225E-04    0.69      30.8  T
     SCC iter.                  ...        0 min,  0.386 sec
     gradient                   ...        0 min,  0.148 sec
 * total energy  :  -344.2562447 Eh     change       -0.6035838E-03 Eh
   gradient norm :     0.0090903 Eh/α   predicted    -0.5669130E-03 (  -6.08%)
   displ. norm   :     0.6870573 α      lambda       -0.8417048E-03
   maximum displ.:     0.2381469 α      in ANC's #17, #9, #7, ...

........................................................................
.............................. CYCLE   40 ..............................
........................................................................
   1   -349.4305863 -0.349431E+03  0.581E-02    0.69       0.0  T
   2   -349.4305920 -0.569858E-05  0.330E-02    0.69       1.0  T
   3   -349.4305795  0.125007E-04  0.914E-03    0.69       1.0  T
   4   -349.4305931 -0.136402E-04  0.343E-03    0.69       2.0  T
   5   -349.4305941 -0.103447E-05  0.151E-03    0.69       4.6  T
   6   -349.4305944 -0.238368E-06  0.604E-04    0.69      11.5  T
   7   -349.4305944 -0.424963E-07  0.248E-04    0.69      27.9  T
     SCC iter.                  ...        0 min,  0.382 sec
     gradient                   ...        0 min,  0.154 sec
 * total energy  :  -344.2568818 Eh     change       -0.6371331E-03 Eh
   gradient norm :     0.0071873 Eh/α   predicted    -0.6195133E-03 (  -2.77%)
   displ. norm   :     0.8090958 α      lambda       -0.7873972E-03
   maximum displ.:     0.2858862 α      in ANC's #17, #9, #31, ...

........................................................................
.............................. CYCLE   41 ..............................
........................................................................
   1   -349.4271189 -0.349427E+03  0.647E-02    0.69       0.0  T
   2   -349.4271243 -0.535583E-05  0.368E-02    0.69       1.0  T
   3   -349.4271141  0.102021E-04  0.841E-03    0.69       1.0  T
   4   -349.4271242 -0.100940E-04  0.397E-03    0.69       1.7  T
   5   -349.4271261 -0.188134E-05  0.170E-03    0.69       4.1  T
   6   -349.4271264 -0.351570E-06  0.673E-04    0.69      10.3  T
   7   -349.4271265 -0.783637E-07  0.300E-04    0.69      23.1  T
     SCC iter.                  ...        0 min,  0.384 sec
     gradient                   ...        0 min,  0.155 sec
 * total energy  :  -344.2574537 Eh     change       -0.5719183E-03 Eh
   gradient norm :     0.0094069 Eh/α   predicted    -0.6514296E-03 (  13.90%)
   displ. norm   :     0.6669819 α      lambda       -0.7405211E-03
   maximum displ.:     0.2232464 α      in ANC's #9, #7, #17, ...

........................................................................
.............................. CYCLE   42 ..............................
........................................................................
   1   -349.4375623 -0.349438E+03  0.549E-02    0.69       0.0  T
   2   -349.4375675 -0.527341E-05  0.317E-02    0.69       1.0  T
   3   -349.4375304  0.371268E-04  0.133E-02    0.69       1.0  T
   4   -349.4375699 -0.395341E-04  0.337E-03    0.69       2.1  T
   5   -349.4375713 -0.135635E-05  0.169E-03    0.69       4.1  T
   6   -349.4375716 -0.348495E-06  0.672E-04    0.69      10.3  T
   7   -349.4375717 -0.500683E-07  0.280E-04    0.69      24.8  T
     SCC iter.                  ...        0 min,  0.383 sec
     gradient                   ...        0 min,  0.136 sec
 * total energy  :  -344.2578978 Eh     change       -0.4440775E-03 Eh
   gradient norm :     0.0120931 Eh/α   predicted    -0.5349782E-03 (  20.47%)
   displ. norm   :     0.7153468 α      lambda       -0.7447463E-03
   maximum displ.:     0.2727696 α      in ANC's #17, #9, #31, ...
 * RMSD in coord.:     0.9593992 α      energy gain  -0.1728268E-01 Eh

generating ANC from model Hessian ...
Using Lindh-Hessian (1995)
 Shifting diagonal of input Hessian by   1.000307349224797E-002
 Lowest  eigenvalues of input Hessian
    0.010000    0.000000    0.000000    0.000000    0.000000    0.000000
    0.000000    0.010007    0.010010    0.010019    0.010021    0.010033
    0.010047    0.010055    0.010072    0.010074    0.010106    0.010113
 Highest eigenvalues
    2.245053    2.285953    2.323727    2.387916    2.610862    2.654391
 

........................................................................
.............................. CYCLE   43 ..............................
........................................................................
   1   -349.4234729 -0.349423E+03  0.614E-02    0.69       0.0  T
   2   -349.4234809 -0.803229E-05  0.347E-02    0.69       1.0  T
   3   -349.4234727  0.826814E-05  0.784E-03    0.69       1.0  T
   4   -349.4234808 -0.815194E-05  0.383E-03    0.69       1.8  T
   5   -349.4234826 -0.175942E-05  0.192E-03    0.69       3.6  T
   6   -349.4234832 -0.590318E-06  0.684E-04    0.69      10.1  T
   7   -349.4234832 -0.798596E-07  0.270E-04    0.69      25.7  T
     SCC iter.                  ...        0 min,  0.384 sec
     gradient                   ...        0 min,  0.138 sec
 * total energy  :  -344.2583245 Eh     change       -0.4267517E-03 Eh
   gradient norm :     0.0098460 Eh/α   predicted     0.0000000E+00 (-100.00%)
   displ. norm   :     0.0909070 α      lambda       -0.2919349E-03
   maximum displ.:     0.0283679 α      in ANC's #5, #17, #8, ...

........................................................................
.............................. CYCLE   44 ..............................
........................................................................
   1   -349.4303451 -0.349430E+03  0.162E-02    0.69       0.0  T
   2   -349.4303465 -0.137363E-05  0.917E-03    0.69       1.0  T
   3   -349.4303423  0.416051E-05  0.503E-03    0.69       1.4  T
   4   -349.4303468 -0.453299E-05  0.149E-03    0.69       4.6  T
   5   -349.4303472 -0.356512E-06  0.653E-04    0.69      10.6  T
   6   -349.4303472 -0.405790E-07  0.305E-04    0.69      22.7  T
     SCC iter.                  ...        0 min,  0.330 sec
     gradient                   ...        0 min,  0.147 sec
 * total energy  :  -344.2585266 Eh     change       -0.2021118E-03 Eh
   gradient norm :     0.0034698 Eh/α   predicted    -0.1472577E-03 ( -27.14%)
   displ. norm   :     0.1770742 α      lambda       -0.2321739E-03
   maximum displ.:     0.0639105 α      in ANC's #5, #17, #8, ...

........................................................................
.............................. CYCLE   45 ..............................
........................................................................
   1   -349.4366409 -0.349437E+03  0.344E-02    0.69       0.0  T
   2   -349.4366445 -0.356483E-05  0.191E-02    0.69       1.0  T
   3   -349.4366389  0.557527E-05  0.557E-03    0.69       1.2  T
   4   -349.4366457 -0.673332E-05  0.182E-03    0.69       3.8  T
   5   -349.4366461 -0.407531E-06  0.948E-04    0.69       7.3  T
   6   -349.4366462 -0.106198E-06  0.360E-04    0.69      19.3  T
     SCC iter.                  ...        0 min,  0.329 sec
     gradient                   ...        0 min,  0.149 sec
 * total energy  :  -344.2586336 Eh     change       -0.1069642E-03 Eh
   gradient norm :     0.0056299 Eh/α   predicted    -0.1197464E-03 (  11.95%)
   displ. norm   :     0.2776874 α      lambda       -0.3182520E-03
   maximum displ.:     0.1044100 α      in ANC's #5, #17, #8, ...

........................................................................
.............................. CYCLE   46 ..............................
........................................................................
   1   -349.4412728 -0.349441E+03  0.521E-02    0.69       0.0  T
   2   -349.4412797 -0.688336E-05  0.288E-02    0.69       1.0  T
   3   -349.4412780  0.173626E-05  0.489E-03    0.69       1.4  T
   4   -349.4412820 -0.405821E-05  0.206E-03    0.69       3.4  T
   5   -349.4412823 -0.254319E-06  0.105E-03    0.69       6.6  T
   6   -349.4412824 -0.152243E-06  0.401E-04    0.69      17.3  T
   7   -349.4412824 -0.201618E-07  0.185E-04    0.69      37.5  T
     SCC iter.                  ...        0 min,  0.383 sec
     gradient                   ...        0 min,  0.152 sec
 * total energy  :  -344.2587846 Eh     change       -0.1510108E-03 Eh
   gradient norm :     0.0089452 Eh/α   predicted    -0.1713967E-03 (  13.50%)
   displ. norm   :     0.2041912 α      lambda       -0.2284346E-03
   maximum displ.:     0.0844512 α      in ANC's #5, #17, #8, ...

........................................................................
.............................. CYCLE   47 ..............................
........................................................................
   1   -349.4381086 -0.349438E+03  0.250E-02    0.69       0.0  T
   2   -349.4381097 -0.111545E-05  0.139E-02    0.69       1.0  T
   3   -349.4381077  0.208075E-05  0.366E-03    0.69       1.9  T
   4   -349.4381101 -0.241161E-05  0.137E-03    0.69       5.1  T
   5   -349.4381102 -0.978160E-07  0.731E-04    0.69       9.5  T
   6   -349.4381103 -0.998274E-07  0.252E-04    0.69      27.5  T
     SCC iter.                  ...        0 min,  0.331 sec
     gradient                   ...        0 min,  0.131 sec
 * total energy  :  -344.2589795 Eh     change       -0.1948980E-03 Eh
   gradient norm :     0.0064914 Eh/α   predicted    -0.1189823E-03 ( -38.95%)
   displ. norm   :     0.5301476 α      lambda       -0.5229867E-03
   maximum displ.:     0.2230708 α      in ANC's #5, #17, #8, ...

........................................................................
.............................. CYCLE   48 ..............................
........................................................................
   1   -349.4274289 -0.349427E+03  0.570E-02    0.69       0.0  T
   2   -349.4274352 -0.634067E-05  0.316E-02    0.69       1.0  T
   3   -349.4274283  0.694784E-05  0.735E-03    0.69       1.0  T
   4   -349.4274360 -0.774572E-05  0.363E-03    0.69       1.9  T
   5   -349.4274371 -0.111594E-05  0.178E-03    0.69       3.9  T
   6   -349.4274377 -0.527092E-06  0.553E-04    0.69      12.5  T
   7   -349.4274377 -0.536563E-07  0.244E-04    0.69      28.4  T
     SCC iter.                  ...        0 min,  0.390 sec
     gradient                   ...        0 min,  0.130 sec
 * total energy  :  -344.2593258 Eh     change       -0.3463217E-03 Eh
   gradient norm :     0.0050854 Eh/α   predicted    -0.3350074E-03 (  -3.27%)
   displ. norm   :     0.4840891 α      lambda       -0.2660012E-03
   maximum displ.:     0.2100740 α      in ANC's #5, #17, #8, ...

........................................................................
.............................. CYCLE   49 ..............................
........................................................................
   1   -349.4256074 -0.349426E+03  0.469E-02    0.69       0.0  T
   2   -349.4256100 -0.260065E-05  0.261E-02    0.69       1.0  T
   3   -349.4256085  0.150989E-05  0.461E-03    0.69       1.5  T
   4   -349.4256103 -0.181917E-05  0.258E-03    0.69       2.7  T
   5   -349.4256109 -0.533415E-06  0.861E-04    0.69       8.1  T
   6   -349.4256110 -0.123648E-06  0.334E-04    0.69      20.7  T
     SCC iter.                  ...        0 min,  0.331 sec
     gradient                   ...        0 min,  0.132 sec
 * total energy  :  -344.2595476 Eh     change       -0.2217297E-03 Eh
   gradient norm :     0.0064736 Eh/α   predicted    -0.1641690E-03 ( -25.96%)
   displ. norm   :     0.5384662 α      lambda       -0.3499245E-03
   maximum displ.:     0.2434500 α      in ANC's #5, #17, #8, ...

........................................................................
.............................. CYCLE   50 ..............................
........................................................................
   1   -349.4281495 -0.349428E+03  0.477E-02    0.68       0.0  T
   2   -349.4281518 -0.230452E-05  0.268E-02    0.68       1.0  T
   3   -349.4281493  0.243730E-05  0.485E-03    0.68       1.4  T
   4   -349.4281517 -0.232769E-05  0.278E-03    0.68       2.5  T
   5   -349.4281524 -0.749633E-06  0.118E-03    0.68       5.9  T
   6   -349.4281527 -0.285288E-06  0.335E-04    0.68      20.7  T
   7   -349.4281527 -0.133483E-07  0.178E-04    0.68      38.9  T
     SCC iter.                  ...        0 min,  0.386 sec
     gradient                   ...        0 min,  0.131 sec
 * total energy  :  -344.2598618 Eh     change       -0.3142523E-03 Eh
   gradient norm :     0.0056662 Eh/α   predicted    -0.2256937E-03 ( -28.18%)
   displ. norm   :     0.6602970 α      lambda       -0.4850046E-03
   maximum displ.:     0.3057555 α      in ANC's #5, #17, #8, ...

........................................................................
.............................. CYCLE   51 ..............................
........................................................................
   1   -349.4333410 -0.349433E+03  0.556E-02    0.68       0.0  T
   2   -349.4333439 -0.296207E-05  0.316E-02    0.68       1.0  T
   3   -349.4333383  0.566172E-05  0.636E-03    0.68       1.1  T
   4   -349.4333443 -0.600105E-05  0.294E-03    0.68       2.4  T
   5   -349.4333450 -0.694450E-06  0.132E-03    0.68       5.3  T
   6   -349.4333453 -0.332863E-06  0.449E-04    0.68      15.5  T
   7   -349.4333453 -0.302593E-07  0.219E-04    0.68      31.6  T
     SCC iter.                  ...        0 min,  0.382 sec
     gradient                   ...        0 min,  0.147 sec
 * total energy  :  -344.2602870 Eh     change       -0.4251428E-03 Eh
   gradient norm :     0.0042694 Eh/α   predicted    -0.3482306E-03 ( -18.09%)
   displ. norm   :     0.7689557 α      lambda       -0.4922845E-03
   maximum displ.:     0.3560949 α      in ANC's #5, #17, #8, ...

........................................................................
.............................. CYCLE   52 ..............................
........................................................................
   1   -349.4346367 -0.349435E+03  0.624E-02    0.68       0.0  T
   2   -349.4346399 -0.319988E-05  0.355E-02    0.68       1.0  T
   3   -349.4346332  0.671634E-05  0.707E-03    0.68       1.0  T
   4   -349.4346406 -0.742474E-05  0.307E-03    0.68       2.3  T
   5   -349.4346413 -0.669565E-06  0.116E-03    0.68       6.0  T
   6   -349.4346415 -0.232175E-06  0.442E-04    0.68      15.7  T
   7   -349.4346415 -0.250355E-07  0.238E-04    0.68      29.1  T
     SCC iter.                  ...        0 min,  0.387 sec
     gradient                   ...        0 min,  0.146 sec
 * total energy  :  -344.2607350 Eh     change       -0.4479922E-03 Eh
   gradient norm :     0.0040657 Eh/α   predicted    -0.3916877E-03 ( -12.57%)
   displ. norm   :     0.8008275 α      lambda       -0.4957161E-03
   maximum displ.:     0.3753375 α      in ANC's #5, #17, #8, ...

........................................................................
.............................. CYCLE   53 ..............................
........................................................................
   1   -349.4354763 -0.349435E+03  0.618E-02    0.68       0.0  T
   2   -349.4354792 -0.293129E-05  0.353E-02    0.68       1.0  T
   3   -349.4354710  0.826515E-05  0.746E-03    0.68       1.0  T
   4   -349.4354801 -0.910171E-05  0.294E-03    0.68       2.4  T
   5   -349.4354807 -0.586487E-06  0.116E-03    0.68       6.0  T
   6   -349.4354809 -0.216775E-06  0.417E-04    0.68      16.6  T
   7   -349.4354809 -0.175526E-07  0.232E-04    0.68      29.9  T
     SCC iter.                  ...        0 min,  0.383 sec
     gradient                   ...        0 min,  0.144 sec
 * total energy  :  -344.2611886 Eh     change       -0.4536730E-03 Eh
   gradient norm :     0.0040268 Eh/α   predicted    -0.4068145E-03 ( -10.33%)
   displ. norm   :     0.8218430 α      lambda       -0.4800367E-03
   maximum displ.:     0.3873583 α      in ANC's #5, #17, #8, ...

........................................................................
.............................. CYCLE   54 ..............................
........................................................................
   1   -349.4334173 -0.349433E+03  0.619E-02    0.68       0.0  T
   2   -349.4334203 -0.302728E-05  0.354E-02    0.68       1.0  T
   3   -349.4334108  0.952090E-05  0.771E-03    0.68       1.0  T
   4   -349.4334211 -0.102360E-04  0.307E-03    0.68       2.3  T
   5   -349.4334217 -0.630288E-06  0.144E-03    0.68       4.8  T
   6   -349.4334221 -0.399058E-06  0.480E-04    0.68      14.4  T
   7   -349.4334221 -0.314297E-07  0.238E-04    0.68      29.1  T
     SCC iter.                  ...        0 min,  0.386 sec
     gradient                   ...        0 min,  0.144 sec
 * total energy  :  -344.2616308 Eh     change       -0.4421518E-03 Eh
   gradient norm :     0.0034999 Eh/α   predicted    -0.4021322E-03 (  -9.05%)
   displ. norm   :     0.8021910 α      lambda       -0.4669942E-03
   maximum displ.:     0.3836825 α      in ANC's #5, #17, #11, ...

........................................................................
.............................. CYCLE   55 ..............................
........................................................................
   1   -349.4347397 -0.349435E+03  0.593E-02    0.67       0.0  T
   2   -349.4347430 -0.326393E-05  0.339E-02    0.67       1.0  T
   3   -349.4347333  0.970623E-05  0.750E-03    0.67       1.0  T
   4   -349.4347439 -0.106867E-04  0.280E-03    0.68       2.5  T
   5   -349.4347445 -0.514469E-06  0.144E-03    0.67       4.8  T
   6   -349.4347448 -0.392669E-06  0.458E-04    0.68      15.1  T
   7   -349.4347449 -0.260055E-07  0.237E-04    0.67      29.3  T
     SCC iter.                  ...        0 min,  0.383 sec
     gradient                   ...        0 min,  0.153 sec
 * total energy  :  -344.2620555 Eh     change       -0.4246962E-03 Eh
   gradient norm :     0.0036406 Eh/α   predicted    -0.3837669E-03 (  -9.64%)
   displ. norm   :     0.8309970 α      lambda       -0.4600111E-03
   maximum displ.:     0.3949929 α      in ANC's #5, #17, #11, ...

........................................................................
.............................. CYCLE   56 ..............................
........................................................................
   1   -349.4299377 -0.349430E+03  0.609E-02    0.67       0.0  T
   2   -349.4299408 -0.316061E-05  0.347E-02    0.67       1.0  T
   3   -349.4299352  0.558152E-05  0.633E-03    0.67       1.1  T
   4   -349.4299409 -0.569726E-05  0.313E-03    0.67       2.2  T
   5   -349.4299419 -0.100151E-05  0.128E-03    0.67       5.4  T
   6   -349.4299423 -0.322943E-06  0.460E-04    0.67      15.1  T
   7   -349.4299423 -0.273775E-07  0.241E-04    0.67      28.8  T
     SCC iter.                  ...        0 min,  0.383 sec
     gradient                   ...        0 min,  0.144 sec
 * total energy  :  -344.2624794 Eh     change       -0.4239560E-03 Eh
   gradient norm :     0.0045238 Eh/α   predicted    -0.3888359E-03 (  -8.28%)
   displ. norm   :     0.7885349 α      lambda       -0.5080038E-03
   maximum displ.:     0.3775341 α      in ANC's #5, #17, #11, ...

........................................................................
.............................. CYCLE   57 ..............................
........................................................................
   1   -349.4350755 -0.349435E+03  0.572E-02    0.67       0.0  T
   2   -349.4350792 -0.372570E-05  0.327E-02    0.67       1.0  T
   3   -349.4350751  0.418558E-05  0.577E-03    0.67       1.2  T
   4   -349.4350801 -0.503212E-05  0.256E-03    0.67       2.7  T
   5   -349.4350806 -0.510830E-06  0.115E-03    0.67       6.0  T
   6   -349.4350808 -0.243167E-06  0.431E-04    0.67      16.1  T
   7   -349.4350809 -0.200016E-07  0.245E-04    0.67      28.3  T
     SCC iter.                  ...        0 min,  0.383 sec
     gradient                   ...        0 min,  0.150 sec
 * total energy  :  -344.2629295 Eh     change       -0.4500640E-03 Eh
   gradient norm :     0.0051161 Eh/α   predicted    -0.4119391E-03 (  -8.47%)
   displ. norm   :     0.8376058 α      lambda       -0.5150606E-03
   maximum displ.:     0.3984747 α      in ANC's #5, #17, #11, ...

........................................................................
.............................. CYCLE   58 ..............................
........................................................................
   1   -349.4333592 -0.349433E+03  0.597E-02    0.67       0.0  T
   2   -349.4333626 -0.334007E-05  0.340E-02    0.67       1.0  T
   3   -349.4333570  0.551527E-05  0.646E-03    0.67       1.1  T
   4   -349.4333630 -0.596939E-05  0.301E-03    0.67       2.3  T
   5   -349.4333637 -0.652564E-06  0.145E-03    0.67       4.8  T
   6   -349.4333641 -0.409615E-06  0.470E-04    0.67      14.8  T
   7   -349.4333641 -0.254385E-07  0.249E-04    0.67      27.9  T
     SCC iter.                  ...        0 min,  0.382 sec
     gradient                   ...        0 min,  0.145 sec
 * total energy  :  -344.2634120 Eh     change       -0.4825244E-03 Eh
   gradient norm :     0.0051423 Eh/α   predicted    -0.4382140E-03 (  -9.18%)
   displ. norm   :     0.7996380 α      lambda       -0.5747579E-03
   maximum displ.:     0.3722527 α      in ANC's #5, #17, #11, ...

........................................................................
.............................. CYCLE   59 ..............................
........................................................................
   1   -349.4371012 -0.349437E+03  0.588E-02    0.67       0.0  T
[...]
   165   1 H    0.998 --    64 C    0.985
   166   1 H    0.999 --    65 C    0.965
   167   1 H    0.998 --    81 C    0.968
   168   1 H    0.998 --    82 C    0.970
   169   1 H    0.998 --    83 C    0.969
   170   1 H    0.998 --    85 C    0.973
   171   1 H    0.999 --    85 C    0.975
   172   1 H    0.999 --    86 C    0.988
   173   1 H    0.999 --    86 C    0.988
   174   1 H    0.998 --    86 C    0.986
   175   1 H    0.999 --    87 C    0.967
   176   1 H    0.995 --    99 C    0.965
   177   1 H    0.995 --    99 C    0.957
   178   1 H    0.997 --   100 C    0.985
   179   1 H    0.998 --   100 C    0.987
   180   1 H    0.997 --   100 C    0.983
   181   1 H    0.995 --   101 C    0.965
   182   1 H    0.996 --   101 C    0.964
   183   1 H    0.997 --   102 C    0.984
   184   1 H    0.996 --   102 C    0.980
   185   1 H    0.997 --   102 C    0.981
   186   1 H    0.998 --   104 C    0.958
   187   1 H    0.998 --   106 C    0.973
   188   1 H    0.998 --   106 C    0.969
   189   1 H    0.998 --   107 C    0.987
   190   1 H    0.999 --   107 C    0.988
   191   1 H    0.997 --   107 C    0.986
   192   1 H    0.993 --   110 C    0.925
   193   1 H    0.996 --   111 C    0.954
   194   1 H    0.992 --   112 C    0.947
   195   1 H    0.994 --   118 C    0.965
   196   1 H    0.993 --   118 C    0.964
   197   1 H    0.996 --   119 C    0.982
   198   1 H    0.998 --   119 C    0.987
   199   1 H    0.997 --   119 C    0.984
   200   1 H    0.994 --   125 C    0.965
   201   1 H    0.993 --   125 C    0.963
   202   1 H    0.996 --   126 C    0.982
   203   1 H    0.997 --   126 C    0.984
   204   1 H    0.998 --   126 C    0.987
   205   1 H    0.990 --   127 C    0.931
   206   1 H    0.991 --   127 C    0.949
   207   1 H    0.998 --   128 C    0.977
   208   1 H    0.998 --   128 C    0.970
 ---------------------------------------------------------------------------

Topologies differ in bond orders
Writing corrected topology to xtbtopo.mol

molecular dipole:
                 x           y           z       tot (Debye)
 q only:       -1.162       1.687       0.000
   full:       -1.531       1.906      -0.329       6.271
molecular quadrupole (traceless):
                xx          xy          yy          xz          yz          zz
 q only:      -16.323     -44.617     -73.224       2.593     -26.218      89.546
  q+dip:      -28.784     -45.773     -66.995      -5.023     -40.687      95.779
   full:      -23.093     -49.704     -70.480     -10.218     -44.111      93.573

           -------------------------------------------------
          |                Geometry Summary                 |
           -------------------------------------------------

      molecular mass/u    :     1927.4077030
   center of mass at/Å    :       -0.4099292      -0.8160304       0.0033185
  moments of inertia/u·Å² :        0.6166098E+05   0.1775470E+06   0.2278344E+06
rotational constants/cm⁻¹ :        0.2733922E-03   0.9494745E-04   0.7399073E-04

 * 201 selected distances

     #   Z          #   Z                                           value/Å
     1   6 C        2   6 C                                       1.3544133
     3   6 C        4   8 O                                       1.2092952
     5   6 C        6   6 C                                       1.3942010
     6   6 C        7   6 C                                       1.3740556
     7   6 C        8   6 C                                       1.4022983
     8   6 C        9   6 C                                       1.3742672
     5   6 C       10   6 C                                       1.4119982
     9   6 C       10   6 C                                       1.3975326
    11   6 C       12   6 C                                       1.3693968
    13   6 C       14   7 N                                       1.1478927
    15   6 C       16   7 N                                       1.1482107
     8   6 C       17   6 C                                       1.5079809
    17   6 C       18   6 C                                       1.5435035
    19   6 C       20   6 C                                       1.3269211
    18   6 C       22   6 C                                       1.5341937
    21   6 C       22   6 C                                       1.5341212
     7   6 C       23   6 C                                       1.5086024
    17   6 C       23   6 C                                       1.5624796
    21   6 C       23   6 C                                       1.5436942
     1   6 C       24   6 C                                       1.4237881
    24   6 C       25   6 C                                       1.3668010
    25   6 C       26   6 C                                       1.4141697
    26   6 C       27   6 C                                       1.4077046
    28   6 C       29   6 C                                       1.3961170
    29   6 C       30   6 C                                       1.3784709
    30   6 C       31   6 C                                       1.3924209
    33   6 C       34   6 C                                       1.5154714
    31   6 C       35   6 C                                       1.3911904
    28   6 C       37   6 C                                       1.3919287
    35   6 C       37   6 C                                       1.3801425
    27   6 C       38   6 C                                       1.3860233
    38   6 C       39   6 C                                       1.4176800
    39   6 C       40   6 C                                       1.4061322
    41   6 C       42   6 C                                       1.3943609
    42   6 C       43   6 C                                       1.3771789
    43   6 C       44   6 C                                       1.3956365
    46   6 C       47   6 C                                       1.5161273
    44   6 C       48   6 C                                       1.3919743
    41   6 C       49   6 C                                       1.3912148
    48   6 C       49   6 C                                       1.3800704
    26   6 C       51   6 C                                       1.4183800
    40   6 C       51   6 C                                       1.3853937
    51   6 C       52  16 S                                       1.7413498
    39   6 C       53   6 C                                       1.4141782
    53   6 C       54   6 C                                       1.3673589
    38   6 C       55  16 S                                       1.7443938
    54   6 C       55  16 S                                       1.7504402
    54   6 C       56   6 C                                       1.4251953
    56   6 C       57   6 C                                       1.3803766
    58   6 C       59   6 C                                       1.3900977
    59   6 C       60   6 C                                       1.3822725
    60   6 C       61   6 C                                       1.3838302
    61   6 C       62   6 C                                       1.3883697
    63   6 C       64   6 C                                       1.5292341
    58   6 C       65   6 C                                       1.3888762
    62   6 C       65   6 C                                       1.3871603
    57   6 C       66   6 C                                       1.4077986
    66   6 C       67  16 S                                       1.7471359
    67  16 S       68   6 C                                       1.7321870
    68   6 C       69   6 C                                       1.4061945
    69   6 C       70   6 C                                       1.4120467
    70   6 C       71   6 C                                       1.4368386
    71   6 C       72   7 N                                       1.3236496
    72   7 N       73  16 S                                       1.6193606
    70   6 C       74   7 N                                       1.3236507
    73  16 S       74   7 N                                       1.6193317
    71   6 C       75   6 C                                       1.4119422
    75   6 C       76   6 C                                       1.4053200
    76   6 C       77  16 S                                       1.7322317
    77  16 S       78   6 C                                       1.7479023
    78   6 C       79   6 C                                       1.4124003
    80   6 C       81   6 C                                       1.3907221
    81   6 C       82   6 C                                       1.3830503
    82   6 C       83   6 C                                       1.3829939
    83   6 C       84   6 C                                       1.3906115
    85   6 C       86   6 C                                       1.5296762
    80   6 C       87   6 C                                       1.3921236
    84   6 C       87   6 C                                       1.3851513
    79   6 C       88   6 C                                       1.3806560
    88   6 C       89  16 S                                       1.7546881
    78   6 C       90   6 C                                       1.3944011
    89  16 S       90   6 C                                       1.7279958
    76   6 C       91   6 C                                       1.3963523
    90   6 C       91   6 C                                       1.4008596
    91   6 C       92   7 N                                       1.3685087
    75   6 C       93   6 C                                       1.4225914
    92   7 N       93   6 C                                       1.3822852
    69   6 C       94   6 C                                       1.4214932
    93   6 C       94   6 C                                       1.4182068
    94   6 C       95   7 N                                       1.3880577
    68   6 C       96   6 C                                       1.3961650
    95   7 N       96   6 C                                       1.3718829
    66   6 C       97   6 C                                       1.3958990
    96   6 C       97   6 C                                       1.3992305
    97   6 C       98  16 S                                       1.7263160
    95   7 N       99   6 C                                       1.4475553
    99   6 C      100   6 C                                       1.5272501
    92   7 N      101   6 C                                       1.4442235
   101   6 C      102   6 C                                       1.5280622
    88   6 C      103   6 C                                       1.4293851
   103   6 C      104   6 C                                       1.3676102
   104   6 C      105   6 C                                       1.4168650
   106   6 C      107   6 C                                       1.5295231
   105   6 C      108   6 C                                       1.3659051
   103   6 C      109  34 Se                                      1.8825035 (max)
   108   6 C      109  34 Se                                      1.8807118
   111   6 C      112   6 C                                       1.3400634
   113   6 C      114   6 C                                       1.3776467
   115   6 C      116   8 O                                       1.2161807
   115   6 C      117   7 N                                       1.3898404
   117   7 N      118   6 C                                       1.4590672
   118   6 C      119   6 C                                       1.5228514
   117   7 N      120   6 C                                       1.3641662
   120   6 C      121  16 S                                       1.6500327
   120   6 C      122   7 N                                       1.3643137
   122   7 N      123   6 C                                       1.3911500
   123   6 C      124   8 O                                       1.2149661
   122   7 N      125   6 C                                       1.4594302
   125   6 C      126   6 C                                       1.5228440
   110   6 C      128   6 C                                       1.5320841
   127   6 C      128   6 C                                       1.5232927
     1   6 C      129   1 H                                       1.0854376
     6   6 C      130   1 H                                       1.0786948
     9   6 C      131   1 H                                       1.0778146
    17   6 C      132   1 H                                       1.0882427
    18   6 C      133   1 H                                       1.0864189
    19   6 C      134   1 H                                       1.0741814 (min)
    20   6 C      135   1 H                                       1.0742322
    21   6 C      136   1 H                                       1.0866640
    22   6 C      137   1 H                                       1.0886566
    22   6 C      138   1 H                                       1.0883984
    23   6 C      139   1 H                                       1.0884492
    25   6 C      140   1 H                                       1.0751998
    29   6 C      141   1 H                                       1.0793283
    30   6 C      142   1 H                                       1.0788191
    33   6 C      143   1 H                                       1.0896702
    33   6 C      144   1 H                                       1.0873440
    34   6 C      145   1 H                                       1.0880920
    34   6 C      146   1 H                                       1.0878260
    34   6 C      147   1 H                                       1.0884796
    37   6 C      148   1 H                                       1.0787285
    42   6 C      149   1 H                                       1.0789557
    43   6 C      150   1 H                                       1.0788791
    46   6 C      151   1 H                                       1.0889735
    46   6 C      152   1 H                                       1.0887517
    47   6 C      153   1 H                                       1.0879075
    47   6 C      154   1 H                                       1.0876755
    47   6 C      155   1 H                                       1.0875212
    49   6 C      156   1 H                                       1.0790004
    53   6 C      157   1 H                                       1.0754974
    59   6 C      158   1 H                                       1.0799574
    60   6 C      159   1 H                                       1.0799321
    61   6 C      160   1 H                                       1.0802754
    63   6 C      161   1 H                                       1.0910768
    63   6 C      162   1 H                                       1.0922343
    64   6 C      163   1 H                                       1.0876808
    64   6 C      164   1 H                                       1.0876029
    64   6 C      165   1 H                                       1.0875850
    65   6 C      166   1 H                                       1.0809650
    81   6 C      167   1 H                                       1.0794709
    82   6 C      168   1 H                                       1.0799723
    83   6 C      169   1 H                                       1.0805899
    85   6 C      170   1 H                                       1.0923195
    85   6 C      171   1 H                                       1.0921793
    86   6 C      172   1 H                                       1.0877029
    86   6 C      173   1 H                                       1.0875750
    86   6 C      174   1 H                                       1.0875367
    87   6 C      175   1 H                                       1.0809445
    99   6 C      176   1 H                                       1.0929569
    99   6 C      177   1 H                                       1.0863780
   100   6 C      178   1 H                                       1.0881678
   100   6 C      179   1 H                                       1.0876833
   100   6 C      180   1 H                                       1.0867622
   101   6 C      181   1 H                                       1.0963091
   101   6 C      182   1 H                                       1.0906669
   102   6 C      183   1 H                                       1.0866575
   102   6 C      184   1 H                                       1.0866894
   102   6 C      185   1 H                                       1.0864099
   104   6 C      186   1 H                                       1.0766055
   106   6 C      187   1 H                                       1.0907146
   106   6 C      188   1 H                                       1.0921204
   107   6 C      189   1 H                                       1.0875950
   107   6 C      190   1 H                                       1.0881625
   107   6 C      191   1 H                                       1.0873655
   110   6 C      192   1 H                                       1.0981523
   111   6 C      193   1 H                                       1.0829331
   112   6 C      194   1 H                                       1.0773432
   118   6 C      195   1 H                                       1.0908021
   118   6 C      196   1 H                                       1.0915103
   119   6 C      197   1 H                                       1.0859356
   119   6 C      198   1 H                                       1.0874864
   119   6 C      199   1 H                                       1.0872633
   125   6 C      200   1 H                                       1.0907540
   125   6 C      201   1 H                                       1.0914022
   126   6 C      202   1 H                                       1.0859719
   126   6 C      203   1 H                                       1.0873310
   126   6 C      204   1 H                                       1.0875411
   127   6 C      205   1 H                                       1.0954217
   127   6 C      206   1 H                                       1.0899652
   128   6 C      207   1 H                                       1.0909115
   128   6 C      208   1 H                                       1.0946248

 * 7 distinct bonds (by element types)

   Z      Z             #   av. dist./Å        max./Å        min./Å
   1 H    6 C          80     1.0860754     1.0981523     1.0741814
   6 C    6 C          87     1.4212770     1.5624796     1.3269211
   6 C    7 N          16     1.3608678     1.4594302     1.1478927
   6 C    8 O           3     1.2134807     1.2161807     1.2092952
   6 C   16 S          11     1.7322430     1.7546881     1.6500327
   7 N   16 S           2     1.6193461     1.6193606     1.6193317
   6 C   34 Se          2     1.8816076     1.8825035     1.8807118


optimized geometry written to: xtbopt.mol


           -------------------------------------------------
          | TOTAL ENERGY             -344.300327306946 Eh   |
          | GRADIENT NORM               0.000491621861 Eh/α |
          | HOMO-LUMO GAP               0.830303444490 eV   |
           -------------------------------------------------

------------------------------------------------------------------------
 * finished run on 2022/02/22 at 17:50:14.288     
------------------------------------------------------------------------
 total:
 * wall-time:     0 d,  0 h,  3 min, 34.757 sec
 *  cpu-time:     0 d,  0 h, 25 min, 30.665 sec
 * ratio c/w:     7.127 speedup
 SCF:
 * wall-time:     0 d,  0 h,  0 min,  1.211 sec
 *  cpu-time:     0 d,  0 h,  0 min,  7.261 sec
 * ratio c/w:     5.997 speedup
 ANC optimizer:
 * wall-time:     0 d,  0 h,  3 min, 33.099 sec
 *  cpu-time:     0 d,  0 h, 25 min, 21.759 sec
 * ratio c/w:     7.141 speedup

