      -----------------------------------------------------------      
     |                   =====================                   |     
     |                           x T B                           |     
     |                   =====================                   |     
     |                         S. Grimme                         |     
     |          Mulliken Center for Theoretical Chemistry        |     
     |                    University of Bonn                     |     
      -----------------------------------------------------------      

   * xtb version 6.4.1 (unknown) compiled by 'oda6@login1.crc.pitt.edu' on 2021-06-25

   xtb is free software: you can redistribute it and/or modify it under
   the terms of the GNU Lesser General Public License as published by
   the Free Software Foundation, either version 3 of the License, or
   (at your option) any later version.
   
   xtb is distributed in the hope that it will be useful,
   but WITHOUT ANY WARRANTY; without even the implied warranty of
   MERCHANTABILITY or FITNESS FOR A PARTICULAR PURPOSE.  See the
   GNU Lesser General Public License for more details.
   
   Cite this work as:
   * C. Bannwarth, E. Caldeweyher, S. Ehlert, A. Hansen, P. Pracht,
     J. Seibert, S. Spicher, S. Grimme, WIREs Comput. Mol. Sci., 2020, 11,
     e01493. DOI: 10.1002/wcms.1493
   
   for GFN2-xTB:
   * C. Bannwarth, S. Ehlert and S. Grimme., J. Chem. Theory Comput., 2019,
     15, 1652-1671. DOI: 10.1021/acs.jctc.8b01176
   for GFN1-xTB:
   * S. Grimme, C. Bannwarth, P. Shushkov, J. Chem. Theory Comput., 2017,
     13, 1989-2009. DOI: 10.1021/acs.jctc.7b00118
   for GFN0-xTB:
   * P. Pracht, E. Caldeweyher, S. Ehlert, S. Grimme, ChemRxiv, 2019, preprint.
     DOI: 10.26434/chemrxiv.8326202.v1
   for GFN-FF:
   * S. Spicher and S. Grimme, Angew. Chem. Int. Ed., 2020, 59, 15665-15673.
     DOI: 10.1002/anie.202004239
   
   for DFT-D4:
   * E. Caldeweyher, C. Bannwarth and S. Grimme, J. Chem. Phys., 2017,
     147, 034112. DOI: 10.1063/1.4993215
   * E. Caldeweyher, S. Ehlert, A. Hansen, H. Neugebauer, S. Spicher,
     C. Bannwarth and S. Grimme, J. Chem. Phys., 2019, 150, 154122.
     DOI: 10.1063/1.5090222
   * E. Caldeweyher, J.-M. Mewes, S. Ehlert and S. Grimme, Phys. Chem. Chem. Phys.
     2020, 22, 8499-8512. DOI: 10.1039/D0CP00502A
   
   for sTDA-xTB:
   * S. Grimme and C. Bannwarth, J. Chem. Phys., 2016, 145, 054103.
     DOI: 10.1063/1.4959605
   
   in the mass-spec context:
   * V. Asgeirsson, C. Bauer and S. Grimme, Chem. Sci., 2017, 8, 4879.
     DOI: 10.1039/c7sc00601b
   * J. Koopman and S. Grimme, ACS Omega 2019, 4, 12, 15120-15133.
     DOI: 10.1021/acsomega.9b02011
   
   for metadynamics refer to:
   * S. Grimme, J. Chem. Theory Comput., 2019, 155, 2847-2862
     DOI: 10.1021/acs.jctc.9b00143
   
   for SPH calculations refer to:
   * S. Spicher and S. Grimme, J. Chem. Theory Comput., 2021, 17, 1701-1714
     DOI: 10.1021/acs.jctc.0c01306
   
   with help from (in alphabetical order)
   P. Atkinson, C. Bannwarth, F. Bohle, G. Brandenburg, E. Caldeweyher
   M. Checinski, S. Dohm, S. Ehlert, S. Ehrlich, I. Gerasimov, J. Koopman
   C. Lavigne, S. Lehtola, F. März, M. Müller, F. Musil, H. Neugebauer
   J. Pisarek, C. Plett, P. Pracht, J. Seibert, P. Shushkov, S. Spicher
   M. Stahn, M. Steiner, T. Strunk, J. Stückrath, T. Rose, and J. Unsleber
   
 * started run on 2022/02/05 at 17:04:07.024     

           -------------------------------------------------
          |                Calculation Setup                |
           -------------------------------------------------

          program call               : /ihome/ghutchison/oda6/xtb/xtb-641/bin/xtb ../../FF_optimized/62_127_86_127_6.mol -opt
          hostname                   : smp-n29
          coordinate file            : ../../FF_optimized/62_127_86_127_6.mol
          omp threads                :                     8
          number of atoms            :                   169
          number of electrons        :                   558
          charge                     :                     0
          spin                       :                   0.0
          first test random number   :      0.06323746609277

   ID    Z sym.   atoms
    1    6 C      1-3, 5-9, 11, 13-15, 17, 19, 20, 22, 24, 25, 27-30, 32-45,
                  47-50, 54, 55, 57-67, 69, 70, 72, 73, 75, 76, 78-83, 85,
                  87, 88, 90-93, 95-100, 102-105, 107-111, 113
    2    8 O      4, 101
    3   35 Br     10
    4   17 Cl     12, 106
    5    7 N      16, 18, 26, 31, 51, 53, 71, 74, 89, 94, 112, 114
    6    9 F      21, 23, 84, 86
    7   16 S      46, 52, 56, 68, 77
    8    1 H      115-169
########################################################################
[WARNING] Please study the warnings concerning your input carefully
-1- prog_main_parseArguments: the use of '-opt' is discouraged, please use '--opt' next time
########################################################################

           -------------------------------------------------
          |                 G F N 2 - x T B                 |
           -------------------------------------------------

        Reference                      10.1021/acs.jctc.8b01176
      * Hamiltonian:
        H0-scaling (s, p, d)           1.850000    2.230000    2.230000
        zeta-weighting                 0.500000
      * Dispersion:
        s8                             2.700000
        a1                             0.520000
        a2                             5.000000
        s9                             5.000000
      * Repulsion:
        kExp                           1.500000    1.000000
        rExp                           1.000000
      * Coulomb:
        alpha                          2.000000
        third order                    shell-resolved
        anisotropic                    true
        a3                             3.000000
        a5                             4.000000
        cn-shift                       1.200000
        cn-exp                         4.000000
        max-rad                        5.000000


          ...................................................
          :                      SETUP                      :
          :.................................................:
          :  # basis functions                 559          :
          :  # atomic orbitals                 551          :
          :  # shells                          291          :
          :  # electrons                       558          :
          :  max. iterations                   250          :
          :  Hamiltonian                  GFN2-xTB          :
          :  restarted?                      false          :
          :  GBSA solvation                  false          :
          :  PC potential                    false          :
          :  electronic temp.          300.0000000     K    :
          :  accuracy                    1.0000000          :
          :  -> integral cutoff          0.2500000E+02      :
          :  -> integral neglect         0.1000000E-07      :
          :  -> SCF convergence          0.1000000E-05 Eh   :
          :  -> wf. convergence          0.1000000E-03 e    :
          :  Broyden damping             0.4000000          :
          ...................................................

 iter      E             dE          RMSdq      gap      omega  full diag
   1   -311.6735359 -0.311674E+03  0.467E+00    1.21       0.0  T
   2   -311.9332501 -0.259714E+00  0.295E+00    0.60       1.0  T
   3   -311.7898836  0.143367E+00  0.190E+00    0.46       1.0  T
   4   -312.1241878 -0.334304E+00  0.763E-01    0.57       1.0  T
   5   -312.2037328 -0.795450E-01  0.242E-01    0.25       1.0  T
   6   -312.2086330 -0.490026E-02  0.134E-01    0.40       1.0  T
   7   -312.2097898 -0.115677E-02  0.772E-02    0.35       1.0  T
   8   -312.2102111 -0.421328E-03  0.564E-02    0.36       1.0  T
   9   -312.2103578 -0.146694E-03  0.435E-02    0.35       1.0  T
  10   -312.2104455 -0.876421E-04  0.322E-02    0.35       1.0  T
  11   -312.2105098 -0.643381E-04  0.189E-02    0.36       1.0  T
  12   -312.2105378 -0.280041E-04  0.995E-03    0.35       1.0  T
  13   -312.2105453 -0.742653E-05  0.447E-03    0.35       1.7  T
  14   -312.2105466 -0.134038E-05  0.237E-03    0.35       3.3  T
  15   -312.2105470 -0.424744E-06  0.134E-03    0.35       5.8  T
  16   -312.2105471 -0.877421E-07  0.898E-04    0.35       8.6  T
  17   -312.2105471 -0.352709E-07  0.585E-04    0.35      13.2  T

   *** convergence criteria satisfied after 17 iterations ***

         #    Occupation            Energy/Eh            Energy/eV
      -------------------------------------------------------------
         1        2.0000           -1.0823180             -29.4514
       ...           ...                  ...                  ...
       273        2.0000           -0.3914550             -10.6520
       274        2.0000           -0.3845057             -10.4629
       275        2.0000           -0.3795295             -10.3275
       276        2.0000           -0.3776650             -10.2768
       277        2.0000           -0.3757905             -10.2258
       278        2.0000           -0.3713600             -10.1052
       279        1.9978           -0.3642894              -9.9128 (HOMO)
       280        0.0022           -0.3513059              -9.5595 (LUMO)
       281        0.0000           -0.3439505              -9.3594
       282        0.0000           -0.3428943              -9.3306
       283                         -0.3335804              -9.0772
       284                         -0.3253148              -8.8523
       ...                                ...                  ...
       551                          1.0683561              29.0715
      -------------------------------------------------------------
                  HL-Gap            0.0129835 Eh            0.3533 eV
             Fermi-level           -0.3577977 Eh           -9.7362 eV

 SCC (total)                   0 d,  0 h,  0 min,  0.639 sec
 SCC setup                      ...        0 min,  0.002 sec (  0.258%)
 Dispersion                     ...        0 min,  0.007 sec (  1.033%)
 classical contributions        ...        0 min,  0.000 sec (  0.042%)
 integral evaluation            ...        0 min,  0.027 sec (  4.180%)
 iterations                     ...        0 min,  0.513 sec ( 80.351%)
 molecular gradient             ...        0 min,  0.088 sec ( 13.762%)
 printout                       ...        0 min,  0.002 sec (  0.362%)

         :::::::::::::::::::::::::::::::::::::::::::::::::::::
         ::                     SUMMARY                     ::
         :::::::::::::::::::::::::::::::::::::::::::::::::::::
         :: total energy            -307.886132003837 Eh    ::
         :: gradient norm              0.320673477653 Eh/a0 ::
         :: HOMO-LUMO gap              0.353299798094 eV    ::
         ::.................................................::
         :: SCC energy              -312.210547138155 Eh    ::
         :: -> isotropic ES            0.202859296306 Eh    ::
         :: -> anisotropic ES          0.015197701984 Eh    ::
         :: -> anisotropic XC          0.179576075244 Eh    ::
         :: -> dispersion             -0.271243532513 Eh    ::
         :: repulsion energy           4.320345476032 Eh    ::
         :: add. restraining           0.000000000000 Eh    ::
         :: total charge              -0.000000000000 e     ::
         :::::::::::::::::::::::::::::::::::::::::::::::::::::

      ----------------------------------------------------------- 
     |                   =====================                   |
     |                        A N C O P T                        |
     |                   =====================                   |
     |               Approximate Normal Coordinate               |
     |                Rational Function Optimizer                |
      ----------------------------------------------------------- 

          ...................................................
          :                      SETUP                      :
          :.................................................:
          :   optimization level            normal          :
          :   max. optcycles                   507          :
          :   ANC micro-cycles                  20          :
          :   degrees of freedom               501          :
          :.................................................:
          :   RF solver                   davidson          :
          :   write xtbopt.log                true          :
          :   linear?                        false          :
          :   energy convergence         0.5000000E-05 Eh   :
          :   grad. convergence          0.1000000E-02 Eh/α :
          :   maximium RF displ.         1.0000000          :
          :   Hlow (freq-cutoff)         0.1000000E-01      :
          :   Hmax (freq-cutoff)         5.0000000          :
          :   S6 in model hess.         20.0000000          :
          ...................................................

generating ANC from model Hessian ...
Using Lindh-Hessian (1995)
 Shifting diagonal of input Hessian by   1.003790558047055E-002
 Lowest  eigenvalues of input Hessian
    0.010000    0.000000    0.000000    0.000000    0.000000    0.000000
    0.000000    0.010040    0.010048    0.010054    0.010060    0.010079
    0.010092    0.010141    0.010177    0.010187    0.010196    0.010218
 Highest eigenvalues
    2.329406    2.337415    2.498532    2.509054    2.545677    2.565776
 

........................................................................
.............................. CYCLE    1 ..............................
........................................................................
   1   -312.2105472 -0.312211E+03  0.365E-04    0.35       0.0  T
   2   -312.2105472 -0.244859E-08  0.304E-04    0.35      25.3  T
   3   -312.2105472 -0.242107E-08  0.262E-04    0.35      29.4  T
     SCC iter.                  ...        0 min,  0.086 sec
     gradient                   ...        0 min,  0.086 sec
 * total energy  :  -307.8861320 Eh     change       -0.2510069E-07 Eh
   gradient norm :     0.3206759 Eh/α   predicted     0.0000000E+00 (-100.00%)
   displ. norm   :     0.4981357 α      lambda       -0.1166042E+00
   maximum displ.:     0.1098140 α      in ANC's #311, #340, #129, ...

........................................................................
.............................. CYCLE    2 ..............................
........................................................................
   1   -312.4159172 -0.312416E+03  0.287E-01    0.36       0.0  T
   2   -312.4173461 -0.142891E-02  0.170E-01    0.34       1.0  T
   3   -312.4169624  0.383736E-03  0.888E-02    0.35       1.0  T
   4   -312.4176169 -0.654479E-03  0.407E-02    0.33       1.0  T
   5   -312.4177671 -0.150278E-03  0.185E-02    0.34       1.0  T
   6   -312.4177925 -0.253563E-04  0.993E-03    0.33       1.0  T
   7   -312.4177999 -0.741557E-05  0.587E-03    0.33       1.3  T
   8   -312.4178014 -0.145968E-05  0.429E-03    0.33       1.8  T
   9   -312.4178020 -0.652694E-06  0.287E-03    0.33       2.7  T
  10   -312.4178026 -0.593820E-06  0.170E-03    0.33       4.5  T
  11   -312.4178028 -0.152291E-06  0.110E-03    0.33       7.0  T
  12   -312.4178029 -0.793826E-07  0.585E-04    0.33      13.1  T
  13   -312.4178029 -0.280808E-07  0.358E-04    0.33      21.5  T
     SCC iter.                  ...        0 min,  0.384 sec
     gradient                   ...        0 min,  0.088 sec
 * total energy  :  -307.9716452 Eh     change       -0.8551318E-01 Eh
   gradient norm :     0.1500550 Eh/α   predicted    -0.7282162E-01 ( -14.84%)
   displ. norm   :     0.4882957 α      lambda       -0.4831102E-01
   maximum displ.:     0.1404002 α      in ANC's #129, #311, #176, ...

........................................................................
.............................. CYCLE    3 ..............................
........................................................................
   1   -312.5420300 -0.312542E+03  0.226E-01    0.32       0.0  T
   2   -312.5429048 -0.874793E-03  0.135E-01    0.32       1.0  T
   3   -312.5425867  0.318089E-03  0.736E-02    0.32       1.0  T
   4   -312.5431136 -0.526872E-03  0.324E-02    0.31       1.0  T
   5   -312.5432133 -0.997375E-04  0.145E-02    0.31       1.0  T
   6   -312.5432280 -0.146943E-04  0.836E-03    0.31       1.0  T
   7   -312.5432317 -0.370217E-05  0.573E-03    0.31       1.3  T
   8   -312.5432333 -0.155338E-05  0.425E-03    0.31       1.8  T
   9   -312.5432341 -0.830236E-06  0.283E-03    0.31       2.7  T
  10   -312.5432348 -0.680207E-06  0.163E-03    0.31       4.7  T
  11   -312.5432350 -0.155300E-06  0.105E-03    0.31       7.4  T
  12   -312.5432350 -0.707168E-07  0.616E-04    0.31      12.5  T
  13   -312.5432351 -0.272233E-07  0.405E-04    0.31      19.0  T
     SCC iter.                  ...        0 min,  0.368 sec
     gradient                   ...        0 min,  0.087 sec
 * total energy  :  -308.0014634 Eh     change       -0.2981815E-01 Eh
   gradient norm :     0.0421407 Eh/α   predicted    -0.2991498E-01 (   0.32%)
   displ. norm   :     0.4855103 α      lambda       -0.1114664E-01
   maximum displ.:     0.1264049 α      in ANC's #89, #129, #47, ...

........................................................................
.............................. CYCLE    4 ..............................
........................................................................
   1   -312.5775810 -0.312578E+03  0.162E-01    0.32       0.0  T
   2   -312.5776536 -0.725191E-04  0.959E-02    0.31       1.0  T
   3   -312.5772249  0.428623E-03  0.505E-02    0.33       1.0  T
   4   -312.5777226 -0.497704E-03  0.960E-03    0.31       1.0  T
   5   -312.5777294 -0.676912E-05  0.599E-03    0.31       1.3  T
   6   -312.5777320 -0.254505E-05  0.332E-03    0.31       2.3  T
   7   -312.5777325 -0.495914E-06  0.244E-03    0.31       3.2  T
   8   -312.5777328 -0.310691E-06  0.170E-03    0.31       4.5  T
   9   -312.5777329 -0.146292E-06  0.112E-03    0.31       6.9  T
  10   -312.5777330 -0.837526E-07  0.691E-04    0.31      11.1  T
  11   -312.5777330 -0.358636E-07  0.401E-04    0.31      19.2  T
     SCC iter.                  ...        0 min,  0.318 sec
     gradient                   ...        0 min,  0.086 sec
 * total energy  :  -308.0079641 Eh     change       -0.6500700E-02 Eh
   gradient norm :     0.0321081 Eh/α   predicted    -0.6890100E-02 (   5.99%)
   displ. norm   :     0.6745868 α      lambda       -0.1102499E-01
   maximum displ.:     0.1482108 α      in ANC's #37, #89, #19, ...

........................................................................
.............................. CYCLE    5 ..............................
........................................................................
   1   -312.6038919 -0.312604E+03  0.345E-01    0.32       0.0  T
   2   -312.6041542 -0.262256E-03  0.194E-01    0.31       1.0  T
   3   -312.6035366  0.617525E-03  0.617E-02    0.33       1.0  T
   4   -312.6042999 -0.763280E-03  0.124E-02    0.31       1.0  T
   5   -312.6043086 -0.863005E-05  0.786E-03    0.31       1.0  T
   6   -312.6043140 -0.541249E-05  0.360E-03    0.31       2.1  T
   7   -312.6043149 -0.964697E-06  0.245E-03    0.31       3.1  T
   8   -312.6043153 -0.359324E-06  0.173E-03    0.31       4.4  T
   9   -312.6043154 -0.127127E-06  0.121E-03    0.31       6.4  T
  10   -312.6043155 -0.860258E-07  0.764E-04    0.31      10.1  T
  11   -312.6043155 -0.460516E-07  0.455E-04    0.31      16.9  T
     SCC iter.                  ...        0 min,  0.302 sec
     gradient                   ...        0 min,  0.086 sec
 * total energy  :  -308.0085406 Eh     change       -0.5765204E-03 Eh
   gradient norm :     0.0406573 Eh/α   predicted    -0.8021073E-02 (1291.29%)
   displ. norm   :     0.3159382 α      lambda       -0.7870091E-02
   maximum displ.:     0.1181030 α      in ANC's #47, #19, #66, ...

........................................................................
.............................. CYCLE    6 ..............................
........................................................................
   1   -312.6010772 -0.312601E+03  0.188E-01    0.31       0.0  T
   2   -312.6011541 -0.769053E-04  0.105E-01    0.32       1.0  T
   3   -312.6009922  0.161876E-03  0.318E-02    0.30       1.0  T
   4   -312.6011943 -0.202036E-03  0.640E-03    0.32       1.2  T
   5   -312.6011970 -0.271145E-05  0.380E-03    0.32       2.0  T
   6   -312.6011981 -0.108675E-05  0.186E-03    0.32       4.1  T
   7   -312.6011983 -0.229832E-06  0.118E-03    0.32       6.5  T
   8   -312.6011984 -0.609455E-07  0.833E-04    0.32       9.2  T
   9   -312.6011984 -0.284172E-07  0.551E-04    0.32      14.0  T
     SCC iter.                  ...        0 min,  0.249 sec
     gradient                   ...        0 min,  0.091 sec
 * total energy  :  -308.0128131 Eh     change       -0.4272504E-02 Eh
   gradient norm :     0.0375154 Eh/α   predicted    -0.4327830E-02 (   1.29%)
   displ. norm   :     0.4547819 α      lambda       -0.5199454E-02
   maximum displ.:     0.1585936 α      in ANC's #51, #40, #74, ...

........................................................................
.............................. CYCLE    7 ..............................
........................................................................
   1   -312.5742197 -0.312574E+03  0.261E-01    0.33       0.0  T
   2   -312.5743731 -0.153456E-03  0.145E-01    0.34       1.0  T
   3   -312.5739401  0.433000E-03  0.533E-02    0.31       1.0  T
   4   -312.5744635 -0.523340E-03  0.849E-03    0.34       1.0  T
   5   -312.5744676 -0.409493E-05  0.513E-03    0.33       1.5  T
   6   -312.5744703 -0.274793E-05  0.239E-03    0.33       3.2  T
   7   -312.5744708 -0.475061E-06  0.135E-03    0.33       5.7  T
   8   -312.5744709 -0.102082E-06  0.941E-04    0.33       8.2  T
   9   -312.5744709 -0.354651E-07  0.709E-04    0.33      10.9  T
     SCC iter.                  ...        0 min,  0.263 sec
     gradient                   ...        0 min,  0.092 sec
 * total energy  :  -308.0128367 Eh     change       -0.2363098E-04 Eh
   gradient norm :     0.0297536 Eh/α   predicted    -0.3137420E-02 (*******%)
   displ. norm   :     0.3126574 α      lambda       -0.4475943E-02
   maximum displ.:     0.0816452 α      in ANC's #26, #24, #50, ...

........................................................................
.............................. CYCLE    8 ..............................
........................................................................
   1   -312.5867587 -0.312587E+03  0.168E-01    0.33       0.0  T
   2   -312.5868158 -0.570616E-04  0.934E-02    0.34       1.0  T
   3   -312.5867323  0.834663E-04  0.228E-02    0.33       1.0  T
   4   -312.5868430 -0.110672E-03  0.463E-03    0.34       1.7  T
   5   -312.5868443 -0.129559E-05  0.265E-03    0.34       2.9  T
   6   -312.5868449 -0.611700E-06  0.106E-03    0.34       7.3  T
   7   -312.5868450 -0.966900E-07  0.543E-04    0.34      14.2  T
   8   -312.5868450 -0.252469E-07  0.331E-04    0.34      23.2  T
     SCC iter.                  ...        0 min,  0.230 sec
     gradient                   ...        0 min,  0.086 sec
 * total energy  :  -308.0156667 Eh     change       -0.2829977E-02 Eh
   gradient norm :     0.0255160 Eh/α   predicted    -0.2456749E-02 ( -13.19%)
   displ. norm   :     0.4605356 α      lambda       -0.2493906E-02
   maximum displ.:     0.1521914 α      in ANC's #26, #37, #40, ...

........................................................................
.............................. CYCLE    9 ..............................
........................................................................
   1   -312.5811841 -0.312581E+03  0.156E-01    0.33       0.0  T
   2   -312.5812370 -0.528453E-04  0.874E-02    0.35       1.0  T
   3   -312.5810455  0.191471E-03  0.332E-02    0.33       1.0  T
   4   -312.5812702 -0.224689E-03  0.534E-03    0.35       1.4  T
   5   -312.5812712 -0.953862E-06  0.355E-03    0.34       2.2  T
   6   -312.5812725 -0.136469E-05  0.140E-03    0.34       5.5  T
   7   -312.5812727 -0.145216E-06  0.733E-04    0.34      10.5  T
   8   -312.5812727 -0.406377E-07  0.433E-04    0.34      17.8  T
     SCC iter.                  ...        0 min,  0.220 sec
     gradient                   ...        0 min,  0.087 sec
 * total energy  :  -308.0166937 Eh     change       -0.1026983E-02 Eh
   gradient norm :     0.0289803 Eh/α   predicted    -0.1511426E-02 (  47.17%)
   displ. norm   :     0.5382471 α      lambda       -0.3152996E-02
   maximum displ.:     0.1693529 α      in ANC's #40, #26, #37, ...

........................................................................
.............................. CYCLE   10 ..............................
........................................................................
   1   -312.5844354 -0.312584E+03  0.205E-01    0.34       0.0  T
   2   -312.5845119 -0.765500E-04  0.114E-01    0.37       1.0  T
   3   -312.5843730  0.138871E-03  0.261E-02    0.34       1.0  T
   4   -312.5845497 -0.176662E-03  0.595E-03    0.36       1.3  T
   5   -312.5845520 -0.230909E-05  0.363E-03    0.36       2.1  T
   6   -312.5845531 -0.112610E-05  0.141E-03    0.36       5.5  T
   7   -312.5845533 -0.217855E-06  0.673E-04    0.36      11.4  T
   8   -312.5845534 -0.331270E-07  0.426E-04    0.36      18.1  T
     SCC iter.                  ...        0 min,  0.244 sec
     gradient                   ...        0 min,  0.086 sec
 * total energy  :  -308.0179623 Eh     change       -0.1268645E-02 Eh
   gradient norm :     0.0385120 Eh/α   predicted    -0.2033229E-02 (  60.27%)
   displ. norm   :     0.4038601 α      lambda       -0.2653238E-02
   maximum displ.:     0.1499484 α      in ANC's #40, #21, #26, ...

........................................................................
.............................. CYCLE   11 ..............................
........................................................................
   1   -312.5888124 -0.312589E+03  0.108E-01    0.37       0.0  T
   2   -312.5888420 -0.296040E-04  0.612E-02    0.39       1.0  T
   3   -312.5887074  0.134646E-03  0.282E-02    0.37       1.0  T
   4   -312.5888634 -0.155970E-03  0.454E-03    0.39       1.7  T
   5   -312.5888651 -0.173930E-05  0.255E-03    0.39       3.0  T
   6   -312.5888656 -0.536897E-06  0.123E-03    0.39       6.3  T
   7   -312.5888658 -0.158813E-06  0.592E-04    0.39      13.0  T
   8   -312.5888658 -0.247588E-07  0.375E-04    0.39      20.5  T
     SCC iter.                  ...        0 min,  0.234 sec
     gradient                   ...        0 min,  0.086 sec
 * total energy  :  -308.0197081 Eh     change       -0.1745830E-02 Eh
   gradient norm :     0.0198459 Eh/α   predicted    -0.1543001E-02 ( -11.62%)
   displ. norm   :     0.6084797 α      lambda       -0.2017818E-02
   maximum displ.:     0.2208529 α      in ANC's #26, #40, #21, ...

........................................................................
.............................. CYCLE   12 ..............................
........................................................................
   1   -312.5790158 -0.312579E+03  0.113E-01    0.38       0.0  T
   2   -312.5790386 -0.227631E-04  0.659E-02    0.43       1.0  T
   3   -312.5786890  0.349615E-03  0.404E-02    0.38       1.0  T
   4   -312.5790788 -0.389835E-03  0.574E-03    0.42       1.3  T
   5   -312.5790824 -0.361747E-05  0.271E-03    0.42       2.8  T
   6   -312.5790828 -0.412824E-06  0.146E-03    0.42       5.3  T
   7   -312.5790831 -0.226155E-06  0.739E-04    0.42      10.4  T
   8   -312.5790831 -0.290208E-07  0.495E-04    0.42      15.5  T
     SCC iter.                  ...        0 min,  0.237 sec
     gradient                   ...        0 min,  0.086 sec
 * total energy  :  -308.0213215 Eh     change       -0.1613344E-02 Eh
   gradient norm :     0.0196811 Eh/α   predicted    -0.1382456E-02 ( -14.31%)
   displ. norm   :     0.7203819 α      lambda       -0.2215782E-02
   maximum displ.:     0.2714148 α      in ANC's #26, #21, #40, ...

........................................................................
.............................. CYCLE   13 ..............................
........................................................................
   1   -312.5833086 -0.312583E+03  0.129E-01    0.41       0.0  T
   2   -312.5833486 -0.400015E-04  0.752E-02    0.47       1.0  T
   3   -312.5830247  0.323958E-03  0.369E-02    0.42       1.0  T
   4   -312.5833824 -0.357753E-03  0.711E-03    0.46       1.1  T
   5   -312.5833894 -0.699089E-05  0.330E-03    0.46       2.3  T
   6   -312.5833903 -0.931278E-06  0.152E-03    0.46       5.1  T
   7   -312.5833905 -0.187326E-06  0.805E-04    0.46       9.6  T
   8   -312.5833905 -0.291379E-07  0.524E-04    0.46      14.7  T
     SCC iter.                  ...        0 min,  0.230 sec
     gradient                   ...        0 min,  0.086 sec
 * total energy  :  -308.0230582 Eh     change       -0.1736746E-02 Eh
   gradient norm :     0.0172402 Eh/α   predicted    -0.1682833E-02 (  -3.10%)
   displ. norm   :     0.7350674 α      lambda       -0.2179076E-02
   maximum displ.:     0.2672872 α      in ANC's #26, #21, #40, ...

........................................................................
.............................. CYCLE   14 ..............................
........................................................................
   1   -312.5862012 -0.312586E+03  0.123E-01    0.45       0.0  T
   2   -312.5862261 -0.248730E-04  0.728E-02    0.51       1.0  T
   3   -312.5855607  0.665384E-03  0.519E-02    0.44       1.0  T
   4   -312.5863004 -0.739677E-03  0.681E-03    0.50       1.1  T
   5   -312.5863056 -0.517448E-05  0.309E-03    0.50       2.5  T
   6   -312.5863062 -0.671382E-06  0.155E-03    0.50       5.0  T
   7   -312.5863064 -0.176445E-06  0.847E-04    0.50       9.1  T
   8   -312.5863065 -0.355312E-07  0.555E-04    0.50      13.9  T
     SCC iter.                  ...        0 min,  0.226 sec
     gradient                   ...        0 min,  0.088 sec
 * total energy  :  -308.0248578 Eh     change       -0.1799546E-02 Eh
   gradient norm :     0.0147437 Eh/α   predicted    -0.1678245E-02 (  -6.74%)
   displ. norm   :     0.7602919 α      lambda       -0.2008271E-02
   maximum displ.:     0.2774222 α      in ANC's #26, #21, #12, ...

........................................................................
.............................. CYCLE   15 ..............................
........................................................................
   1   -312.5863842 -0.312586E+03  0.125E-01    0.49       0.0  T
   2   -312.5864104 -0.261518E-04  0.735E-02    0.55       1.0  T
   3   -312.5857607  0.649677E-03  0.495E-02    0.48       1.0  T
   4   -312.5864798 -0.719059E-03  0.777E-03    0.54       1.0  T
   5   -312.5864877 -0.796775E-05  0.342E-03    0.54       2.3  T
   6   -312.5864887 -0.932436E-06  0.160E-03    0.54       4.8  T
   7   -312.5864888 -0.186485E-06  0.899E-04    0.54       8.6  T
   8   -312.5864889 -0.376037E-07  0.617E-04    0.54      12.5  T
     SCC iter.                  ...        0 min,  0.236 sec
     gradient                   ...        0 min,  0.087 sec
 * total energy  :  -308.0265878 Eh     change       -0.1729995E-02 Eh
   gradient norm :     0.0143308 Eh/α   predicted    -0.1584563E-02 (  -8.41%)
   displ. norm   :     0.7699435 α      lambda       -0.1885621E-02
   maximum displ.:     0.2747251 α      in ANC's #26, #21, #12, ...

........................................................................
.............................. CYCLE   16 ..............................
........................................................................
   1   -312.5960470 -0.312596E+03  0.114E-01    0.53       0.0  T
   2   -312.5960630 -0.160172E-04  0.672E-02    0.59       1.0  T
   3   -312.5954361  0.626934E-03  0.490E-02    0.52       1.0  T
   4   -312.5961357 -0.699641E-03  0.748E-03    0.58       1.0  T
   5   -312.5961435 -0.775662E-05  0.329E-03    0.57       2.3  T
   6   -312.5961443 -0.792779E-06  0.170E-03    0.57       4.5  T
   7   -312.5961445 -0.194252E-06  0.106E-03    0.57       7.3  T
   8   -312.5961445 -0.505822E-07  0.788E-04    0.57       9.8  T
   9   -312.5961446 -0.315887E-07  0.585E-04    0.57      13.2  T
     SCC iter.                  ...        0 min,  0.256 sec
     gradient                   ...        0 min,  0.088 sec
 * total energy  :  -308.0281525 Eh     change       -0.1564753E-02 Eh
   gradient norm :     0.0098647 Eh/α   predicted    -0.1501718E-02 (  -4.03%)
   displ. norm   :     0.8601373 α      lambda       -0.1795063E-02
   maximum displ.:     0.3214255 α      in ANC's #26, #21, #12, ...

........................................................................
.............................. CYCLE   17 ..............................
........................................................................
   1   -312.5816595 -0.312582E+03  0.129E-01    0.56       0.0  T
   2   -312.5816685 -0.902293E-05  0.778E-02    0.63       1.0  T
   3   -312.5806382  0.103038E-02  0.606E-02    0.54       1.0  T
   4   -312.5817901 -0.115194E-02  0.935E-03    0.62       1.0  T
   5   -312.5818035 -0.134407E-04  0.332E-03    0.61       2.3  T
   6   -312.5818044 -0.855447E-06  0.154E-03    0.61       5.0  T
   7   -312.5818046 -0.196885E-06  0.803E-04    0.61       9.6  T
   8   -312.5818046 -0.490065E-07  0.411E-04    0.61      18.7  T
     SCC iter.                  ...        0 min,  0.222 sec
     gradient                   ...        0 min,  0.086 sec
 * total energy  :  -308.0292002 Eh     change       -0.1047693E-02 Eh
   gradient norm :     0.0203807 Eh/α   predicted    -0.1561583E-02 (  49.05%)
   displ. norm   :     0.5597281 α      lambda       -0.1666492E-02
   maximum displ.:     0.1947368 α      in ANC's #26, #21, #12, ...

........................................................................
.............................. CYCLE   18 ..............................
........................................................................
   1   -312.5893547 -0.312589E+03  0.809E-02    0.61       0.0  T
   2   -312.5893670 -0.123661E-04  0.468E-02    0.64       1.0  T
   3   -312.5890831  0.283942E-03  0.334E-02    0.59       1.0  T
   4   -312.5893977 -0.314588E-03  0.465E-03    0.63       1.7  T
   5   -312.5894003 -0.259119E-05  0.239E-03    0.63       3.2  T
   6   -312.5894008 -0.538018E-06  0.121E-03    0.63       6.3  T
   7   -312.5894009 -0.764076E-07  0.629E-04    0.63      12.2  T
   8   -312.5894009 -0.394006E-07  0.369E-04    0.63      20.8  T
     SCC iter.                  ...        0 min,  0.214 sec
     gradient                   ...        0 min,  0.086 sec
 * total energy  :  -308.0302277 Eh     change       -0.1027482E-02 Eh
   gradient norm :     0.0168868 Eh/α   predicted    -0.1094302E-02 (   6.50%)
   displ. norm   :     0.5645327 α      lambda       -0.1775738E-02
   maximum displ.:     0.1790481 α      in ANC's #26, #4, #12, ...

........................................................................
.............................. CYCLE   19 ..............................
........................................................................
   1   -312.5932675 -0.312593E+03  0.807E-02    0.62       0.0  T
   2   -312.5932896 -0.221137E-04  0.456E-02    0.64       1.0  T
   3   -312.5931205  0.169087E-03  0.285E-02    0.61       1.0  T
   4   -312.5933076 -0.187032E-03  0.512E-03    0.64       1.5  T
   5   -312.5933112 -0.364304E-05  0.278E-03    0.63       2.8  T
   6   -312.5933121 -0.913611E-06  0.158E-03    0.64       4.9  T
   7   -312.5933123 -0.150347E-06  0.782E-04    0.64       9.8  T
   8   -312.5933123 -0.495872E-07  0.526E-04    0.64      14.6  T
     SCC iter.                  ...        0 min,  0.240 sec
     gradient                   ...        0 min,  0.086 sec
 * total energy  :  -308.0303905 Eh     change       -0.1627541E-03 Eh
   gradient norm :     0.0320784 Eh/α   predicted    -0.1170834E-02 ( 619.39%)
   displ. norm   :     0.3927795 α      lambda       -0.2011427E-02
   maximum displ.:     0.1280807 α      in ANC's #26, #12, #21, ...

........................................................................
.............................. CYCLE   20 ..............................
........................................................................
   1   -312.5939195 -0.312594E+03  0.658E-02    0.63       0.0  T
   2   -312.5939273 -0.780180E-05  0.390E-02    0.66       1.0  T
   3   -312.5937931  0.134172E-03  0.232E-02    0.63       1.0  T
   4   -312.5939374 -0.144262E-03  0.489E-03    0.65       1.6  T
   5   -312.5939420 -0.461825E-05  0.179E-03    0.65       4.3  T
   6   -312.5939423 -0.315974E-06  0.891E-04    0.65       8.6  T
   7   -312.5939423 -0.326182E-07  0.480E-04    0.65      16.0  T
     SCC iter.                  ...        0 min,  0.216 sec
     gradient                   ...        0 min,  0.086 sec
 * total energy  :  -308.0315491 Eh     change       -0.1158606E-02 Eh
   gradient norm :     0.0106507 Eh/α   predicted    -0.1160873E-02 (   0.20%)
   displ. norm   :     0.5817301 α      lambda       -0.1128451E-02
   maximum displ.:     0.1976879 α      in ANC's #26, #12, #4, ...
 * RMSD in coord.:     0.6638324 α      energy gain  -0.1454171E+00 Eh

generating ANC from model Hessian ...
Using Lindh-Hessian (1995)
 Shifting diagonal of input Hessian by   1.001532129816636E-002
 Lowest  eigenvalues of input Hessian
    0.010000    0.000000    0.000000    0.000000    0.000000    0.000000
    0.000000    0.010023    0.010030    0.010030    0.010053    0.010103
    0.010116    0.010136    0.010195    0.010215    0.010228    0.010274
 Highest eigenvalues
    2.274268    2.281762    2.606461    2.612578    2.650370    2.655817
 

........................................................................
.............................. CYCLE   21 ..............................
........................................................................
   1   -312.5836991 -0.312584E+03  0.750E-02    0.64       0.0  T
   2   -312.5837181 -0.190477E-04  0.438E-02    0.67       1.0  T
   3   -312.5834879  0.230222E-03  0.295E-02    0.63       1.0  T
   4   -312.5837400 -0.252109E-03  0.600E-03    0.67       1.3  T
   5   -312.5837465 -0.652648E-05  0.257E-03    0.66       3.0  T
   6   -312.5837471 -0.627787E-06  0.134E-03    0.66       5.7  T
   7   -312.5837472 -0.629127E-07  0.750E-04    0.66      10.3  T
   8   -312.5837473 -0.648074E-07  0.325E-04    0.66      23.7  T
     SCC iter.                  ...        0 min,  0.237 sec
     gradient                   ...        0 min,  0.086 sec
 * total energy  :  -308.0317191 Eh     change       -0.1700376E-03 Eh
   gradient norm :     0.0218711 Eh/α   predicted     0.0000000E+00 (-100.00%)
   displ. norm   :     0.1453168 α      lambda       -0.1220549E-02
   maximum displ.:     0.0485850 α      in ANC's #4, #16, #8, ...

........................................................................
.............................. CYCLE   22 ..............................
........................................................................
   1   -312.5938325 -0.312594E+03  0.513E-02    0.66       0.0  T
   2   -312.5938442 -0.116781E-04  0.287E-02    0.66       1.0  T
   3   -312.5938006  0.435551E-04  0.137E-02    0.67       1.0  T
   4   -312.5938477 -0.471018E-04  0.383E-03    0.66       2.0  T
   5   -312.5938506 -0.285323E-05  0.156E-03    0.66       4.9  T
   6   -312.5938507 -0.138359E-06  0.937E-04    0.66       8.2  T
   7   -312.5938507 -0.404048E-07  0.434E-04    0.66      17.7  T
     SCC iter.                  ...        0 min,  0.207 sec
     gradient                   ...        0 min,  0.088 sec
 * total energy  :  -308.0324788 Eh     change       -0.7597096E-03 Eh
   gradient norm :     0.0064606 Eh/α   predicted    -0.6231724E-03 ( -17.97%)
   displ. norm   :     0.2398607 α      lambda       -0.6504671E-03
   maximum displ.:     0.0890998 α      in ANC's #4, #6, #16, ...

........................................................................
.............................. CYCLE   23 ..............................
........................................................................
   1   -312.6009012 -0.312601E+03  0.969E-02    0.66       0.0  T
   2   -312.6009210 -0.197668E-04  0.537E-02    0.65       1.0  T
   3   -312.6008488  0.721177E-04  0.165E-02    0.67       1.0  T
   4   -312.6009319 -0.830986E-04  0.353E-03    0.65       2.2  T
   5   -312.6009334 -0.146605E-05  0.193E-03    0.65       4.0  T
   6   -312.6009336 -0.197818E-06  0.951E-04    0.65       8.1  T
   7   -312.6009336 -0.450410E-07  0.532E-04    0.65      14.5  T
     SCC iter.                  ...        0 min,  0.202 sec
     gradient                   ...        0 min,  0.088 sec
 * total energy  :  -308.0324185 Eh     change        0.6036135E-04 Eh
   gradient norm :     0.0130028 Eh/α   predicted    -0.3439457E-03 (-669.81%)
   displ. norm   :     0.2080456 α      lambda       -0.9870181E-03
   maximum displ.:     0.0792388 α      in ANC's #18, #4, #8, ...

........................................................................
.............................. CYCLE   24 ..............................
........................................................................
   1   -312.6041008 -0.312604E+03  0.969E-02    0.66       0.0  T
   2   -312.6041201 -0.193348E-04  0.533E-02    0.65       1.0  T
   3   -312.6040940  0.260710E-04  0.109E-02    0.66       1.0  T
   4   -312.6041293 -0.352281E-04  0.260E-03    0.65       3.0  T
   5   -312.6041297 -0.460361E-06  0.162E-03    0.65       4.7  T
   6   -312.6041300 -0.259495E-06  0.585E-04    0.65      13.1  T
   7   -312.6041300 -0.251945E-07  0.384E-04    0.65      20.1  T
     SCC iter.                  ...        0 min,  0.210 sec
     gradient                   ...        0 min,  0.087 sec
 * total energy  :  -308.0329408 Eh     change       -0.5223443E-03 Eh
   gradient norm :     0.0102336 Eh/α   predicted    -0.5148709E-03 (  -1.43%)
   displ. norm   :     0.2301811 α      lambda       -0.6250833E-03
   maximum displ.:     0.0887399 α      in ANC's #4, #16, #79, ...

........................................................................
.............................. CYCLE   25 ..............................
........................................................................
   1   -312.5995941 -0.312600E+03  0.924E-02    0.65       0.0  T
   2   -312.5996096 -0.154760E-04  0.510E-02    0.65       1.0  T
   3   -312.5995821  0.274652E-04  0.120E-02    0.65       1.0  T
   4   -312.5996171 -0.349191E-04  0.250E-03    0.65       3.1  T
   5   -312.5996174 -0.375234E-06  0.155E-03    0.65       4.9  T
   6   -312.5996177 -0.214776E-06  0.774E-04    0.65       9.9  T
   7   -312.5996177 -0.506217E-07  0.393E-04    0.65      19.6  T
     SCC iter.                  ...        0 min,  0.204 sec
     gradient                   ...        0 min,  0.085 sec
 * total energy  :  -308.0331457 Eh     change       -0.2049271E-03 Eh
   gradient norm :     0.0075802 Eh/α   predicted    -0.3291016E-03 (  60.59%)
   displ. norm   :     0.3231012 α      lambda       -0.7276140E-03
   maximum displ.:     0.1313284 α      in ANC's #4, #8, #16, ...

........................................................................
.............................. CYCLE   26 ..............................
........................................................................
   1   -312.5952282 -0.312595E+03  0.915E-02    0.65       0.0  T
   2   -312.5952433 -0.151329E-04  0.506E-02    0.64       1.0  T
   3   -312.5952066  0.366953E-04  0.135E-02    0.65       1.0  T
   4   -312.5952516 -0.450406E-04  0.275E-03    0.64       2.8  T
   5   -312.5952520 -0.360025E-06  0.187E-03    0.64       4.1  T
   6   -312.5952524 -0.368876E-06  0.769E-04    0.64      10.0  T
   7   -312.5952524 -0.427600E-07  0.475E-04    0.64      16.2  T
     SCC iter.                  ...        0 min,  0.205 sec
     gradient                   ...        0 min,  0.087 sec
 * total energy  :  -308.0335337 Eh     change       -0.3880225E-03 Eh
   gradient norm :     0.0105689 Eh/α   predicted    -0.4017956E-03 (   3.55%)
   displ. norm   :     0.4674890 α      lambda       -0.9192482E-03
   maximum displ.:     0.1941800 α      in ANC's #4, #8, #16, ...

........................................................................
.............................. CYCLE   27 ..............................
........................................................................
   1   -312.5975476 -0.312598E+03  0.920E-02    0.65       0.0  T
   2   -312.5975619 -0.143141E-04  0.513E-02    0.63       1.0  T
   3   -312.5974764  0.855163E-04  0.187E-02    0.65       1.0  T
   4   -312.5975728 -0.963609E-04  0.335E-03    0.64       2.3  T
   5   -312.5975733 -0.504587E-06  0.228E-03    0.64       3.4  T
   6   -312.5975738 -0.511931E-06  0.104E-03    0.64       7.4  T
   7   -312.5975738 -0.485624E-07  0.661E-04    0.64      11.6  T
   8   -312.5975738 -0.130196E-07  0.476E-04    0.64      16.2  T
     SCC iter.                  ...        0 min,  0.234 sec
     gradient                   ...        0 min,  0.086 sec
 * total energy  :  -308.0340821 Eh     change       -0.5483099E-03 Eh
   gradient norm :     0.0082762 Eh/α   predicted    -0.5600741E-03 (   2.15%)
   displ. norm   :     0.5487193 α      lambda       -0.6066223E-03
   maximum displ.:     0.2362146 α      in ANC's #4, #8, #16, ...

........................................................................
.............................. CYCLE   28 ..............................
........................................................................
   1   -312.5979517 -0.312598E+03  0.560E-02    0.64       0.0  T
   2   -312.5979549 -0.321106E-05  0.319E-02    0.63       1.0  T
   3   -312.5978902  0.646482E-04  0.160E-02    0.65       1.0  T
   4   -312.5979609 -0.706463E-04  0.325E-03    0.63       2.4  T
   5   -312.5979616 -0.714289E-06  0.202E-03    0.63       3.8  T
   6   -312.5979619 -0.310838E-06  0.988E-04    0.63       7.8  T
   7   -312.5979620 -0.438088E-07  0.668E-04    0.63      11.5  T
     SCC iter.                  ...        0 min,  0.212 sec
     gradient                   ...        0 min,  0.086 sec
 * total energy  :  -308.0346082 Eh     change       -0.5261168E-03 Eh
   gradient norm :     0.0061976 Eh/α   predicted    -0.3946373E-03 ( -24.99%)
   displ. norm   :     0.7099701 α      lambda       -0.7564210E-03
   maximum displ.:     0.3171221 α      in ANC's #4, #8, #6, ...

........................................................................
.............................. CYCLE   29 ..............................
........................................................................
   1   -312.5980833 -0.312598E+03  0.791E-02    0.64       0.0  T
   2   -312.5980910 -0.770929E-05  0.447E-02    0.63       1.0  T
   3   -312.5980583  0.327627E-04  0.130E-02    0.64       1.0  T
   4   -312.5980954 -0.371299E-04  0.332E-03    0.63       2.3  T
   5   -312.5980958 -0.432730E-06  0.215E-03    0.63       3.6  T
   6   -312.5980964 -0.540000E-06  0.103E-03    0.63       7.4  T
   7   -312.5980965 -0.693719E-07  0.658E-04    0.63      11.7  T
   8   -312.5980965 -0.786974E-08  0.474E-04    0.63      16.2  T
     SCC iter.                  ...        0 min,  0.234 sec
     gradient                   ...        0 min,  0.086 sec
 * total energy  :  -308.0352135 Eh     change       -0.6052988E-03 Eh
   gradient norm :     0.0070714 Eh/α   predicted    -0.5688650E-03 (  -6.02%)
   displ. norm   :     0.7220732 α      lambda       -0.7646558E-03
   maximum displ.:     0.3343477 α      in ANC's #4, #6, #8, ...

........................................................................
.............................. CYCLE   30 ..............................
........................................................................
   1   -312.5978886 -0.312598E+03  0.859E-02    0.63       0.0  T
   2   -312.5978996 -0.110232E-04  0.485E-02    0.64       1.0  T
   3   -312.5978780  0.215818E-04  0.112E-02    0.63       1.0  T
   4   -312.5979039 -0.259093E-04  0.331E-03    0.64       2.3  T
   5   -312.5979047 -0.795800E-06  0.194E-03    0.64       4.0  T
   6   -312.5979051 -0.391007E-06  0.930E-04    0.64       8.3  T
   7   -312.5979052 -0.920554E-07  0.540E-04    0.64      14.2  T
     SCC iter.                  ...        0 min,  0.202 sec
     gradient                   ...        0 min,  0.087 sec
 * total energy  :  -308.0357889 Eh     change       -0.5754192E-03 Eh
   gradient norm :     0.0096097 Eh/α   predicted    -0.5816838E-03 (   1.09%)
   displ. norm   :     0.6966684 α      lambda       -0.6597262E-03
   maximum displ.:     0.3308470 α      in ANC's #4, #6, #8, ...

........................................................................
.............................. CYCLE   31 ..............................
........................................................................
   1   -312.5998432 -0.312600E+03  0.611E-02    0.64       0.0  T
   2   -312.5998473 -0.412435E-05  0.353E-02    0.65       1.0  T
   3   -312.5997986  0.487395E-04  0.140E-02    0.63       1.0  T
   4   -312.5998509 -0.523489E-04  0.295E-03    0.65       2.6  T
   5   -312.5998520 -0.111656E-05  0.159E-03    0.65       4.9  T
   6   -312.5998522 -0.189607E-06  0.820E-04    0.65       9.4  T
   7   -312.5998523 -0.630281E-07  0.466E-04    0.65      16.5  T
     SCC iter.                  ...        0 min,  0.204 sec
     gradient                   ...        0 min,  0.087 sec
 * total energy  :  -308.0363885 Eh     change       -0.5996450E-03 Eh
   gradient norm :     0.0062418 Eh/α   predicted    -0.4899641E-03 ( -18.29%)
   displ. norm   :     0.7297226 α      lambda       -0.7476423E-03
   maximum displ.:     0.3638288 α      in ANC's #4, #6, #8, ...

........................................................................
.............................. CYCLE   32 ..............................
........................................................................
   1   -312.6036183 -0.312604E+03  0.723E-02    0.64       0.0  T
   2   -312.6036239 -0.564180E-05  0.420E-02    0.67       1.0  T
   3   -312.6034383  0.185625E-03  0.257E-02    0.63       1.0  T
   4   -312.6036404 -0.202061E-03  0.380E-03    0.66       2.0  T
   5   -312.6036423 -0.191216E-05  0.186E-03    0.66       4.1  T
   6   -312.6036426 -0.257880E-06  0.899E-04    0.66       8.6  T
   7   -312.6036426 -0.572526E-07  0.463E-04    0.66      16.6  T
     SCC iter.                  ...        0 min,  0.199 sec
     gradient                   ...        0 min,  0.086 sec
 * total energy  :  -308.0370390 Eh     change       -0.6504464E-03 Eh
   gradient norm :     0.0046633 Eh/α   predicted    -0.5728863E-03 ( -11.92%)
   displ. norm   :     0.7932350 α      lambda       -0.6784882E-03
   maximum displ.:     0.3993330 α      in ANC's #4, #6, #8, ...

........................................................................
.............................. CYCLE   33 ..............................
........................................................................
   1   -312.6018879 -0.312602E+03  0.748E-02    0.66       0.0  T
   2   -312.6018930 -0.503702E-05  0.435E-02    0.68       1.0  T
   3   -312.6016934  0.199555E-03  0.263E-02    0.65       1.0  T
   4   -312.6019098 -0.216380E-03  0.377E-03    0.67       2.0  T
   5   -312.6019117 -0.187312E-05  0.188E-03    0.67       4.1  T
   6   -312.6019120 -0.288095E-06  0.894E-04    0.67       8.6  T
   7   -312.6019120 -0.631726E-07  0.452E-04    0.67      17.0  T
     SCC iter.                  ...        0 min,  0.198 sec
     gradient                   ...        0 min,  0.085 sec
 * total energy  :  -308.0376488 Eh     change       -0.6098034E-03 Eh
   gradient norm :     0.0050811 Eh/α   predicted    -0.5527079E-03 (  -9.36%)
   displ. norm   :     0.7751271 α      lambda       -0.6523207E-03
   maximum displ.:     0.4021921 α      in ANC's #4, #6, #8, ...

........................................................................
.............................. CYCLE   34 ..............................
........................................................................
   1   -312.6033012 -0.312603E+03  0.778E-02    0.67       0.0  T
   2   -312.6033070 -0.583909E-05  0.449E-02    0.69       1.0  T
   3   -312.6031124  0.194593E-03  0.258E-02    0.66       1.0  T
   4   -312.6033233 -0.210842E-03  0.371E-03    0.68       2.1  T
   5   -312.6033249 -0.164260E-05  0.197E-03    0.68       3.9  T
   6   -312.6033252 -0.318854E-06  0.922E-04    0.68       8.3  T
   7   -312.6033253 -0.668329E-07  0.473E-04    0.68      16.3  T
     SCC iter.                  ...        0 min,  0.200 sec
     gradient                   ...        0 min,  0.086 sec
 * total energy  :  -308.0382325 Eh     change       -0.5837000E-03 Eh
   gradient norm :     0.0059256 Eh/α   predicted    -0.5221293E-03 ( -10.55%)
   displ. norm   :     0.7844450 α      lambda       -0.6337227E-03
   maximum displ.:     0.4103342 α      in ANC's #4, #6, #8, ...

........................................................................
.............................. CYCLE   35 ..............................
........................................................................
   1   -312.6007967 -0.312601E+03  0.744E-02    0.68       0.0  T
   2   -312.6008033 -0.662818E-05  0.428E-02    0.69       1.0  T
   3   -312.6007392  0.640469E-04  0.157E-02    0.67       1.0  T
   4   -312.6008088 -0.695442E-04  0.306E-03    0.69       2.5  T
   5   -312.6008098 -0.972670E-06  0.186E-03    0.69       4.1  T
   6   -312.6008101 -0.365702E-06  0.874E-04    0.69       8.8  T
   7   -312.6008102 -0.637878E-07  0.508E-04    0.69      15.1  T
     SCC iter.                  ...        0 min,  0.205 sec
     gradient                   ...        0 min,  0.090 sec
 * total energy  :  -308.0388071 Eh     change       -0.5745692E-03 Eh
   gradient norm :     0.0053101 Eh/α   predicted    -0.5118509E-03 ( -10.92%)
   displ. norm   :     0.7680020 α      lambda       -0.6394585E-03
   maximum displ.:     0.4148815 α      in ANC's #4, #6, #8, ...

........................................................................
.............................. CYCLE   36 ..............................
........................................................................
   1   -312.6032855 -0.312603E+03  0.770E-02    0.69       0.0  T
   2   -312.6032935 -0.806616E-05  0.440E-02    0.69       1.0  T
   3   -312.6032783  0.152745E-04  0.983E-03    0.69       1.0  T
   4   -312.6032969 -0.186510E-04  0.263E-03    0.69       2.9  T
   5   -312.6032973 -0.365575E-06  0.156E-03    0.69       4.9  T
   6   -312.6032975 -0.232654E-06  0.742E-04    0.69      10.4  T
   7   -312.6032976 -0.704273E-07  0.426E-04    0.69      18.1  T
     SCC iter.                  ...        0 min,  0.202 sec
     gradient                   ...        0 min,  0.087 sec
 * total energy  :  -308.0393809 Eh     change       -0.5738462E-03 Eh
   gradient norm :     0.0057528 Eh/α   predicted    -0.5083161E-03 ( -11.42%)
   displ. norm   :     0.7863569 α      lambda       -0.6236963E-03
   maximum displ.:     0.4288631 α      in ANC's #4, #6, #8, ...

........................................................................
.............................. CYCLE   37 ..............................
........................................................................
   1   -312.6025188 -0.312603E+03  0.710E-02    0.69       0.0  T
   2   -312.6025249 -0.616233E-05  0.408E-02    0.68       1.0  T
   3   -312.6024887  0.362435E-04  0.125E-02    0.69       1.0  T
   4   -312.6025278 -0.391102E-04  0.325E-03    0.68       2.4  T
   5   -312.6025293 -0.151526E-05  0.175E-03    0.69       4.4  T
   6   -312.6025296 -0.295620E-06  0.812E-04    0.69       9.5  T
   7   -312.6025297 -0.512405E-07  0.449E-04    0.69      17.1  T
     SCC iter.                  ...        0 min,  0.202 sec
     gradient                   ...        0 min,  0.086 sec
 * total energy  :  -308.0399489 Eh     change       -0.5680139E-03 Eh
   gradient norm :     0.0049759 Eh/α   predicted    -0.5046871E-03 ( -11.15%)
   displ. norm   :     0.7932483 α      lambda       -0.6354764E-03
   maximum displ.:     0.4434101 α      in ANC's #4, #6, #15, ...

........................................................................
.............................. CYCLE   38 ..............................
........................................................................
   1   -312.6029241 -0.312603E+03  0.818E-02    0.69       0.0  T
   2   -312.6029326 -0.845125E-05  0.466E-02    0.68       1.0  T
   3   -312.6028574  0.751833E-04  0.180E-02    0.70       1.0  T
   4   -312.6029398 -0.824284E-04  0.359E-03    0.68       2.1  T
   5   -312.6029412 -0.137496E-05  0.212E-03    0.68       3.6  T
   6   -312.6029416 -0.440025E-06  0.893E-04    0.68       8.6  T
   7   -312.6029417 -0.656171E-07  0.466E-04    0.68      16.5  T
     SCC iter.                  ...        0 min,  0.203 sec
     gradient                   ...        0 min,  0.086 sec
 * total energy  :  -308.0405119 Eh     change       -0.5630205E-03 Eh
   gradient norm :     0.0086713 Eh/α   predicted    -0.5176740E-03 (  -8.05%)
   displ. norm   :     0.7875661 α      lambda       -0.6649671E-03
   maximum displ.:     0.4486386 α      in ANC's #4, #6, #15, ...

........................................................................
.............................. CYCLE   39 ..............................
........................................................................
   1   -312.6100834 -0.312610E+03  0.640E-02    0.69       0.0  T
   2   -312.6100876 -0.418079E-05  0.372E-02    0.67       1.0  T
   3   -312.6099923  0.953064E-04  0.195E-02    0.69       1.0  T
   4   -312.6100955 -0.103217E-03  0.311E-03    0.68       2.5  T
   5   -312.6100964 -0.918032E-06  0.180E-03    0.68       4.3  T
   6   -312.6100966 -0.248131E-06  0.924E-04    0.68       8.3  T
   7   -312.6100967 -0.628847E-07  0.593E-04    0.68      13.0  T
     SCC iter.                  ...        0 min,  0.198 sec
     gradient                   ...        0 min,  0.087 sec
 * total energy  :  -308.0410397 Eh     change       -0.5278057E-03 Eh
   gradient norm :     0.0110207 Eh/α   predicted    -0.5387142E-03 (   2.07%)
   displ. norm   :     0.8055982 α      lambda       -0.6323978E-03
   maximum displ.:     0.4561132 α      in ANC's #4, #6, #15, ...

........................................................................
.............................. CYCLE   40 ..............................
........................................................................
   1   -312.6008601 -0.312601E+03  0.817E-02    0.68       0.0  T
   2   -312.6008689 -0.877176E-05  0.464E-02    0.67       1.0  T
   3   -312.6008354  0.335282E-04  0.143E-02    0.68       1.0  T
   4   -312.6008741 -0.387220E-04  0.316E-03    0.67       2.4  T
   5   -312.6008744 -0.319740E-06  0.216E-03    0.68       3.6  T
   6   -312.6008751 -0.630005E-06  0.898E-04    0.68       8.6  T
   7   -312.6008751 -0.662162E-07  0.554E-04    0.68      13.9  T
     SCC iter.                  ...        0 min,  0.203 sec
     gradient                   ...        0 min,  0.085 sec
 * total energy  :  -308.0415824 Eh     change       -0.5426538E-03 Eh
   gradient norm :     0.0068310 Eh/α   predicted    -0.5214121E-03 (  -3.91%)
   displ. norm   :     0.7208418 α      lambda       -0.5939645E-03
   maximum displ.:     0.4265205 α      in ANC's #4, #6, #15, ...

........................................................................
.............................. CYCLE   41 ..............................
........................................................................
   1   -312.6025847 -0.312603E+03  0.751E-02    0.68       0.0  T
   2   -312.6025936 -0.890041E-05  0.426E-02    0.68       1.0  T
   3   -312.6025791  0.145341E-04  0.108E-02    0.68       1.0  T
   4   -312.6025975 -0.184115E-04  0.279E-03    0.67       2.8  T
   5   -312.6025977 -0.249701E-06  0.169E-03    0.68       4.6  T
   6   -312.6025980 -0.225626E-06  0.945E-04    0.68       8.1  T
   7   -312.6025981 -0.119165E-06  0.551E-04    0.68      14.0  T
     SCC iter.                  ...        0 min,  0.201 sec
     gradient                   ...        0 min,  0.087 sec
 * total energy  :  -308.0420680 Eh     change       -0.4856190E-03 Eh
   gradient norm :     0.0111295 Eh/α   predicted    -0.4513013E-03 (  -7.07%)
   displ. norm   :     0.7653809 α      lambda       -0.5880348E-03
   maximum displ.:     0.4512956 α      in ANC's #4, #6, #15, ...

........................................................................
.............................. CYCLE   42 ..............................
........................................................................
   1   -312.6027874 -0.312603E+03  0.627E-02    0.68       0.0  T
   2   -312.6027930 -0.551550E-05  0.361E-02    0.68       1.0  T
   3   -312.6027804  0.125499E-04  0.867E-03    0.67       1.0  T
   4   -312.6027948 -0.143895E-04  0.265E-03    0.68       2.9  T
   5   -312.6027954 -0.634255E-06  0.145E-03    0.68       5.3  T
   6   -312.6027956 -0.132820E-06  0.802E-04    0.68       9.6  T
   7   -312.6027956 -0.546997E-07  0.448E-04    0.68      17.2  T
     SCC iter.                  ...        0 min,  0.200 sec
     gradient                   ...        0 min,  0.086 sec
 * total energy  :  -308.0425812 Eh     change       -0.5131622E-03 Eh
   gradient norm :     0.0080592 Eh/α   predicted    -0.4662577E-03 (  -9.14%)
   displ. norm   :     0.7622571 α      lambda       -0.6032424E-03
   maximum displ.:     0.4635797 α      in ANC's #4, #6, #15, ...
 * RMSD in coord.:     0.9698181 α      energy gain  -0.1103211E-01 Eh

generating ANC from model Hessian ...
Using Lindh-Hessian (1995)
 Shifting diagonal of input Hessian by   1.000884759089015E-002
 Lowest  eigenvalues of input Hessian
    0.010000    0.000000    0.000000    0.000000    0.000000    0.000000
    0.000000    0.010014    0.010017    0.010027    0.010052    0.010098
    0.010117    0.010136    0.010179    0.010203    0.010234    0.010259
 Highest eigenvalues
    2.274937    2.280239    2.606395    2.610817    2.644672    2.651735
 

........................................................................
.............................. CYCLE   43 ..............................
........................................................................
   1   -312.6060102 -0.312606E+03  0.608E-02    0.67       0.0  T
   2   -312.6060162 -0.599389E-05  0.351E-02    0.67       1.0  T
   3   -312.6059939  0.222964E-04  0.112E-02    0.67       1.0  T
   4   -312.6060189 -0.249407E-04  0.273E-03    0.67       2.8  T
   5   -312.6060196 -0.769955E-06  0.140E-03    0.67       5.5  T
   6   -312.6060198 -0.139690E-06  0.740E-04    0.67      10.4  T
   7   -312.6060198 -0.515735E-07  0.361E-04    0.67      21.3  T
     SCC iter.                  ...        0 min,  0.204 sec
     gradient                   ...        0 min,  0.085 sec
 * total energy  :  -308.0430850 Eh     change       -0.5038309E-03 Eh
   gradient norm :     0.0079482 Eh/α   predicted     0.0000000E+00 (-100.00%)
   displ. norm   :     0.0955257 α      lambda       -0.1763712E-03
   maximum displ.:     0.0362467 α      in ANC's #4, #2, #6, ...

........................................................................
.............................. CYCLE   44 ..............................
........................................................................
   1   -312.6073821 -0.312607E+03  0.392E-02    0.67       0.0  T
   2   -312.6073854 -0.334128E-05  0.217E-02    0.67       1.0  T
   3   -312.6073751  0.103093E-04  0.746E-03    0.68       1.0  T
   4   -312.6073874 -0.122833E-04  0.122E-03    0.67       6.3  T
   5   -312.6073875 -0.961977E-07  0.794E-04    0.67       9.7  T
   6   -312.6073876 -0.748923E-07  0.307E-04    0.67      25.0  T
     SCC iter.                  ...        0 min,  0.175 sec
     gradient                   ...        0 min,  0.087 sec
 * total energy  :  -308.0431792 Eh     change       -0.9418163E-04 Eh
   gradient norm :     0.0043194 Eh/α   predicted    -0.8899148E-04 (  -5.51%)
   displ. norm   :     0.2496174 α      lambda       -0.3559202E-03
   maximum displ.:     0.0890598 α      in ANC's #2, #4, #6, ...

........................................................................
.............................. CYCLE   45 ..............................
........................................................................
   1   -312.6106756 -0.312611E+03  0.599E-02    0.67       0.0  T
   2   -312.6106827 -0.715352E-05  0.335E-02    0.66       1.0  T
   3   -312.6106297  0.529967E-04  0.158E-02    0.68       1.0  T
   4   -312.6106892 -0.595205E-04  0.258E-03    0.67       3.0  T
   5   -312.6106899 -0.666944E-06  0.146E-03    0.67       5.3  T
   6   -312.6106900 -0.142167E-06  0.715E-04    0.67      10.8  T
   7   -312.6106901 -0.358759E-07  0.437E-04    0.67      17.6  T
     SCC iter.                  ...        0 min,  0.205 sec
     gradient                   ...        0 min,  0.086 sec
 * total energy  :  -308.0432603 Eh     change       -0.8109405E-04 Eh
   gradient norm :     0.0163131 Eh/α   predicted    -0.1890488E-03 ( 133.12%)
   displ. norm   :     0.1898756 α      lambda       -0.3819921E-03
   maximum displ.:     0.0776813 α      in ANC's #4, #2, #6, ...

........................................................................
.............................. CYCLE   46 ..............................
........................................................................
   1   -312.6118141 -0.312612E+03  0.629E-02    0.67       0.0  T
   2   -312.6118213 -0.720958E-05  0.348E-02    0.66       1.0  T
   3   -312.6118146  0.669276E-05  0.717E-03    0.67       1.1  T
   4   -312.6118243 -0.973184E-05  0.165E-03    0.66       4.7  T
   5   -312.6118244 -0.118102E-06  0.107E-03    0.66       7.2  T
   6   -312.6118246 -0.134555E-06  0.434E-04    0.66      17.7  T
   7   -312.6118246 -0.133817E-07  0.266E-04    0.66      29.0  T
     SCC iter.                  ...        0 min,  0.202 sec
     gradient                   ...        0 min,  0.086 sec
 * total energy  :  -308.0434386 Eh     change       -0.1782695E-03 Eh
   gradient norm :     0.0114671 Eh/α   predicted    -0.1978821E-03 (  11.00%)
   displ. norm   :     0.1814523 α      lambda       -0.3199118E-03
   maximum displ.:     0.0736074 α      in ANC's #4, #2, #6, ...

........................................................................
.............................. CYCLE   47 ..............................
........................................................................
   1   -312.6093671 -0.312609E+03  0.364E-02    0.66       0.0  T
   2   -312.6093697 -0.258782E-05  0.206E-02    0.66       1.0  T
   3   -312.6093550  0.146571E-04  0.911E-03    0.66       1.0  T
   4   -312.6093717 -0.166096E-04  0.132E-03    0.66       5.8  T
   5   -312.6093718 -0.129230E-06  0.777E-04    0.66       9.9  T
   6   -312.6093719 -0.640898E-07  0.390E-04    0.66      19.7  T
     SCC iter.                  ...        0 min,  0.173 sec
     gradient                   ...        0 min,  0.087 sec
 * total energy  :  -308.0436162 Eh     change       -0.1776822E-03 Eh
   gradient norm :     0.0080137 Eh/α   predicted    -0.1652255E-03 (  -7.01%)
   displ. norm   :     0.3388084 α      lambda       -0.3637745E-03
   maximum displ.:     0.1403288 α      in ANC's #4, #2, #6, ...

........................................................................
.............................. CYCLE   48 ..............................
........................................................................
   1   -312.6071526 -0.312607E+03  0.692E-02    0.66       0.0  T
   2   -312.6071609 -0.823875E-05  0.385E-02    0.67       1.0  T
   3   -312.6071457  0.152046E-04  0.935E-03    0.66       1.0  T
   4   -312.6071647 -0.190090E-04  0.200E-03    0.67       3.9  T
   5   -312.6071650 -0.286277E-06  0.106E-03    0.66       7.2  T
   6   -312.6071651 -0.104594E-06  0.504E-04    0.66      15.3  T
   7   -312.6071651 -0.354472E-07  0.225E-04    0.66      34.2  T
     SCC iter.                  ...        0 min,  0.202 sec
     gradient                   ...        0 min,  0.086 sec
 * total energy  :  -308.0437263 Eh     change       -0.1100701E-03 Eh
   gradient norm :     0.0161142 Eh/α   predicted    -0.2027671E-03 (  84.22%)
   displ. norm   :     0.3517522 α      lambda       -0.4352560E-03
   maximum displ.:     0.1448361 α      in ANC's #4, #2, #6, ...

........................................................................
.............................. CYCLE   49 ..............................
........................................................................
   1   -312.6065816 -0.312607E+03  0.607E-02    0.67       0.0  T
   2   -312.6065888 -0.719491E-05  0.337E-02    0.67       1.0  T
   3   -312.6065843  0.451721E-05  0.687E-03    0.66       1.1  T
   4   -312.6065918 -0.754778E-05  0.168E-03    0.67       4.6  T
   5   -312.6065919 -0.175388E-07  0.992E-04    0.67       7.8  T
   6   -312.6065920 -0.139382E-06  0.409E-04    0.67      18.8  T
     SCC iter.                  ...        0 min,  0.174 sec
     gradient                   ...        0 min,  0.085 sec
 * total energy  :  -308.0440407 Eh     change       -0.3144017E-03 Eh
   gradient norm :     0.0082933 Eh/α   predicted    -0.2445580E-03 ( -22.21%)
   displ. norm   :     0.4952796 α      lambda       -0.5029906E-03
   maximum displ.:     0.2170745 α      in ANC's #4, #2, #6, ...

........................................................................
.............................. CYCLE   50 ..............................
........................................................................
   1   -312.6082608 -0.312608E+03  0.725E-02    0.67       0.0  T
   2   -312.6082698 -0.891679E-05  0.407E-02    0.67       1.0  T
   3   -312.6082618  0.800352E-05  0.777E-03    0.67       1.0  T
   4   -312.6082732 -0.114651E-04  0.224E-03    0.67       3.4  T
   5   -312.6082735 -0.246747E-06  0.130E-03    0.67       5.9  T
   6   -312.6082736 -0.147677E-06  0.559E-04    0.67      13.8  T
   7   -312.6082737 -0.346560E-07  0.284E-04    0.67      27.1  T
     SCC iter.                  ...        0 min,  0.198 sec
     gradient                   ...        0 min,  0.086 sec
 * total energy  :  -308.0443011 Eh     change       -0.2603758E-03 Eh
   gradient norm :     0.0110040 Eh/α   predicted    -0.3131912E-03 (  20.28%)
   displ. norm   :     0.4920111 α      lambda       -0.4213482E-03
   maximum displ.:     0.2245791 α      in ANC's #4, #2, #6, ...

........................................................................
.............................. CYCLE   51 ..............................
........................................................................
   1   -312.6085263 -0.312609E+03  0.568E-02    0.67       0.0  T
   2   -312.6085318 -0.548400E-05  0.318E-02    0.67       1.0  T
   3   -312.6085174  0.143561E-04  0.840E-03    0.67       1.0  T
   4   -312.6085344 -0.170172E-04  0.212E-03    0.67       3.6  T
   5   -312.6085347 -0.309443E-06  0.137E-03    0.67       5.6  T
   6   -312.6085350 -0.237279E-06  0.579E-04    0.67      13.3  T
   7   -312.6085350 -0.274744E-07  0.318E-04    0.67      24.2  T
     SCC iter.                  ...        0 min,  0.200 sec
     gradient                   ...        0 min,  0.086 sec
 * total energy  :  -308.0446512 Eh     change       -0.3501474E-03 Eh
   gradient norm :     0.0094820 Eh/α   predicted    -0.2616776E-03 ( -25.27%)
   displ. norm   :     0.5889081 α      lambda       -0.4843096E-03
   maximum displ.:     0.2718965 α      in ANC's #4, #2, #6, ...

........................................................................
.............................. CYCLE   52 ..............................
........................................................................
   1   -312.6110635 -0.312611E+03  0.520E-02    0.67       0.0  T
   2   -312.6110682 -0.462572E-05  0.295E-02    0.67       1.0  T
   3   -312.6110506  0.175719E-04  0.969E-03    0.67       1.0  T
   4   -312.6110705 -0.199339E-04  0.241E-03    0.67       3.2  T
   5   -312.6110709 -0.396116E-06  0.149E-03    0.67       5.2  T
   6   -312.6110711 -0.191658E-06  0.771E-04    0.67      10.0  T
   7   -312.6110711 -0.437544E-07  0.459E-04    0.67      16.8  T
     SCC iter.                  ...        0 min,  0.206 sec
     gradient                   ...        0 min,  0.086 sec
 * total energy  :  -308.0450448 Eh     change       -0.3935520E-03 Eh
   gradient norm :     0.0062116 Eh/α   predicted    -0.3261385E-03 ( -17.13%)
   displ. norm   :     0.7577832 α      lambda       -0.4601658E-03
   maximum displ.:     0.3444617 α      in ANC's #4, #2, #6, ...

........................................................................
.............................. CYCLE   53 ..............................
........................................................................
   1   -312.6080188 -0.312608E+03  0.611E-02    0.67       0.0  T
   2   -312.6080241 -0.532837E-05  0.349E-02    0.67       1.0  T
   3   -312.6080163  0.783912E-05  0.746E-03    0.67       1.0  T
   4   -312.6080260 -0.968820E-05  0.258E-03    0.67       3.0  T
   5   -312.6080263 -0.353686E-06  0.147E-03    0.67       5.2  T
   6   -312.6080265 -0.148401E-06  0.827E-04    0.67       9.3  T
   7   -312.6080266 -0.726018E-07  0.494E-04    0.67      15.6  T
     SCC iter.                  ...        0 min,  0.203 sec
     gradient                   ...        0 min,  0.086 sec
 * total energy  :  -308.0454485 Eh     change       -0.4036746E-03 Eh
   gradient norm :     0.0072871 Eh/α   predicted    -0.3622055E-03 ( -10.27%)
   displ. norm   :     0.7147065 α      lambda       -0.5309100E-03
   maximum displ.:     0.3374152 α      in ANC's #4, #2, #6, ...

........................................................................
.............................. CYCLE   54 ..............................
........................................................................
   1   -312.6108029 -0.312611E+03  0.581E-02    0.67       0.0  T
   2   -312.6108081 -0.517346E-05  0.332E-02    0.66       1.0  T
   3   -312.6107840  0.241495E-04  0.106E-02    0.67       1.0  T
   4   -312.6108104 -0.264791E-04  0.299E-03    0.66       2.6  T
   5   -312.6108113 -0.816918E-06  0.177E-03    0.66       4.4  T
   6   -312.6108115 -0.246689E-06  0.951E-04    0.66       8.1  T
   7   -312.6108116 -0.641414E-07  0.594E-04    0.66      12.9  T
     SCC iter.                  ...        0 min,  0.201 sec
     gradient                   ...        0 min,  0.086 sec
 * total energy  :  -308.0458784 Eh     change       -0.4299234E-03 Eh
   gradient norm :     0.0073778 Eh/α   predicted    -0.4010530E-03 (  -6.72%)
   displ. norm   :     0.8081704 α      lambda       -0.5024098E-03
   maximum displ.:     0.3787393 α      in ANC's #4, #2, #6, ...

........................................................................
.............................. CYCLE   55 ..............................
........................................................................
   1   -312.6082651 -0.312608E+03  0.648E-02    0.67       0.0  T
   2   -312.6082707 -0.560283E-05  0.371E-02    0.66       1.0  T
   3   -312.6082325  0.381073E-04  0.126E-02    0.67       1.0  T
   4   -312.6082743 -0.417752E-04  0.294E-03    0.66       2.6  T
   5   -312.6082751 -0.808288E-06  0.175E-03    0.66       4.4  T
   6   -312.6082754 -0.242692E-06  0.832E-04    0.66       9.2  T
   7   -312.6082754 -0.523001E-07  0.484E-04    0.66      15.9  T
     SCC iter.                  ...        0 min,  0.200 sec
     gradient                   ...        0 min,  0.085 sec
 * total energy  :  -308.0463304 Eh     change       -0.4520023E-03 Eh
   gradient norm :     0.0062391 Eh/α   predicted    -0.4152820E-03 (  -8.12%)
   displ. norm   :     0.7501509 α      lambda       -0.5376260E-03
   maximum displ.:     0.3628052 α      in ANC's #4, #2, #6, ...

........................................................................
.............................. CYCLE   56 ..............................
........................................................................
   1   -312.6084851 -0.312608E+03  0.703E-02    0.66       0.0  T
   2   -312.6084928 -0.764877E-05  0.400E-02    0.65       1.0  T
   3   -312.6084229  0.698620E-04  0.169E-02    0.67       1.0  T
   4   -312.6084999 -0.770211E-04  0.333E-03    0.65       2.3  T
   5   -312.6085012 -0.127388E-05  0.187E-03    0.65       4.1  T
   6   -312.6085015 -0.262156E-06  0.776E-04    0.65       9.9  T
   7   -312.6085015 -0.603217E-07  0.376E-04    0.65      20.5  T
     SCC iter.                  ...        0 min,  0.201 sec
     gradient                   ...        0 min,  0.085 sec
 * total energy  :  -308.0467922 Eh     change       -0.4618521E-03 Eh
   gradient norm :     0.0049066 Eh/α   predicted    -0.4200827E-03 (  -9.04%)
   displ. norm   :     0.8008619 α      lambda       -0.4914146E-03
   maximum displ.:     0.3936645 α      in ANC's #4, #2, #6, ...

........................................................................
.............................. CYCLE   57 ..............................
........................................................................
   1   -312.6101919 -0.312610E+03  0.618E-02    0.65       0.0  T
   2   -312.6101971 -0.519960E-05  0.354E-02    0.64       1.0  T
   3   -312.6101582  0.389129E-04  0.127E-02    0.66       1.0  T
   4   -312.6102006 -0.424584E-04  0.285E-03    0.65       2.7  T
   5   -312.6102016 -0.931837E-06  0.157E-03    0.65       4.9  T
   6   -312.6102018 -0.195068E-06  0.646E-04    0.65      11.9  T
   7   -312.6102018 -0.349729E-07  0.341E-04    0.65      22.6  T
     SCC iter.                  ...        0 min,  0.204 sec
     gradient                   ...        0 min,  0.086 sec
 * total energy  :  -308.0472250 Eh     change       -0.4327509E-03 Eh
   gradient norm :     0.0071350 Eh/α   predicted    -0.4033013E-03 (  -6.81%)
   displ. norm   :     0.7866247 α      lambda       -0.5036834E-03
   maximum displ.:     0.3931406 α      in ANC's #4, #2, #6, ...

........................................................................
.............................. CYCLE   58 ..............................
........................................................................
   1   -312.6104363 -0.312610E+03  0.759E-02    0.65       0.0  T
   2   -312.6104463 -0.993314E-05  0.430E-02    0.64       1.0  T
   3   -312.6104255  0.207716E-04  0.117E-02    0.65       1.0  T
   4   -312.6104507 -0.251714E-04  0.293E-03    0.64       2.6  T
   5   -312.6104511 -0.446135E-06  0.182E-03    0.64       4.2  T
   6   -312.6104515 -0.398303E-06  0.752E-04    0.64      10.2  T
   7   -312.6104516 -0.724244E-07  0.346E-04    0.64      22.2  T
     SCC iter.                  ...        0 min,  0.200 sec
     gradient                   ...        0 min,  0.085 sec
 * total energy  :  -308.0476355 Eh     change       -0.4105188E-03 Eh
[...]
                           155 H    0.976
    82   6 C    3.960 --    83 C    1.340    67 C    1.190    95 C    1.179
    83   6 C    3.870 --    82 C    1.340    85 C    1.325    84 F    0.979
    84   9 F    1.118 --    83 C    0.979
    85   6 C    3.871 --    87 C    1.352    83 C    1.325    86 F    0.986
    86   9 F    1.124 --    85 C    0.986
    87   6 C    3.934 --    85 C    1.352    88 C    1.182    98 C    1.174
    88   6 C    3.976 --    89 N    1.313    95 C    1.241    87 C    1.182
    89   7 N    3.090 --    90 C    1.511    88 C    1.313
    90   6 C    3.961 --    89 N    1.511    93 C    1.226    91 C    1.014
    91   6 C    3.994 --    92 C    1.019    90 C    1.014   157 H    0.955
                           156 H    0.952
    92   6 C    3.994 --    91 C    1.019   159 H    0.987   158 H    0.986
                           160 H    0.984
    93   6 C    3.953 --    94 N    1.499    90 C    1.226    96 C    1.012
    94   7 N    3.193 --    93 C    1.499    95 C    1.316    68 S    0.131
    95   6 C    3.976 --    94 N    1.316    88 C    1.241    82 C    1.179
    96   6 C    3.992 --    93 C    1.012    97 C    0.993   162 H    0.971
                           161 H    0.968
    97   6 C    3.990 --    96 C    0.993   164 H    0.987   165 H    0.986
                           163 H    0.985
    98   6 C    3.938 --    99 C    1.587    87 C    1.174   166 H    0.943
    99   6 C    3.958 --    98 C    1.587   109 C    1.134   100 C    1.013
   100   6 C    3.922 --   101 O    1.772   102 C    1.021    99 C    1.013
   101   8 O    2.054 --   100 C    1.772
   102   6 C    3.977 --   103 C    1.409   108 C    1.292   100 C    1.021
   103   6 C    3.983 --   104 C    1.434   102 C    1.409   167 H    0.964
   104   6 C    3.969 --   103 C    1.434   105 C    1.390   168 H    0.966
   105   6 C    3.916 --   104 C    1.390   107 C    1.389   106 Cl   1.000
   106  17 Cl   1.142 --   105 C    1.000
   107   6 C    3.974 --   108 C    1.408   105 C    1.389   169 H    0.957
   108   6 C    3.984 --   107 C    1.408   102 C    1.292   109 C    1.081
   109   6 C    3.974 --   110 C    1.498    99 C    1.134   108 C    1.081
   110   6 C    3.957 --   109 C    1.498   111 C    1.095   113 C    1.093
   111   6 C    3.946 --   112 N    2.769   110 C    1.095
   112   7 N    2.972 --   111 C    2.769
   113   6 C    3.947 --   114 N    2.769   110 C    1.093
   114   7 N    2.973 --   113 C    2.769
   115   1 H    0.990 --     1 C    0.943
   116   1 H    0.993 --     7 C    0.957
   117   1 H    0.993 --     8 C    0.964
   118   1 H    0.993 --    28 C    0.949
   119   1 H    0.994 --    28 C    0.956
   120   1 H    0.997 --    29 C    0.984
   121   1 H    0.998 --    29 C    0.985
   122   1 H    0.998 --    29 C    0.987
   123   1 H    0.996 --    33 C    0.970
   124   1 H    0.997 --    33 C    0.969
   125   1 H    0.998 --    34 C    0.985
   126   1 H    0.996 --    34 C    0.985
   127   1 H    0.998 --    34 C    0.985
   128   1 H    0.999 --    38 C    0.970
   129   1 H    0.998 --    39 C    0.970
   130   1 H    0.998 --    40 C    0.969
   131   1 H    0.998 --    42 C    0.976
   132   1 H    0.998 --    42 C    0.972
   133   1 H    0.998 --    43 C    0.987
   134   1 H    0.998 --    43 C    0.986
   135   1 H    0.999 --    43 C    0.989
   136   1 H    0.998 --    44 C    0.963
   137   1 H    0.999 --    60 C    0.970
   138   1 H    0.998 --    61 C    0.970
   139   1 H    0.998 --    62 C    0.969
   140   1 H    0.998 --    64 C    0.974
   141   1 H    0.998 --    64 C    0.973
   142   1 H    0.999 --    65 C    0.988
   143   1 H    0.998 --    65 C    0.988
   144   1 H    0.998 --    65 C    0.986
   145   1 H    0.998 --    66 C    0.964
   146   1 H    0.995 --    78 C    0.964
   147   1 H    0.995 --    78 C    0.957
   148   1 H    0.998 --    79 C    0.984
   149   1 H    0.997 --    79 C    0.983
   150   1 H    0.997 --    79 C    0.986
   151   1 H    0.996 --    80 C    0.963
   152   1 H    0.994 --    80 C    0.965
   153   1 H    0.997 --    81 C    0.981
   154   1 H    0.997 --    81 C    0.983
   155   1 H    0.996 --    81 C    0.976
   156   1 H    0.994 --    91 C    0.952
   157   1 H    0.994 --    91 C    0.955
   158   1 H    0.997 --    92 C    0.986
   159   1 H    0.998 --    92 C    0.987
   160   1 H    0.998 --    92 C    0.984
   161   1 H    0.995 --    96 C    0.968
   162   1 H    0.997 --    96 C    0.971
   163   1 H    0.997 --    97 C    0.985
   164   1 H    0.999 --    97 C    0.987
   165   1 H    0.997 --    97 C    0.986
   166   1 H    0.990 --    98 C    0.943
   167   1 H    0.995 --   103 C    0.964
   168   1 H    0.994 --   104 C    0.966
   169   1 H    0.993 --   107 C    0.957
 ---------------------------------------------------------------------------

Topologies differ in bond orders
Writing corrected topology to xtbtopo.mol

molecular dipole:
                 x           y           z       tot (Debye)
 q only:        0.354      -1.176       0.090
   full:       -0.183      -1.154       0.591       3.329
molecular quadrupole (traceless):
                xx          xy          yy          xz          yz          zz
 q only:       98.012     -36.793     -16.386     -26.825    -162.797     -81.627
  q+dip:      116.854     -40.784     -47.984     -43.064    -158.653     -68.871
   full:      129.736     -40.510     -52.408     -41.008    -157.442     -77.328

           -------------------------------------------------
          |                Geometry Summary                 |
           -------------------------------------------------

      molecular mass/u    :     1699.5877014
   center of mass at/Å    :        0.2232190      -0.6581082      -0.1803978
  moments of inertia/u·Å² :        0.3811898E+05   0.1344435E+06   0.1671951E+06
rotational constants/cm⁻¹ :        0.4422372E-03   0.1253882E-03   0.1008261E-03

 * 162 selected distances

     #   Z          #   Z                                           value/Å
     1   6 C        2   6 C                                       1.3611904
     3   6 C        4   8 O                                       1.2099856
     5   6 C        6   6 C                                       1.4070589
     6   6 C        7   6 C                                       1.3866255
     7   6 C        8   6 C                                       1.3865919
     8   6 C        9   6 C                                       1.3869448
     9   6 C       10  35 Br                                      1.8895998 (max)
     5   6 C       11   6 C                                       1.3859817
     9   6 C       11   6 C                                       1.3985964
    11   6 C       12  17 Cl                                      1.7129975
    13   6 C       14   6 C                                       1.3695811
    15   6 C       16   7 N                                       1.1477916
    17   6 C       18   7 N                                       1.1477097
     1   6 C       19   6 C                                       1.4305143
    19   6 C       20   6 C                                       1.3885974
    20   6 C       22   6 C                                       1.3928462
    22   6 C       24   6 C                                       1.3928933
    24   6 C       25   6 C                                       1.4304179
    25   6 C       26   7 N                                       1.3422797
    26   7 N       27   6 C                                       1.3087122
    28   6 C       29   6 C                                       1.5214600
    27   6 C       30   6 C                                       1.4266173
    30   6 C       31   7 N                                       1.3071683
    19   6 C       32   6 C                                       1.4263625
    25   6 C       32   6 C                                       1.4140591
    31   7 N       32   6 C                                       1.3405031
    33   6 C       34   6 C                                       1.5304606
    24   6 C       35   6 C                                       1.4305786
    35   6 C       36   6 C                                       1.3906714
    37   6 C       38   6 C                                       1.3941196
    38   6 C       39   6 C                                       1.3804715
    39   6 C       40   6 C                                       1.3847097
    40   6 C       41   6 C                                       1.3886646
    42   6 C       43   6 C                                       1.5302035
    37   6 C       44   6 C                                       1.3900961
    41   6 C       44   6 C                                       1.3863879
    36   6 C       45   6 C                                       1.4061266
    45   6 C       46  16 S                                       1.7498338
    46  16 S       47   6 C                                       1.7305811
    47   6 C       48   6 C                                       1.4037037
    48   6 C       49   6 C                                       1.4126062
    49   6 C       50   6 C                                       1.4356078
    50   6 C       51   7 N                                       1.3235747
    51   7 N       52  16 S                                       1.6188769
    49   6 C       53   7 N                                       1.3236455
    52  16 S       53   7 N                                       1.6188173
    50   6 C       54   6 C                                       1.4125416
    54   6 C       55   6 C                                       1.4028127
    55   6 C       56  16 S                                       1.7295769
    56  16 S       57   6 C                                       1.7505693
    57   6 C       58   6 C                                       1.4046478
    59   6 C       60   6 C                                       1.3941089
    60   6 C       61   6 C                                       1.3805332
    61   6 C       62   6 C                                       1.3843612
    62   6 C       63   6 C                                       1.3890947
    64   6 C       65   6 C                                       1.5299502
    59   6 C       66   6 C                                       1.3904030
    63   6 C       66   6 C                                       1.3860902
    58   6 C       67   6 C                                       1.3927030
    67   6 C       68  16 S                                       1.7542756
    57   6 C       69   6 C                                       1.3985878
    68  16 S       69   6 C                                       1.7318433
    55   6 C       70   6 C                                       1.4000381
    69   6 C       70   6 C                                       1.3981520
    70   6 C       71   7 N                                       1.3696033
    54   6 C       72   6 C                                       1.4250317
    71   7 N       72   6 C                                       1.3817076
    48   6 C       73   6 C                                       1.4239656
    72   6 C       73   6 C                                       1.4173448
    73   6 C       74   7 N                                       1.3870785
    47   6 C       75   6 C                                       1.3978081
    74   7 N       75   6 C                                       1.3711658
    45   6 C       76   6 C                                       1.3992326
    75   6 C       76   6 C                                       1.3987466
    35   6 C       77  16 S                                       1.7502598
    76   6 C       77  16 S                                       1.7259371
    74   7 N       78   6 C                                       1.4472685
    78   6 C       79   6 C                                       1.5271933
    71   7 N       80   6 C                                       1.4446997
    80   6 C       81   6 C                                       1.5277903
    67   6 C       82   6 C                                       1.4273323
    82   6 C       83   6 C                                       1.3936379
    83   6 C       85   6 C                                       1.3939613
    85   6 C       87   6 C                                       1.3895698
    87   6 C       88   6 C                                       1.4259265
    88   6 C       89   7 N                                       1.3403998
    89   7 N       90   6 C                                       1.3082657
    91   6 C       92   6 C                                       1.5226570
    90   6 C       93   6 C                                       1.4237312
    93   6 C       94   7 N                                       1.3090099
    82   6 C       95   6 C                                       1.4302677
    88   6 C       95   6 C                                       1.4128818
    94   7 N       95   6 C                                       1.3374609
    96   6 C       97   6 C                                       1.5307279
    87   6 C       98   6 C                                       1.4308223
    98   6 C       99   6 C                                       1.3602147
   100   6 C      101   8 O                                       1.2117308
   102   6 C      103   6 C                                       1.3826301
   103   6 C      104   6 C                                       1.3851851
   104   6 C      105   6 C                                       1.3909782
   105   6 C      106  17 Cl                                      1.7223026
   105   6 C      107   6 C                                       1.3913974
   102   6 C      108   6 C                                       1.4059707
   107   6 C      108   6 C                                       1.3850366
   109   6 C      110   6 C                                       1.3687110
   111   6 C      112   7 N                                       1.1477208
   113   6 C      114   7 N                                       1.1478151
     1   6 C      115   1 H                                       1.0824326
     7   6 C      116   1 H                                       1.0770688 (min)
     8   6 C      117   1 H                                       1.0791037
    28   6 C      118   1 H                                       1.0950081
    28   6 C      119   1 H                                       1.0923361
    29   6 C      120   1 H                                       1.0855131
    29   6 C      121   1 H                                       1.0862450
    29   6 C      122   1 H                                       1.0874075
    33   6 C      123   1 H                                       1.0912206
    33   6 C      124   1 H                                       1.0902508
    34   6 C      125   1 H                                       1.0873704
    34   6 C      126   1 H                                       1.0870821
    34   6 C      127   1 H                                       1.0861972
    38   6 C      128   1 H                                       1.0811385
    39   6 C      129   1 H                                       1.0801877
    40   6 C      130   1 H                                       1.0803754
    42   6 C      131   1 H                                       1.0914061
    42   6 C      132   1 H                                       1.0917368
    43   6 C      133   1 H                                       1.0876744
    43   6 C      134   1 H                                       1.0873793
    43   6 C      135   1 H                                       1.0878544
    44   6 C      136   1 H                                       1.0799115
    60   6 C      137   1 H                                       1.0809953
    61   6 C      138   1 H                                       1.0801464
    62   6 C      139   1 H                                       1.0804614
    64   6 C      140   1 H                                       1.0917469
    64   6 C      141   1 H                                       1.0917277
    65   6 C      142   1 H                                       1.0875759
    65   6 C      143   1 H                                       1.0874460
    65   6 C      144   1 H                                       1.0875075
    66   6 C      145   1 H                                       1.0801415
    78   6 C      146   1 H                                       1.0927477
    78   6 C      147   1 H                                       1.0862986
    79   6 C      148   1 H                                       1.0881744
    79   6 C      149   1 H                                       1.0866625
    79   6 C      150   1 H                                       1.0874455
    80   6 C      151   1 H                                       1.0908268
    80   6 C      152   1 H                                       1.0960567
    81   6 C      153   1 H                                       1.0860818
    81   6 C      154   1 H                                       1.0865512
    81   6 C      155   1 H                                       1.0863849
    91   6 C      156   1 H                                       1.0940630
    91   6 C      157   1 H                                       1.0933753
    92   6 C      158   1 H                                       1.0864869
    92   6 C      159   1 H                                       1.0871574
    92   6 C      160   1 H                                       1.0865292
    96   6 C      161   1 H                                       1.0905117
    96   6 C      162   1 H                                       1.0894452
    97   6 C      163   1 H                                       1.0869242
    97   6 C      164   1 H                                       1.0875941
    97   6 C      165   1 H                                       1.0869143
    98   6 C      166   1 H                                       1.0824654
   103   6 C      167   1 H                                       1.0790723
   104   6 C      168   1 H                                       1.0784762
   107   6 C      169   1 H                                       1.0773835

 * 8 distinct bonds (by element types)

   Z      Z             #   av. dist./Å        max./Å        min./Å
   1 H    6 C          55     1.0864778     1.0960567     1.0770688
   6 C    6 C          72     1.4139378     1.5307279     1.3602147
   6 C    7 N          20     1.3116790     1.4472685     1.1477097
   6 C    8 O           2     1.2108582     1.2117308     1.2099856
   6 C   16 S           8     1.7403596     1.7542756     1.7259371
   7 N   16 S           2     1.6188471     1.6188769     1.6188173
   6 C   17 Cl          2     1.7176500     1.7223026     1.7129975
   6 C   35 Br          1     1.8895998     1.8895998     1.8895998


optimized geometry written to: xtbopt.mol


           -------------------------------------------------
          | TOTAL ENERGY             -308.061054616720 Eh   |
          | GRADIENT NORM               0.000370257323 Eh/α |
          | HOMO-LUMO GAP               0.642731953556 eV   |
           -------------------------------------------------

------------------------------------------------------------------------
 * finished run on 2022/02/05 at 17:05:09.281     
------------------------------------------------------------------------
 total:
 * wall-time:     0 d,  0 h,  1 min,  2.257 sec
 *  cpu-time:     0 d,  0 h,  8 min, 17.911 sec
 * ratio c/w:     7.998 speedup
 SCF:
 * wall-time:     0 d,  0 h,  0 min,  0.641 sec
 *  cpu-time:     0 d,  0 h,  0 min,  5.112 sec
 * ratio c/w:     7.979 speedup
 ANC optimizer:
 * wall-time:     0 d,  0 h,  1 min,  1.515 sec
 *  cpu-time:     0 d,  0 h,  8 min, 12.089 sec
 * ratio c/w:     7.999 speedup

