      -----------------------------------------------------------      
     |                   =====================                   |     
     |                           x T B                           |     
     |                   =====================                   |     
     |                         S. Grimme                         |     
     |          Mulliken Center for Theoretical Chemistry        |     
     |                    University of Bonn                     |     
      -----------------------------------------------------------      

   * xtb version 6.4.1 (unknown) compiled by 'oda6@login1.crc.pitt.edu' on 2021-06-25

   xtb is free software: you can redistribute it and/or modify it under
   the terms of the GNU Lesser General Public License as published by
   the Free Software Foundation, either version 3 of the License, or
   (at your option) any later version.
   
   xtb is distributed in the hope that it will be useful,
   but WITHOUT ANY WARRANTY; without even the implied warranty of
   MERCHANTABILITY or FITNESS FOR A PARTICULAR PURPOSE.  See the
   GNU Lesser General Public License for more details.
   
   Cite this work as:
   * C. Bannwarth, E. Caldeweyher, S. Ehlert, A. Hansen, P. Pracht,
     J. Seibert, S. Spicher, S. Grimme, WIREs Comput. Mol. Sci., 2020, 11,
     e01493. DOI: 10.1002/wcms.1493
   
   for GFN2-xTB:
   * C. Bannwarth, S. Ehlert and S. Grimme., J. Chem. Theory Comput., 2019,
     15, 1652-1671. DOI: 10.1021/acs.jctc.8b01176
   for GFN1-xTB:
   * S. Grimme, C. Bannwarth, P. Shushkov, J. Chem. Theory Comput., 2017,
     13, 1989-2009. DOI: 10.1021/acs.jctc.7b00118
   for GFN0-xTB:
   * P. Pracht, E. Caldeweyher, S. Ehlert, S. Grimme, ChemRxiv, 2019, preprint.
     DOI: 10.26434/chemrxiv.8326202.v1
   for GFN-FF:
   * S. Spicher and S. Grimme, Angew. Chem. Int. Ed., 2020, 59, 15665-15673.
     DOI: 10.1002/anie.202004239
   
   for DFT-D4:
   * E. Caldeweyher, C. Bannwarth and S. Grimme, J. Chem. Phys., 2017,
     147, 034112. DOI: 10.1063/1.4993215
   * E. Caldeweyher, S. Ehlert, A. Hansen, H. Neugebauer, S. Spicher,
     C. Bannwarth and S. Grimme, J. Chem. Phys., 2019, 150, 154122.
     DOI: 10.1063/1.5090222
   * E. Caldeweyher, J.-M. Mewes, S. Ehlert and S. Grimme, Phys. Chem. Chem. Phys.
     2020, 22, 8499-8512. DOI: 10.1039/D0CP00502A
   
   for sTDA-xTB:
   * S. Grimme and C. Bannwarth, J. Chem. Phys., 2016, 145, 054103.
     DOI: 10.1063/1.4959605
   
   in the mass-spec context:
   * V. Asgeirsson, C. Bauer and S. Grimme, Chem. Sci., 2017, 8, 4879.
     DOI: 10.1039/c7sc00601b
   * J. Koopman and S. Grimme, ACS Omega 2019, 4, 12, 15120-15133.
     DOI: 10.1021/acsomega.9b02011
   
   for metadynamics refer to:
   * S. Grimme, J. Chem. Theory Comput., 2019, 155, 2847-2862
     DOI: 10.1021/acs.jctc.9b00143
   
   for SPH calculations refer to:
   * S. Spicher and S. Grimme, J. Chem. Theory Comput., 2021, 17, 1701-1714
     DOI: 10.1021/acs.jctc.0c01306
   
   with help from (in alphabetical order)
   P. Atkinson, C. Bannwarth, F. Bohle, G. Brandenburg, E. Caldeweyher
   M. Checinski, S. Dohm, S. Ehlert, S. Ehrlich, I. Gerasimov, J. Koopman
   C. Lavigne, S. Lehtola, F. März, M. Müller, F. Musil, H. Neugebauer
   J. Pisarek, C. Plett, P. Pracht, J. Seibert, P. Shushkov, S. Spicher
   M. Stahn, M. Steiner, T. Strunk, J. Stückrath, T. Rose, and J. Unsleber
   
 * started run on 2022/02/08 at 10:29:44.383     

           -------------------------------------------------
          |                Calculation Setup                |
           -------------------------------------------------

          program call               : /ihome/ghutchison/oda6/xtb/xtb-641/bin/xtb ../../FF_optimized/62_28_100_53_62.mol -opt
          hostname                   : smp-n26
          coordinate file            : ../../FF_optimized/62_28_100_53_62.mol
          omp threads                :                     8
          number of atoms            :                   199
          number of electrons        :                   638
          charge                     :                     0
          spin                       :                   0.0
          first test random number   :      0.07413046634807

   ID    Z sym.   atoms
    1    6 C      1-3, 5-9, 11, 13-15, 17, 19, 20, 22-36, 38, 39, 41-55,
                  57-67, 69-72, 76, 77, 79-89, 91, 92, 94, 95, 97, 98,
                  100-104, 106-108, 110-112, 114-116, 118-122, 124, 126-128,
                  130
    2    8 O      4, 109, 113, 117
    3   35 Br     10, 123
    4   17 Cl     12, 125
    5    7 N      16, 18, 21, 40, 73, 75, 93, 96, 129, 131
    6   16 S      37, 56, 68, 74, 78, 90, 99, 105
    7    1 H      132-199
########################################################################
[WARNING] Please study the warnings concerning your input carefully
-1- prog_main_parseArguments: the use of '-opt' is discouraged, please use '--opt' next time
########################################################################

           -------------------------------------------------
          |                 G F N 2 - x T B                 |
           -------------------------------------------------

        Reference                      10.1021/acs.jctc.8b01176
      * Hamiltonian:
        H0-scaling (s, p, d)           1.850000    2.230000    2.230000
        zeta-weighting                 0.500000
      * Dispersion:
        s8                             2.700000
        a1                             0.520000
        a2                             5.000000
        s9                             5.000000
      * Repulsion:
        kExp                           1.500000    1.000000
        rExp                           1.000000
      * Coulomb:
        alpha                          2.000000
        third order                    shell-resolved
        anisotropic                    true
        a3                             3.000000
        a5                             4.000000
        cn-shift                       1.200000
        cn-exp                         4.000000
        max-rad                        5.000000


          ...................................................
          :                      SETUP                      :
          :.................................................:
          :  # basis functions                 664          :
          :  # atomic orbitals                 652          :
          :  # shells                          342          :
          :  # electrons                       638          :
          :  max. iterations                   250          :
          :  Hamiltonian                  GFN2-xTB          :
          :  restarted?                      false          :
          :  GBSA solvation                  false          :
          :  PC potential                    false          :
          :  electronic temp.          300.0000000     K    :
          :  accuracy                    1.0000000          :
          :  -> integral cutoff          0.2500000E+02      :
          :  -> integral neglect         0.1000000E-07      :
          :  -> SCF convergence          0.1000000E-05 Eh   :
          :  -> wf. convergence          0.1000000E-03 e    :
          :  Broyden damping             0.4000000          :
          ...................................................

 iter      E             dE          RMSdq      gap      omega  full diag
   1   -352.7059040 -0.352706E+03  0.475E+00    0.91       0.0  T
   2   -352.9760711 -0.270167E+00  0.292E+00    0.33       1.0  T
   3   -351.7999997  0.117607E+01  0.212E+00    0.18       1.0  T
   4   -349.2485552  0.255144E+01  0.216E+00    0.11       1.0  T
   5   -352.0595001 -0.281094E+01  0.137E+00    0.34       1.0  T
   6   -353.1118873 -0.105239E+01  0.709E-01    1.45       1.0  T
   7   -353.1802383 -0.683510E-01  0.408E-01    1.01       1.0  T
   8   -353.1869656 -0.672731E-02  0.348E-01    0.71       1.0  T
   9   -353.1985815 -0.116159E-01  0.212E-01    0.46       1.0  T
  10   -353.2039080 -0.532649E-02  0.132E-01    0.19       1.0  T
  11   -353.1130015  0.909065E-01  0.402E-01    0.02       1.0  T
  12   -353.2034797 -0.904782E-01  0.991E-02    0.25       1.0  T
  13   -353.2056757 -0.219596E-02  0.561E-02    0.14       1.0  T
  14   -353.2059683 -0.292586E-03  0.463E-02    0.16       1.0  T
  15   -353.2056073  0.360924E-03  0.529E-02    0.12       1.0  T
  16   -353.2009945  0.461287E-02  0.102E-01    0.10       1.0  T
  17   -353.2054269 -0.443243E-02  0.471E-02    0.12       1.0  T
  18   -353.2053908  0.360455E-04  0.451E-02    0.12       1.0  T
  19   -353.2064715 -0.108063E-02  0.842E-03    0.14       1.0  T
  20   -353.2065007 -0.292486E-04  0.276E-03    0.15       2.6  T
  21   -353.2065028 -0.205435E-05  0.129E-03    0.15       5.5  T
  22   -353.2065025  0.260269E-06  0.108E-03    0.15       6.5  T
  23   -353.2065024  0.155974E-06  0.111E-03    0.15       6.4  T
  24   -353.2065027 -0.388945E-06  0.653E-04    0.15      10.9  T
  25   -353.2065029 -0.173230E-06  0.245E-04    0.15      29.0  T

   *** convergence criteria satisfied after 25 iterations ***

         #    Occupation            Energy/Eh            Energy/eV
      -------------------------------------------------------------
         1        2.0000           -1.0737105             -29.2172
       ...           ...                  ...                  ...
       313        2.0000           -0.3876395             -10.5482
       314        2.0000           -0.3783920             -10.2966
       315        2.0000           -0.3766526             -10.2492
       316        2.0000           -0.3678304             -10.0092
       317        2.0000           -0.3665112              -9.9733
       318        1.9918           -0.3594616              -9.7814
       319        1.8940           -0.3569777              -9.7139 (HOMO)
       320        0.1142           -0.3515748              -9.5668 (LUMO)
       321        0.0000           -0.3424256              -9.3179
       322                         -0.3331921              -9.0666
       323                         -0.3310761              -9.0090
       324                         -0.2990423              -8.1374
       ...                                ...                  ...
       652                          1.0705526              29.1312
      -------------------------------------------------------------
                  HL-Gap            0.0054029 Eh            0.1470 eV
             Fermi-level           -0.3542390 Eh           -9.6393 eV

 SCC (total)                   0 d,  0 h,  0 min,  1.155 sec
 SCC setup                      ...        0 min,  0.002 sec (  0.151%)
 Dispersion                     ...        0 min,  0.014 sec (  1.200%)
 classical contributions        ...        0 min,  0.000 sec (  0.030%)
 integral evaluation            ...        0 min,  0.051 sec (  4.438%)
 iterations                     ...        0 min,  0.962 sec ( 83.270%)
 molecular gradient             ...        0 min,  0.122 sec ( 10.586%)
 printout                       ...        0 min,  0.004 sec (  0.317%)

         :::::::::::::::::::::::::::::::::::::::::::::::::::::
         ::                     SUMMARY                     ::
         :::::::::::::::::::::::::::::::::::::::::::::::::::::
         :: total energy            -348.053363133202 Eh    ::
         :: gradient norm              0.349023201445 Eh/a0 ::
         :: HOMO-LUMO gap              0.147020246010 eV    ::
         ::.................................................::
         :: SCC energy              -353.206502914700 Eh    ::
         :: -> isotropic ES            0.169286508410 Eh    ::
         :: -> anisotropic ES          0.022594305751 Eh    ::
         :: -> anisotropic XC          0.191236496628 Eh    ::
         :: -> dispersion             -0.361595244331 Eh    ::
         :: repulsion energy           5.137762648233 Eh    ::
         :: add. restraining           0.000000000000 Eh    ::
         :: total charge               0.000000000001 e     ::
         :::::::::::::::::::::::::::::::::::::::::::::::::::::

      ----------------------------------------------------------- 
     |                   =====================                   |
     |                        A N C O P T                        |
     |                   =====================                   |
     |               Approximate Normal Coordinate               |
     |                Rational Function Optimizer                |
      ----------------------------------------------------------- 

          ...................................................
          :                      SETUP                      :
          :.................................................:
          :   optimization level            normal          :
          :   max. optcycles                   597          :
          :   ANC micro-cycles                  20          :
          :   degrees of freedom               591          :
          :.................................................:
          :   RF solver                   davidson          :
          :   write xtbopt.log                true          :
          :   linear?                        false          :
          :   energy convergence         0.5000000E-05 Eh   :
          :   grad. convergence          0.1000000E-02 Eh/α :
          :   maximium RF displ.         1.0000000          :
          :   Hlow (freq-cutoff)         0.1000000E-01      :
          :   Hmax (freq-cutoff)         5.0000000          :
          :   S6 in model hess.         20.0000000          :
          ...................................................

generating ANC from model Hessian ...
Using Lindh-Hessian (1995)
 Shifting diagonal of input Hessian by   1.003772770869082E-002
 Lowest  eigenvalues of input Hessian
    0.010000    0.010024    0.000000    0.000000    0.000000    0.000000
    0.000000    0.000000    0.010038    0.010049    0.010082    0.010100
    0.010124    0.010149    0.010152    0.010162    0.010191    0.010244
 Highest eigenvalues
    2.277339    2.330402    2.477797    2.507624    2.535670    2.561286
 

........................................................................
.............................. CYCLE    1 ..............................
........................................................................
   1   -353.2065029 -0.353207E+03  0.204E-04    0.15       0.0  T
   2   -353.2065021  0.792934E-06  0.117E-03    0.15       6.1  T
   3   -353.2065029 -0.808389E-06  0.105E-04    0.15      67.3  T
   4   -353.2065029 -0.223793E-08  0.762E-05    0.15      93.0  T
     SCC iter.                  ...        0 min,  0.157 sec
     gradient                   ...        0 min,  0.120 sec
 * total energy  :  -348.0533632 Eh     change       -0.1689290E-07 Eh
   gradient norm :     0.3490193 Eh/α   predicted     0.0000000E+00 (-100.00%)
   displ. norm   :     0.5145914 α      lambda       -0.1335488E+00
   maximum displ.:     0.0864622 α      in ANC's #284, #415, #378, ...

........................................................................
.............................. CYCLE    2 ..............................
........................................................................
   1   -353.4043958 -0.353404E+03  0.296E-01    0.14       0.0  T
   2   -353.4045073 -0.111491E-03  0.188E-01    0.22       1.0  T
   3   -352.8039572  0.600550E+00  0.101E+00    0.10       1.0  T
   4   -353.4031527 -0.599196E+00  0.127E-01    0.25       1.0  T
   5   -353.4048638 -0.171110E-02  0.828E-02    0.23       1.0  T
   6   -353.4047987  0.651281E-04  0.765E-02    0.24       1.0  T
   7   -353.4053668 -0.568053E-03  0.647E-02    0.22       1.0  T
   8   -353.4056725 -0.305709E-03  0.598E-02    0.21       1.0  T
   9   -353.4058282 -0.155727E-03  0.551E-02    0.20       1.0  T
  10   -353.4062317 -0.403541E-03  0.462E-02    0.19       1.0  T
  11   -353.4065850 -0.353281E-03  0.359E-02    0.18       1.0  T
  12   -353.4071140 -0.529016E-03  0.159E-02    0.16       1.0  T
  13   -353.4072305 -0.116466E-03  0.519E-03    0.15       1.4  T
  14   -353.4072371 -0.661436E-05  0.396E-03    0.15       1.8  T
  15   -353.4072440 -0.690928E-05  0.132E-03    0.15       5.4  T
  16   -353.4072446 -0.548893E-06  0.737E-04    0.15       9.6  T
  17   -353.4072447 -0.890157E-07  0.471E-04    0.15      15.0  T
     SCC iter.                  ...        0 min,  0.660 sec
     gradient                   ...        0 min,  0.122 sec
 * total energy  :  -348.1529315 Eh     change       -0.9956832E-01 Eh
   gradient norm :     0.1717963 Eh/α   predicted    -0.8451411E-01 ( -15.12%)
   displ. norm   :     0.5284727 α      lambda       -0.6288934E-01
   maximum displ.:     0.0842274 α      in ANC's #133, #284, #175, ...

........................................................................
.............................. CYCLE    3 ..............................
........................................................................
   1   -353.5288787 -0.353529E+03  0.256E-01    0.13       0.0  T
   2   -353.5273125  0.156615E-02  0.173E-01    0.28       1.0  T
   3   -353.1149473  0.412365E+00  0.851E-01    0.06       1.0  T
   4   -353.5277907 -0.412843E+00  0.118E-01    0.30       1.0  T
   5   -353.5284158 -0.625182E-03  0.897E-02    0.29       1.0  T
   6   -353.5289518 -0.535915E-03  0.790E-02    0.28       1.0  T
   7   -353.5295152 -0.563460E-03  0.696E-02    0.25       1.0  T
   8   -353.5299897 -0.474491E-03  0.607E-02    0.23       1.0  T
   9   -353.5304815 -0.491743E-03  0.506E-02    0.21       1.0  T
  10   -353.5310972 -0.615773E-03  0.360E-02    0.19       1.0  T
  11   -353.5316998 -0.602577E-03  0.989E-03    0.16       1.0  T
  12   -353.5317414 -0.415691E-04  0.402E-03    0.15       1.8  T
  13   -353.5316799  0.614434E-04  0.108E-02    0.14       1.0  T
  14   -353.5317422 -0.622319E-04  0.326E-03    0.15       2.2  T
  15   -353.5317413  0.896866E-06  0.320E-03    0.15       2.2  T
  16   -353.5317454 -0.413697E-05  0.158E-03    0.15       4.5  T
  17   -353.5317460 -0.633761E-06  0.963E-04    0.15       7.4  T
  18   -353.5317463 -0.236713E-06  0.637E-04    0.15      11.1  T
     SCC iter.                  ...        0 min,  0.696 sec
     gradient                   ...        0 min,  0.123 sec
 * total energy  :  -348.1937855 Eh     change       -0.4085402E-01 Eh
   gradient norm :     0.0549957 Eh/α   predicted    -0.4022667E-01 (  -1.54%)
   displ. norm   :     0.5621842 α      lambda       -0.1850899E-01
   maximum displ.:     0.1142438 α      in ANC's #41, #51, #133, ...

........................................................................
.............................. CYCLE    4 ..............................
........................................................................
   1   -353.5786860 -0.353579E+03  0.160E-01    0.18       0.0  T
   2   -353.5699695  0.871645E-02  0.163E-01    0.10       1.0  T
   3   -353.5733140 -0.334447E-02  0.134E-01    0.42       1.0  T
   4   -353.5771527 -0.383874E-02  0.878E-02    0.28       1.0  T
   5   -353.5775230 -0.370252E-03  0.636E-02    0.25       1.0  T
   6   -353.5789336 -0.141065E-02  0.317E-02    0.19       1.0  T
   7   -353.5793588 -0.425194E-03  0.999E-03    0.16       1.0  T
   8   -353.5793568  0.200811E-05  0.968E-03    0.17       1.0  T
   9   -353.5793849 -0.280996E-04  0.557E-03    0.16       1.3  T
  10   -353.5793964 -0.114811E-04  0.290E-03    0.16       2.4  T
  11   -353.5793979 -0.156578E-05  0.191E-03    0.16       3.7  T
  12   -353.5793983 -0.311097E-06  0.151E-03    0.16       4.7  T
  13   -353.5793986 -0.367713E-06  0.757E-04    0.16       9.4  T
  14   -353.5793986  0.164608E-07  0.585E-04    0.16      12.1  T
     SCC iter.                  ...        0 min,  0.554 sec
     gradient                   ...        0 min,  0.124 sec
 * total energy  :  -348.2068613 Eh     change       -0.1307584E-01 Eh
   gradient norm :     0.0343407 Eh/α   predicted    -0.1217940E-01 (  -6.86%)
   displ. norm   :     0.7016042 α      lambda       -0.1289080E-01
   maximum displ.:     0.1727673 α      in ANC's #41, #32, #81, ...

........................................................................
.............................. CYCLE    5 ..............................
........................................................................
   1   -353.5956539 -0.353596E+03  0.255E-01    0.21       0.0  T
   2   -353.5856956  0.995823E-02  0.201E-01    0.11       1.0  T
   3   -353.5851051  0.590538E-03  0.191E-01    0.54       1.0  T
   4   -353.5932351 -0.812998E-02  0.119E-01    0.46       1.0  T
   5   -353.5937194 -0.484330E-03  0.846E-02    0.40       1.0  T
   6   -353.5949864 -0.126699E-02  0.638E-02    0.31       1.0  T
   7   -353.5962605 -0.127409E-02  0.338E-02    0.22       1.0  T
   8   -353.5966606 -0.400147E-03  0.953E-03    0.19       1.0  T
   9   -353.5966491  0.115708E-04  0.101E-02    0.19       1.0  T
  10   -353.5966536 -0.456774E-05  0.848E-03    0.17       1.0  T
  11   -353.5966903 -0.366707E-04  0.236E-03    0.18       3.0  T
  12   -353.5966908 -0.507839E-06  0.199E-03    0.18       3.6  T
  13   -353.5966914 -0.553030E-06  0.163E-03    0.18       4.3  T
  14   -353.5966919 -0.548433E-06  0.115E-03    0.18       6.2  T
  15   -353.5966923 -0.444946E-06  0.533E-04    0.18      13.3  T
  16   -353.5966924 -0.841655E-07  0.195E-04    0.18      36.4  T
     SCC iter.                  ...        0 min,  0.647 sec
     gradient                   ...        0 min,  0.126 sec
 * total energy  :  -348.2128578 Eh     change       -0.5996484E-02 Eh
   gradient norm :     0.0527151 Eh/α   predicted    -0.9618173E-02 (  60.40%)
   displ. norm   :     0.5737622 α      lambda       -0.1062453E-01
   maximum displ.:     0.1963938 α      in ANC's #51, #41, #50, ...

........................................................................
.............................. CYCLE    6 ..............................
........................................................................
   1   -353.6211791 -0.353621E+03  0.192E-01    0.23       0.0  T
   2   -353.6148728  0.630629E-02  0.152E-01    0.12       1.0  T
   3   -353.6143504  0.522363E-03  0.149E-01    0.55       1.0  T
   4   -353.6194777 -0.512731E-02  0.917E-02    0.41       1.0  T
   5   -353.6197975 -0.319776E-03  0.663E-02    0.36       1.0  T
   6   -353.6205559 -0.758427E-03  0.508E-02    0.30       1.0  T
   7   -353.6211679 -0.611961E-03  0.339E-02    0.25       1.0  T
   8   -353.6214357 -0.267847E-03  0.218E-02    0.23       1.0  T
   9   -353.6216474 -0.211684E-03  0.567E-03    0.20       1.3  T
  10   -353.6216577 -0.103221E-04  0.186E-03    0.19       3.8  T
  11   -353.6216572  0.472283E-06  0.160E-03    0.19       4.4  T
  12   -353.6216574 -0.107822E-06  0.137E-03    0.20       5.2  T
  13   -353.6216578 -0.410928E-06  0.101E-03    0.19       7.0  T
  14   -353.6216574  0.348352E-06  0.125E-03    0.20       5.7  T
  15   -353.6216581 -0.718128E-06  0.329E-04    0.20      21.5  T
  16   -353.6216581  0.607993E-07  0.414E-04    0.20      17.1  T
     SCC iter.                  ...        0 min,  0.638 sec
     gradient                   ...        0 min,  0.127 sec
 * total energy  :  -348.2192694 Eh     change       -0.6411531E-02 Eh
   gradient norm :     0.0390617 Eh/α   predicted    -0.7061086E-02 (  10.13%)
   displ. norm   :     0.5515514 α      lambda       -0.5367494E-02
   maximum displ.:     0.1780355 α      in ANC's #39, #41, #51, ...

........................................................................
.............................. CYCLE    7 ..............................
........................................................................
   1   -353.6173791 -0.353617E+03  0.126E-01    0.23       0.0  T
   2   -353.6155615  0.181762E-02  0.921E-02    0.15       1.0  T
   3   -353.6139956  0.156590E-02  0.102E-01    0.42       1.0  T
   4   -353.6168012 -0.280566E-02  0.551E-02    0.30       1.0  T
   5   -353.6171525 -0.351245E-03  0.334E-02    0.27       1.0  T
   6   -353.6175330 -0.380512E-03  0.174E-02    0.23       1.0  T
   7   -353.6176528 -0.119869E-03  0.488E-03    0.21       1.5  T
   8   -353.6176552 -0.232949E-05  0.268E-03    0.21       2.6  T
   9   -353.6176559 -0.754422E-06  0.183E-03    0.20       3.9  T
  10   -353.6176565 -0.622371E-06  0.144E-03    0.20       4.9  T
  11   -353.6176572 -0.688536E-06  0.707E-04    0.20      10.0  T
  12   -353.6176573 -0.302600E-07  0.525E-04    0.20      13.5  T
     SCC iter.                  ...        0 min,  0.453 sec
     gradient                   ...        0 min,  0.120 sec
 * total energy  :  -348.2235724 Eh     change       -0.4303043E-02 Eh
   gradient norm :     0.0202044 Eh/α   predicted    -0.3500235E-02 ( -18.66%)
   displ. norm   :     0.7407170 α      lambda       -0.5806862E-02
   maximum displ.:     0.2554378 α      in ANC's #41, #39, #51, ...

........................................................................
.............................. CYCLE    8 ..............................
........................................................................
   1   -353.6098297 -0.353610E+03  0.208E-01    0.23       0.0  T
   2   -353.6095585  0.271158E-03  0.120E-01    0.18       1.0  T
   3   -353.6060460  0.351250E-02  0.111E-01    0.41       1.0  T
   4   -353.6100330 -0.398696E-02  0.369E-02    0.24       1.0  T
   5   -353.6102355 -0.202496E-03  0.125E-02    0.22       1.0  T
   6   -353.6102638 -0.283373E-04  0.659E-03    0.20       1.1  T
   7   -353.6102557  0.806604E-05  0.738E-03    0.22       1.0  T
   8   -353.6102744 -0.186401E-04  0.287E-03    0.20       2.5  T
   9   -353.6102774 -0.304774E-05  0.139E-03    0.21       5.1  T
  10   -353.6102778 -0.369967E-06  0.869E-04    0.21       8.2  T
  11   -353.6102779 -0.767564E-07  0.604E-04    0.21      11.7  T
     SCC iter.                  ...        0 min,  0.409 sec
     gradient                   ...        0 min,  0.121 sec
 * total energy  :  -348.2274425 Eh     change       -0.3870097E-02 Eh
   gradient norm :     0.0360396 Eh/α   predicted    -0.4496434E-02 (  16.18%)
   displ. norm   :     0.6926105 α      lambda       -0.5800868E-02
   maximum displ.:     0.2447930 α      in ANC's #41, #39, #51, ...

........................................................................
.............................. CYCLE    9 ..............................
........................................................................
   1   -353.6132316 -0.353613E+03  0.197E-01    0.22       0.0  T
   2   -353.6132998 -0.682637E-04  0.111E-01    0.20       1.0  T
   3   -353.6114077  0.189214E-02  0.810E-02    0.28       1.0  T
   4   -353.6133016 -0.189393E-02  0.245E-02    0.19       1.0  T
   5   -353.6134227 -0.121130E-03  0.174E-02    0.24       1.0  T
   6   -353.6135608 -0.138094E-03  0.442E-03    0.21       1.6  T
   7   -353.6135625 -0.163368E-05  0.217E-03    0.21       3.3  T
   8   -353.6135626 -0.176624E-06  0.139E-03    0.21       5.1  T
   9   -353.6135630 -0.364106E-06  0.809E-04    0.21       8.8  T
  10   -353.6135630 -0.163751E-07  0.616E-04    0.21      11.5  T
     SCC iter.                  ...        0 min,  0.388 sec
     gradient                   ...        0 min,  0.122 sec
 * total energy  :  -348.2303632 Eh     change       -0.2920712E-02 Eh
   gradient norm :     0.0328294 Eh/α   predicted    -0.4291806E-02 (  46.94%)
   displ. norm   :     0.5145889 α      lambda       -0.3241086E-02
   maximum displ.:     0.1957633 α      in ANC's #39, #41, #51, ...

........................................................................
.............................. CYCLE   10 ..............................
........................................................................
   1   -353.6199238 -0.353620E+03  0.115E-01    0.22       0.0  T
   2   -353.6198553  0.685013E-04  0.675E-02    0.19       1.0  T
   3   -353.6185794  0.127590E-02  0.666E-02    0.28       1.0  T
   4   -353.6198759 -0.129654E-02  0.234E-02    0.19       1.0  T
   5   -353.6200232 -0.147300E-03  0.133E-02    0.23       1.0  T
   6   -353.6201052 -0.820339E-04  0.349E-03    0.21       2.0  T
   7   -353.6201073 -0.203423E-05  0.163E-03    0.21       4.3  T
   8   -353.6201073 -0.326124E-07  0.997E-04    0.21       7.1  T
   9   -353.6201075 -0.216928E-06  0.495E-04    0.21      14.3  T
     SCC iter.                  ...        0 min,  0.361 sec
     gradient                   ...        0 min,  0.118 sec
 * total energy  :  -348.2329285 Eh     change       -0.2565245E-02 Eh
   gradient norm :     0.0175522 Eh/α   predicted    -0.2049668E-02 ( -20.10%)
   displ. norm   :     0.6827196 α      lambda       -0.3484061E-02
   maximum displ.:     0.2698005 α      in ANC's #41, #39, #40, ...

........................................................................
.............................. CYCLE   11 ..............................
........................................................................
   1   -353.6115806 -0.353612E+03  0.197E-01    0.18       0.0  T
   2   -353.6111941  0.386489E-03  0.117E-01    0.25       1.0  T
   3   -353.2841940  0.327000E+00  0.751E-01    0.02       1.0  T
   4   -353.6105897 -0.326396E+00  0.739E-02    0.25       1.0  T
   5   -353.6113871 -0.797338E-03  0.382E-02    0.26       1.0  T
   6   -353.6114417 -0.546196E-04  0.352E-02    0.26       1.0  T
   7   -353.6115595 -0.117795E-03  0.312E-02    0.25       1.0  T
   8   -353.6116065 -0.470261E-04  0.289E-02    0.24       1.0  T
   9   -353.6116673 -0.607681E-04  0.261E-02    0.24       1.0  T
  10   -353.6117322 -0.649100E-04  0.229E-02    0.23       1.0  T
  11   -353.6118540 -0.121795E-03  0.156E-02    0.22       1.0  T
  12   -353.6119307 -0.767275E-04  0.902E-03    0.21       1.0  T
  13   -353.6119502 -0.195286E-04  0.638E-03    0.20       1.1  T
  14   -353.6119659 -0.156706E-04  0.305E-03    0.20       2.3  T
  15   -353.6119684 -0.251869E-05  0.192E-03    0.20       3.7  T
  16   -353.6119701 -0.164643E-05  0.698E-04    0.20      10.1  T
  17   -353.6119699  0.130549E-06  0.818E-04    0.20       8.7  T
  18   -353.6119703 -0.332931E-06  0.135E-04    0.20      52.5  T
     SCC iter.                  ...        0 min,  0.694 sec
     gradient                   ...        0 min,  0.119 sec
 * total energy  :  -348.2346727 Eh     change       -0.1744263E-02 Eh
   gradient norm :     0.0563457 Eh/α   predicted    -0.2554012E-02 (  46.42%)
   displ. norm   :     0.5102089 α      lambda       -0.4026193E-02
   maximum displ.:     0.1690511 α      in ANC's #39, #41, #40, ...

........................................................................
.............................. CYCLE   12 ..............................
........................................................................
   1   -353.6361037 -0.353636E+03  0.114E-01    0.22       0.0  T
   2   -353.6348929  0.121087E-02  0.799E-02    0.15       1.0  T
   3   -353.6334727  0.142013E-02  0.904E-02    0.39       1.0  T
   4   -353.6355820 -0.210928E-02  0.469E-02    0.29       1.0  T
   5   -353.6358837 -0.301692E-03  0.300E-02    0.25       1.0  T
   6   -353.6361816 -0.297891E-03  0.164E-02    0.22       1.0  T
   7   -353.6362795 -0.978661E-04  0.530E-03    0.20       1.3  T
   8   -353.6362870 -0.756588E-05  0.167E-03    0.19       4.3  T
   9   -353.6362872 -0.180003E-06  0.101E-03    0.19       7.0  T
  10   -353.6362873 -0.272300E-07  0.729E-04    0.19       9.7  T
  11   -353.6362874 -0.119190E-06  0.398E-04    0.19      17.8  T
     SCC iter.                  ...        0 min,  0.423 sec
     gradient                   ...        0 min,  0.119 sec
 * total energy  :  -348.2363515 Eh     change       -0.1678801E-02 Eh
   gradient norm :     0.0400447 Eh/α   predicted    -0.2537141E-02 (  51.13%)
   displ. norm   :     0.5092858 α      lambda       -0.2990445E-02
   maximum displ.:     0.2006293 α      in ANC's #39, #41, #10, ...

........................................................................
.............................. CYCLE   13 ..............................
........................................................................
   1   -353.6386212 -0.353639E+03  0.131E-01    0.22       0.0  T
   2   -353.6374955  0.112566E-02  0.875E-02    0.14       1.0  T
   3   -353.6359192  0.157637E-02  0.941E-02    0.41       1.0  T
   4   -353.6382272 -0.230806E-02  0.481E-02    0.29       1.0  T
   5   -353.6385154 -0.288205E-03  0.285E-02    0.25       1.0  T
   6   -353.6387820 -0.266609E-03  0.152E-02    0.21       1.0  T
   7   -353.6388529 -0.708386E-04  0.538E-03    0.20       1.3  T
   8   -353.6388590 -0.609160E-05  0.236E-03    0.19       3.0  T
   9   -353.6388595 -0.484670E-06  0.178E-03    0.19       4.0  T
  10   -353.6388602 -0.747871E-06  0.108E-03    0.19       6.6  T
  11   -353.6388605 -0.333520E-06  0.631E-04    0.19      11.2  T
  12   -353.6388606 -0.977335E-07  0.370E-04    0.19      19.2  T
     SCC iter.                  ...        0 min,  0.453 sec
     gradient                   ...        0 min,  0.120 sec
 * total energy  :  -348.2374664 Eh     change       -0.1114840E-02 Eh
   gradient norm :     0.0487997 Eh/α   predicted    -0.1883041E-02 (  68.91%)
   displ. norm   :     0.5003305 α      lambda       -0.3667589E-02
   maximum displ.:     0.2527174 α      in ANC's #41, #39, #40, ...

........................................................................
.............................. CYCLE   14 ..............................
........................................................................
   1   -353.5953919 -0.353595E+03  0.173E-01    0.15       0.0  T
   2   -353.5943113  0.108066E-02  0.120E-01    0.31       1.0  T
   3   -353.4660113  0.128300E+00  0.472E-01    0.02       1.0  T
   4   -353.5945455 -0.128534E+00  0.948E-02    0.35       1.0  T
   5   -353.5950168 -0.471388E-03  0.576E-02    0.35       1.0  T
   6   -353.5951832 -0.166323E-03  0.527E-02    0.33       1.0  T
   7   -353.5953677 -0.184516E-03  0.475E-02    0.30       1.0  T
   8   -353.5954839 -0.116179E-03  0.433E-02    0.29       1.0  T
   9   -353.5956613 -0.177452E-03  0.369E-02    0.26       1.0  T
  10   -353.5958134 -0.152069E-03  0.308E-02    0.24       1.0  T
  11   -353.5960080 -0.194610E-03  0.216E-02    0.22       1.0  T
  12   -353.5961731 -0.165110E-03  0.996E-03    0.20       1.0  T
  13   -353.5962151 -0.419541E-04  0.294E-03    0.19       2.4  T
  14   -353.5961974  0.177020E-04  0.666E-03    0.19       1.1  T
  15   -353.5962159 -0.185239E-04  0.240E-03    0.19       2.9  T
  16   -353.5962175 -0.165316E-05  0.136E-03    0.19       5.2  T
  17   -353.5962184 -0.842430E-06  0.274E-04    0.18      25.9  T
  18   -353.5962179  0.484771E-06  0.100E-03    0.19       7.1  T
  19   -353.5962184 -0.493604E-06  0.131E-04    0.18      54.2  T
     SCC iter.                  ...        0 min,  0.723 sec
     gradient                   ...        0 min,  0.119 sec
 * total energy  :  -348.2371650 Eh     change        0.3013330E-03 Eh
   gradient norm :     0.0847093 Eh/α   predicted    -0.2292854E-02 (-860.90%)
   displ. norm   :     0.2765750 α      lambda       -0.5681776E-02
   maximum displ.:     0.0707334 α      in ANC's #10, #63, #65, ...

........................................................................
.............................. CYCLE   15 ..............................
........................................................................
   1   -353.6187289 -0.353619E+03  0.117E-01    0.22       0.0  T
   2   -353.6178230  0.905906E-03  0.807E-02    0.15       1.0  T
   3   -353.6165430  0.128001E-02  0.840E-02    0.37       1.0  T
   4   -353.6185186 -0.197556E-02  0.390E-02    0.27       1.0  T
   5   -353.6187897 -0.271120E-03  0.220E-02    0.23       1.0  T
   6   -353.6189803 -0.190564E-03  0.971E-03    0.20       1.0  T
   7   -353.6190043 -0.239860E-04  0.409E-03    0.20       1.7  T
   8   -353.6190066 -0.233067E-05  0.198E-03    0.19       3.6  T
   9   -353.6190070 -0.452352E-06  0.144E-03    0.19       4.9  T
  10   -353.6190076 -0.556208E-06  0.673E-04    0.19      10.5  T
  11   -353.6190077 -0.111039E-06  0.378E-04    0.19      18.8  T
     SCC iter.                  ...        0 min,  0.423 sec
     gradient                   ...        0 min,  0.122 sec
 * total energy  :  -348.2395416 Eh     change       -0.2376611E-02 Eh
   gradient norm :     0.0316767 Eh/α   predicted    -0.3058200E-02 (  28.68%)
   displ. norm   :     0.4065624 α      lambda       -0.2537635E-02
   maximum displ.:     0.1174015 α      in ANC's #10, #39, #1, ...

........................................................................
.............................. CYCLE   16 ..............................
........................................................................
   1   -353.6438067 -0.353644E+03  0.862E-02    0.18       0.0  T
   2   -353.6437677  0.389510E-04  0.538E-02    0.22       1.0  T
   3   -353.6410141  0.275365E-02  0.800E-02    0.13       1.0  T
   4   -353.6430908 -0.207668E-02  0.433E-02    0.27       1.0  T
   5   -353.6438090 -0.718248E-03  0.176E-02    0.22       1.0  T
   6   -353.6438586 -0.496345E-04  0.127E-02    0.21       1.0  T
   7   -353.6439138 -0.551821E-04  0.699E-03    0.20       1.0  T
   8   -353.6439338 -0.199838E-04  0.215E-03    0.20       3.3  T
   9   -353.6439344 -0.578689E-06  0.120E-03    0.19       5.9  T
  10   -353.6439348 -0.420096E-06  0.579E-04    0.19      12.2  T
  11   -353.6439349 -0.707113E-07  0.361E-04    0.19      19.6  T
     SCC iter.                  ...        0 min,  0.423 sec
     gradient                   ...        0 min,  0.120 sec
 * total energy  :  -348.2407029 Eh     change       -0.1161236E-02 Eh
   gradient norm :     0.0255032 Eh/α   predicted    -0.1478551E-02 (  27.33%)
   displ. norm   :     0.5858859 α      lambda       -0.2029983E-02
   maximum displ.:     0.2217954 α      in ANC's #41, #39, #10, ...

........................................................................
.............................. CYCLE   17 ..............................
........................................................................
   1   -353.6304939 -0.353630E+03  0.109E-01    0.21       0.0  T
   2   -353.6304810  0.128299E-04  0.654E-02    0.23       1.0  T
   3   -353.6276685  0.281252E-02  0.756E-02    0.15       1.0  T
   4   -353.6302024 -0.253389E-02  0.314E-02    0.29       1.0  T
   5   -353.6305422 -0.339837E-03  0.128E-02    0.25       1.0  T
   6   -353.6305873 -0.450446E-04  0.709E-03    0.23       1.0  T
   7   -353.6306077 -0.203759E-04  0.221E-03    0.22       3.2  T
   8   -353.6306081 -0.441941E-06  0.121E-03    0.22       5.8  T
   9   -353.6306083 -0.167735E-06  0.684E-04    0.22      10.4  T
  10   -353.6306083 -0.360188E-07  0.453E-04    0.22      15.6  T
     SCC iter.                  ...        0 min,  0.400 sec
     gradient                   ...        0 min,  0.120 sec
 * total energy  :  -348.2422933 Eh     change       -0.1590438E-02 Eh
   gradient norm :     0.0222878 Eh/α   predicted    -0.1363408E-02 ( -14.27%)
   displ. norm   :     0.6408277 α      lambda       -0.2660166E-02
   maximum displ.:     0.2034176 α      in ANC's #10, #1, #41, ...

........................................................................
.............................. CYCLE   18 ..............................
........................................................................
   1   -353.6254193 -0.353625E+03  0.121E-01    0.22       0.0  T
   2   -353.6251812  0.238105E-03  0.782E-02    0.32       1.0  T
   3   -353.6215001  0.368105E-02  0.977E-02    0.15       1.0  T
   4   -353.6254051 -0.390492E-02  0.362E-02    0.35       1.0  T
   5   -353.6257752 -0.370195E-03  0.179E-02    0.31       1.0  T
   6   -353.6258350 -0.597841E-04  0.116E-02    0.29       1.0  T
   7   -353.6258846 -0.495609E-04  0.501E-03    0.25       1.4  T
   8   -353.6258886 -0.399390E-05  0.254E-03    0.25       2.8  T
   9   -353.6258896 -0.101090E-05  0.109E-03    0.25       6.5  T
  10   -353.6258897 -0.848269E-07  0.637E-04    0.25      11.1  T
  11   -353.6258897 -0.165675E-07  0.430E-04    0.25      16.5  T
     SCC iter.                  ...        0 min,  0.424 sec
     gradient                   ...        0 min,  0.121 sec
 * total energy  :  -348.2439244 Eh     change       -0.1631104E-02 Eh
   gradient norm :     0.0293331 Eh/α   predicted    -0.1876296E-02 (  15.03%)
   displ. norm   :     0.6540894 α      lambda       -0.1929759E-02
   maximum displ.:     0.2088504 α      in ANC's #10, #1, #39, ...

........................................................................
.............................. CYCLE   19 ..............................
........................................................................
   1   -353.6203369 -0.353620E+03  0.109E-01    0.25       0.0  T
   2   -353.6202554  0.815640E-04  0.688E-02    0.32       1.0  T
   3   -353.6186550  0.160037E-02  0.721E-02    0.20       1.0  T
   4   -353.6204911 -0.183610E-02  0.232E-02    0.34       1.0  T
   5   -353.6206628 -0.171661E-03  0.747E-03    0.29       1.0  T
   6   -353.6206747 -0.119229E-04  0.336E-03    0.28       2.1  T
   7   -353.6206749 -0.202941E-06  0.220E-03    0.27       3.2  T
   8   -353.6206755 -0.643230E-06  0.127E-03    0.27       5.6  T
   9   -353.6206757 -0.161630E-06  0.709E-04    0.27      10.0  T
  10   -353.6206757 -0.300089E-07  0.450E-04    0.27      15.7  T
     SCC iter.                  ...        0 min,  0.374 sec
     gradient                   ...        0 min,  0.120 sec
 * total energy  :  -348.2454570 Eh     change       -0.1532585E-02 Eh
   gradient norm :     0.0242616 Eh/α   predicted    -0.1377689E-02 ( -10.11%)
   displ. norm   :     0.6031327 α      lambda       -0.2550376E-02
   maximum displ.:     0.2071084 α      in ANC's #1, #10, #16, ...

........................................................................
.............................. CYCLE   20 ..............................
........................................................................
   1   -353.6491067 -0.353649E+03  0.948E-02    0.29       0.0  T
   2   -353.6491136 -0.689693E-05  0.568E-02    0.33       1.0  T
   3   -353.6486344  0.479186E-03  0.510E-02    0.26       1.0  T
   4   -353.6492805 -0.646131E-03  0.162E-02    0.32       1.0  T
   5   -353.6493411 -0.606204E-04  0.467E-03    0.30       1.5  T
   6   -353.6493435 -0.240078E-05  0.231E-03    0.30       3.1  T
   7   -353.6493441 -0.569406E-06  0.126E-03    0.30       5.6  T
   8   -353.6493443 -0.183069E-06  0.789E-04    0.30       9.0  T
   9   -353.6493443 -0.351778E-07  0.559E-04    0.30      12.7  T
     SCC iter.                  ...        0 min,  0.346 sec
     gradient                   ...        0 min,  0.122 sec
 * total energy  :  -348.2467814 Eh     change       -0.1324373E-02 Eh
   gradient norm :     0.0454999 Eh/α   predicted    -0.1739068E-02 (  31.31%)
   displ. norm   :     0.6067412 α      lambda       -0.1885866E-02
   maximum displ.:     0.2090867 α      in ANC's #1, #10, #16, ...
 * RMSD in coord.:     0.5994986 α      energy gain  -0.1934182E+00 Eh

generating ANC from model Hessian ...
Using Lindh-Hessian (1995)
 Shifting diagonal of input Hessian by   1.005830948553444E-002
 Lowest  eigenvalues of input Hessian
    0.010000    0.010034    0.010054    0.000000    0.000000    0.000000
    0.000000    0.000000    0.000000    0.010070    0.010090    0.010110
    0.010137    0.010172    0.010183    0.010196    0.010205    0.010250
 Highest eigenvalues
    2.286856    2.289706    2.608603    2.609300    2.645368    2.645519
 

........................................................................
.............................. CYCLE   21 ..............................
........................................................................
   1   -353.6387447 -0.353639E+03  0.101E-01    0.28       0.0  T
   2   -353.6387084  0.362960E-04  0.612E-02    0.35       1.0  T
   3   -353.6378438  0.864602E-03  0.606E-02    0.26       1.0  T
   4   -353.6389486 -0.110478E-02  0.151E-02    0.33       1.0  T
   5   -353.6389966 -0.480201E-04  0.442E-03    0.32       1.6  T
   6   -353.6389979 -0.125578E-05  0.233E-03    0.31       3.0  T
   7   -353.6389987 -0.822389E-06  0.114E-03    0.31       6.2  T
   8   -353.6389988 -0.881258E-07  0.732E-04    0.32       9.7  T
   9   -353.6389989 -0.537514E-07  0.464E-04    0.32      15.3  T
     SCC iter.                  ...        0 min,  0.346 sec
     gradient                   ...        0 min,  0.120 sec
 * total energy  :  -348.2481432 Eh     change       -0.1361841E-02 Eh
   gradient norm :     0.0245333 Eh/α   predicted     0.0000000E+00 (-100.00%)
   displ. norm   :     0.1960002 α      lambda       -0.9397789E-03
   maximum displ.:     0.0700173 α      in ANC's #30, #20, #1, ...

........................................................................
.............................. CYCLE   22 ..............................
........................................................................
   1   -353.6405708 -0.353641E+03  0.554E-02    0.32       0.0  T
   2   -353.6405803 -0.956101E-05  0.312E-02    0.32       1.0  T
   3   -353.6405485  0.318348E-04  0.130E-02    0.32       1.0  T
   4   -353.6405866 -0.380682E-04  0.228E-03    0.32       3.1  T
   5   -353.6405869 -0.313807E-06  0.141E-03    0.32       5.0  T
   6   -353.6405871 -0.237239E-06  0.687E-04    0.32      10.3  T
   7   -353.6405872 -0.608791E-07  0.359E-04    0.32      19.7  T
     SCC iter.                  ...        0 min,  0.270 sec
     gradient                   ...        0 min,  0.120 sec
 * total energy  :  -348.2488016 Eh     change       -0.6583643E-03 Eh
   gradient norm :     0.0084468 Eh/α   predicted    -0.4881151E-03 ( -25.86%)
   displ. norm   :     0.3894101 α      lambda       -0.9756436E-03
   maximum displ.:     0.1453603 α      in ANC's #20, #30, #1, ...

........................................................................
.............................. CYCLE   23 ..............................
........................................................................
   1   -353.6439910 -0.353644E+03  0.628E-02    0.33       0.0  T
   2   -353.6439998 -0.878133E-05  0.362E-02    0.33       1.0  T
   3   -353.6439198  0.799747E-04  0.191E-02    0.32       1.0  T
   4   -353.6440076 -0.877869E-04  0.399E-03    0.33       1.8  T
   5   -353.6440105 -0.290223E-05  0.192E-03    0.33       3.7  T
   6   -353.6440108 -0.306913E-06  0.106E-03    0.33       6.7  T
   7   -353.6440110 -0.180140E-06  0.552E-04    0.33      12.8  T
   8   -353.6440110 -0.250029E-07  0.377E-04    0.33      18.8  T
     SCC iter.                  ...        0 min,  0.305 sec
     gradient                   ...        0 min,  0.119 sec
 * total energy  :  -348.2494946 Eh     change       -0.6930608E-03 Eh
   gradient norm :     0.0200633 Eh/α   predicted    -0.5617965E-03 ( -18.94%)
   displ. norm   :     0.5960496 α      lambda       -0.1259251E-02
   maximum displ.:     0.2245658 α      in ANC's #20, #30, #1, ...

........................................................................
.............................. CYCLE   24 ..............................
........................................................................
   1   -353.6438054 -0.353644E+03  0.985E-02    0.34       0.0  T
   2   -353.6438312 -0.258267E-04  0.561E-02    0.34       1.0  T
   3   -353.6436742  0.157062E-03  0.263E-02    0.33       1.0  T
   4   -353.6438507 -0.176510E-03  0.566E-03    0.34       1.3  T
   5   -353.6438562 -0.553384E-05  0.273E-03    0.34       2.6  T
   6   -353.6438567 -0.462893E-06  0.152E-03    0.34       4.7  T
   7   -353.6438570 -0.315421E-06  0.859E-04    0.34       8.3  T
   8   -353.6438571 -0.628374E-07  0.589E-04    0.34      12.0  T
     SCC iter.                  ...        0 min,  0.308 sec
     gradient                   ...        0 min,  0.121 sec
 * total energy  :  -348.2504354 Eh     change       -0.9407220E-03 Eh
   gradient norm :     0.0240658 Eh/α   predicted    -0.8534145E-03 (  -9.28%)
   displ. norm   :     0.6664855 α      lambda       -0.1514146E-02
   maximum displ.:     0.2587770 α      in ANC's #20, #1, #30, ...

........................................................................
.............................. CYCLE   25 ..............................
........................................................................
   1   -353.6422612 -0.353642E+03  0.936E-02    0.35       0.0  T
   2   -353.6422838 -0.225722E-04  0.536E-02    0.36       1.0  T
   3   -353.6421340  0.149814E-03  0.257E-02    0.34       1.0  T
   4   -353.6422993 -0.165305E-03  0.622E-03    0.36       1.1  T
   5   -353.6423068 -0.746543E-05  0.272E-03    0.36       2.6  T
   6   -353.6423073 -0.520848E-06  0.144E-03    0.36       4.9  T
   7   -353.6423075 -0.201546E-06  0.894E-04    0.36       7.9  T
   8   -353.6423076 -0.520381E-07  0.621E-04    0.36      11.4  T
     SCC iter.                  ...        0 min,  0.310 sec
     gradient                   ...        0 min,  0.122 sec
 * total energy  :  -348.2515485 Eh     change       -0.1113134E-02 Eh
   gradient norm :     0.0184684 Eh/α   predicted    -0.1093371E-02 (  -1.78%)
   displ. norm   :     0.6638532 α      lambda       -0.1886474E-02
   maximum displ.:     0.2632312 α      in ANC's #20, #1, #10, ...

........................................................................
.............................. CYCLE   26 ..............................
........................................................................
   1   -353.6442019 -0.353644E+03  0.998E-02    0.37       0.0  T
   2   -353.6442296 -0.277611E-04  0.567E-02    0.38       1.0  T
   3   -353.6440529  0.176724E-03  0.295E-02    0.36       1.0  T
   4   -353.6442537 -0.200818E-03  0.639E-03    0.38       1.1  T
   5   -353.6442624 -0.869883E-05  0.281E-03    0.37       2.5  T
   6   -353.6442628 -0.431741E-06  0.152E-03    0.38       4.7  T
   7   -353.6442631 -0.291722E-06  0.880E-04    0.37       8.1  T
   8   -353.6442632 -0.404156E-07  0.662E-04    0.38      10.7  T
     SCC iter.                  ...        0 min,  0.318 sec
     gradient                   ...        0 min,  0.120 sec
 * total energy  :  -348.2527806 Eh     change       -0.1232120E-02 Eh
   gradient norm :     0.0219376 Eh/α   predicted    -0.1358924E-02 (  10.29%)
   displ. norm   :     0.6960900 α      lambda       -0.1469652E-02
   maximum displ.:     0.2729087 α      in ANC's #20, #1, #10, ...

........................................................................
.............................. CYCLE   27 ..............................
........................................................................
   1   -353.6328394 -0.353633E+03  0.115E-01    0.37       0.0  T
   2   -353.6328738 -0.344686E-04  0.650E-02    0.38       1.0  T
   3   -353.6327748  0.990049E-04  0.224E-02    0.38       1.0  T
   4   -353.6328895 -0.114664E-03  0.551E-03    0.39       1.3  T
   5   -353.6328937 -0.419178E-05  0.327E-03    0.38       2.2  T
   6   -353.6328947 -0.105067E-05  0.154E-03    0.38       4.6  T
   7   -353.6328950 -0.206242E-06  0.954E-04    0.38       7.4  T
   8   -353.6328950 -0.586597E-07  0.658E-04    0.38      10.8  T
     SCC iter.                  ...        0 min,  0.312 sec
     gradient                   ...        0 min,  0.119 sec
 * total energy  :  -348.2538643 Eh     change       -0.1083654E-02 Eh
   gradient norm :     0.0194249 Eh/α   predicted    -0.1090885E-02 (   0.67%)
   displ. norm   :     0.6565259 α      lambda       -0.1764670E-02
   maximum displ.:     0.2552906 α      in ANC's #20, #1, #10, ...

........................................................................
.............................. CYCLE   28 ..............................
........................................................................
   1   -353.6385906 -0.353639E+03  0.809E-02    0.39       0.0  T
   2   -353.6386019 -0.113296E-04  0.464E-02    0.40       1.0  T
   3   -353.6383858  0.216068E-03  0.294E-02    0.38       1.0  T
   4   -353.6386198 -0.233960E-03  0.603E-03    0.40       1.2  T
   5   -353.6386263 -0.648191E-05  0.273E-03    0.40       2.6  T
   6   -353.6386268 -0.489996E-06  0.144E-03    0.40       4.9  T
   7   -353.6386269 -0.123913E-06  0.933E-04    0.40       7.6  T
   8   -353.6386269 -0.337444E-07  0.634E-04    0.40      11.2  T
     SCC iter.                  ...        0 min,  0.308 sec
     gradient                   ...        0 min,  0.119 sec
 * total energy  :  -348.2550897 Eh     change       -0.1225471E-02 Eh
   gradient norm :     0.0183273 Eh/α   predicted    -0.1262647E-02 (   3.03%)
   displ. norm   :     0.7399736 α      lambda       -0.1415544E-02
   maximum displ.:     0.2912036 α      in ANC's #20, #1, #10, ...

........................................................................
.............................. CYCLE   29 ..............................
........................................................................
   1   -353.6419537 -0.353642E+03  0.815E-02    0.41       0.0  T
   2   -353.6419701 -0.163737E-04  0.464E-02    0.41       1.0  T
   3   -353.6418945  0.755519E-04  0.185E-02    0.41       1.0  T
   4   -353.6419752 -0.806588E-04  0.548E-03    0.42       1.3  T
   5   -353.6419806 -0.547269E-05  0.303E-03    0.41       2.3  T
   6   -353.6419817 -0.104890E-05  0.143E-03    0.41       4.9  T
   7   -353.6419818 -0.867887E-07  0.959E-04    0.41       7.4  T
   8   -353.6419818 -0.273464E-07  0.671E-04    0.41      10.6  T
     SCC iter.                  ...        0 min,  0.304 sec
     gradient                   ...        0 min,  0.122 sec
 * total energy  :  -348.2563370 Eh     change       -0.1247218E-02 Eh
   gradient norm :     0.0103799 Eh/α   predicted    -0.1095323E-02 ( -12.18%)
   displ. norm   :     0.7599276 α      lambda       -0.1573425E-02
   maximum displ.:     0.3149679 α      in ANC's #1, #20, #10, ...

........................................................................
.............................. CYCLE   30 ..............................
........................................................................
   1   -353.6594432 -0.353659E+03  0.836E-02    0.42       0.0  T
   2   -353.6594573 -0.140515E-04  0.473E-02    0.42       1.0  T
   3   -353.6594180  0.392593E-04  0.162E-02    0.42       1.0  T
   4   -353.6594639 -0.458441E-04  0.482E-03    0.42       1.5  T
   5   -353.6594647 -0.822960E-06  0.340E-03    0.42       2.1  T
   6   -353.6594661 -0.137889E-05  0.180E-03    0.42       3.9  T
   7   -353.6594663 -0.184482E-06  0.129E-03    0.42       5.5  T
   8   -353.6594663 -0.525956E-07  0.856E-04    0.42       8.3  T
   9   -353.6594663 -0.232884E-07  0.474E-04    0.42      15.0  T
     SCC iter.                  ...        0 min,  0.342 sec
     gradient                   ...        0 min,  0.121 sec
 * total energy  :  -348.2574847 Eh     change       -0.1147713E-02 Eh
   gradient norm :     0.0133658 Eh/α   predicted    -0.1241052E-02 (   8.13%)
   displ. norm   :     0.8444703 α      lambda       -0.1444240E-02
   maximum displ.:     0.3342930 α      in ANC's #1, #20, #10, ...

........................................................................
.............................. CYCLE   31 ..............................
........................................................................
   1   -353.6469494 -0.353647E+03  0.932E-02    0.43       0.0  T
   2   -353.6469625 -0.130790E-04  0.537E-02    0.43       1.0  T
   3   -353.6468563  0.106182E-03  0.219E-02    0.43       1.0  T
   4   -353.6469718 -0.115434E-03  0.520E-03    0.44       1.4  T
   5   -353.6469755 -0.376687E-05  0.290E-03    0.43       2.4  T
   6   -353.6469762 -0.675383E-06  0.153E-03    0.43       4.6  T
   7   -353.6469764 -0.181912E-06  0.104E-03    0.43       6.8  T
   8   -353.6469764 -0.341033E-07  0.717E-04    0.43       9.9  T
   9   -353.6469765 -0.295249E-07  0.369E-04    0.43      19.2  T
     SCC iter.                  ...        0 min,  0.340 sec
     gradient                   ...        0 min,  0.122 sec
 * total energy  :  -348.2587019 Eh     change       -0.1217260E-02 Eh
   gradient norm :     0.0111194 Eh/α   predicted    -0.1237086E-02 (   1.63%)
   displ. norm   :     0.8001304 α      lambda       -0.1208418E-02
   maximum displ.:     0.3420036 α      in ANC's #1, #10, #20, ...

........................................................................
.............................. CYCLE   32 ..............................
........................................................................
   1   -353.6460320 -0.353646E+03  0.818E-02    0.44       0.0  T
   2   -353.6460422 -0.101980E-04  0.465E-02    0.44       1.0  T
   3   -353.6460158  0.263256E-04  0.123E-02    0.44       1.0  T
   4   -353.6460469 -0.310795E-04  0.401E-03    0.44       1.8  T
   5   -353.6460476 -0.714388E-06  0.267E-03    0.44       2.7  T
   6   -353.6460484 -0.804385E-06  0.130E-03    0.44       5.4  T
   7   -353.6460485 -0.405480E-07  0.990E-04    0.44       7.2  T
   8   -353.6460485 -0.138002E-07  0.636E-04    0.44      11.1  T
     SCC iter.                  ...        0 min,  0.304 sec
     gradient                   ...        0 min,  0.122 sec
 * total energy  :  -348.2597757 Eh     change       -0.1073804E-02 Eh
   gradient norm :     0.0090470 Eh/α   predicted    -0.9910342E-03 (  -7.71%)
   displ. norm   :     0.8293610 α      lambda       -0.1239391E-02
   maximum displ.:     0.3620615 α      in ANC's #1, #10, #20, ...

........................................................................
.............................. CYCLE   33 ..............................
........................................................................
   1   -353.6471105 -0.353647E+03  0.738E-02    0.45       0.0  T
   2   -353.6471159 -0.536724E-05  0.426E-02    0.45       1.0  T
   3   -353.6470424  0.734266E-04  0.173E-02    0.44       1.0  T
   4   -353.6471216 -0.791889E-04  0.411E-03    0.45       1.7  T
   5   -353.6471228 -0.113776E-05  0.266E-03    0.44       2.7  T
   6   -353.6471235 -0.727113E-06  0.148E-03    0.44       4.8  T
   7   -353.6471236 -0.124839E-06  0.106E-03    0.44       6.7  T
   8   -353.6471237 -0.398981E-07  0.668E-04    0.44      10.6  T
   9   -353.6471237 -0.191756E-07  0.320E-04    0.44      22.1  T
     SCC iter.                  ...        0 min,  0.348 sec
     gradient                   ...        0 min,  0.121 sec
 * total energy  :  -348.2608647 Eh     change       -0.1088982E-02 Eh
   gradient norm :     0.0104593 Eh/α   predicted    -0.1045953E-02 (  -3.95%)
   displ. norm   :     0.7941158 α      lambda       -0.1335319E-02
   maximum displ.:     0.3698947 α      in ANC's #1, #10, #11, ...

........................................................................
.............................. CYCLE   34 ..............................
........................................................................
   1   -353.6615176 -0.353662E+03  0.797E-02    0.45       0.0  T
   2   -353.6615327 -0.150583E-04  0.460E-02    0.44       1.0  T
   3   -353.6613742  0.158411E-03  0.247E-02    0.45       1.0  T
   4   -353.6615479 -0.173628E-03  0.566E-03    0.44       1.3  T
   5   -353.6615516 -0.374156E-05  0.339E-03    0.44       2.1  T
   6   -353.6615525 -0.840827E-06  0.204E-03    0.44       3.5  T
   7   -353.6615527 -0.248962E-06  0.142E-03    0.44       5.0  T
   8   -353.6615528 -0.103825E-06  0.102E-03    0.44       7.0  T
   9   -353.6615529 -0.403284E-07  0.573E-04    0.44      12.4  T
  10   -353.6615529 -0.349732E-07  0.286E-04    0.44      24.8  T
     SCC iter.                  ...        0 min,  0.382 sec
     gradient                   ...        0 min,  0.126 sec
 * total energy  :  -348.2618459 Eh     change       -0.9811427E-03 Eh
   gradient norm :     0.0115368 Eh/α   predicted    -0.1088701E-02 (  10.96%)
   displ. norm   :     0.8432540 α      lambda       -0.1210398E-02
   maximum displ.:     0.3706495 α      in ANC's #1, #10, #20, ...

........................................................................
.............................. CYCLE   35 ..............................
........................................................................
   1   -353.6525494 -0.353653E+03  0.756E-02    0.45       0.0  T
   2   -353.6525572 -0.777215E-05  0.437E-02    0.45       1.0  T
   3   -353.6524788  0.783278E-04  0.176E-02    0.45       1.0  T
   4   -353.6525638 -0.849878E-04  0.448E-03    0.45       1.6  T
   5   -353.6525662 -0.238167E-05  0.273E-03    0.45       2.6  T
   6   -353.6525667 -0.539306E-06  0.154E-03    0.45       4.6  T
   7   -353.6525669 -0.166924E-06  0.108E-03    0.45       6.5  T
   8   -353.6525669 -0.257625E-07  0.742E-04    0.45       9.6  T
   9   -353.6525670 -0.352283E-07  0.362E-04    0.45      19.6  T
     SCC iter.                  ...        0 min,  0.350 sec
     gradient                   ...        0 min,  0.120 sec
 * total energy  :  -348.2628762 Eh     change       -0.1030351E-02 Eh
   gradient norm :     0.0105257 Eh/α   predicted    -0.1035548E-02 (   0.50%)
   displ. norm   :     0.8112698 α      lambda       -0.1105583E-02
   maximum displ.:     0.3788814 α      in ANC's #1, #10, #11, ...

........................................................................
.............................. CYCLE   36 ..............................
........................................................................
   1   -353.6514438 -0.353651E+03  0.703E-02    0.46       0.0  T
   2   -353.6514608 -0.170480E-04  0.410E-02    0.46       1.0  T
   3   -353.6512906  0.170228E-03  0.262E-02    0.46       1.0  T
   4   -353.6514782 -0.187569E-03  0.595E-03    0.47       1.2  T
   5   -353.6514844 -0.623578E-05  0.305E-03    0.46       2.3  T
   6   -353.6514851 -0.733708E-06  0.198E-03    0.46       3.6  T
   7   -353.6514855 -0.327036E-06  0.122E-03    0.46       5.8  T
   8   -353.6514855 -0.555762E-07  0.873E-04    0.46       8.1  T
   9   -353.6514855 -0.139268E-07  0.520E-04    0.46      13.6  T
     SCC iter.                  ...        0 min,  0.333 sec
     gradient                   ...        0 min,  0.118 sec
 * total energy  :  -348.2637646 Eh     change       -0.8883741E-03 Eh
   gradient norm :     0.0169737 Eh/α   predicted    -0.9166187E-03 (   3.18%)
   displ. norm   :     0.8069260 α      lambda       -0.1064858E-02
   maximum displ.:     0.3822379 α      in ANC's #1, #10, #11, ...

........................................................................
.............................. CYCLE   37 ..............................
........................................................................
   1   -353.6507182 -0.353651E+03  0.700E-02    0.47       0.0  T
   2   -353.6507299 -0.117133E-04  0.403E-02    0.47       1.0  T
   3   -353.6506376  0.923317E-04  0.190E-02    0.47       1.0  T
   4   -353.6507381 -0.100470E-03  0.480E-03    0.47       1.5  T
   5   -353.6507415 -0.348858E-05  0.251E-03    0.47       2.8  T
   6   -353.6507418 -0.298497E-06  0.151E-03    0.47       4.7  T
   7   -353.6507420 -0.168449E-06  0.100E-03    0.47       7.1  T
   8   -353.6507421 -0.415523E-07  0.710E-04    0.47      10.0  T
     SCC iter.                  ...        0 min,  0.295 sec
     gradient                   ...        0 min,  0.118 sec
 * total energy  :  -348.2646920 Eh     change       -0.9274429E-03 Eh
   gradient norm :     0.0094107 Eh/α   predicted    -0.8791143E-03 (  -5.21%)
   displ. norm   :     0.7847078 α      lambda       -0.1117923E-02
   maximum displ.:     0.3880304 α      in ANC's #1, #10, #11, ...

........................................................................
.............................. CYCLE   38 ..............................
........................................................................
   1   -353.6624740 -0.353662E+03  0.678E-02    0.48       0.0  T
   2   -353.6624837 -0.965203E-05  0.387E-02    0.48       1.0  T
   3   -353.6623890  0.947021E-04  0.192E-02    0.47       1.0  T
   4   -353.6624934 -0.104384E-03  0.452E-03    0.48       1.6  T
   5   -353.6624963 -0.293660E-05  0.258E-03    0.48       2.7  T
   6   -353.6624967 -0.453034E-06  0.150E-03    0.48       4.7  T
   7   -353.6624969 -0.185336E-06  0.973E-04    0.48       7.3  T
   8   -353.6624970 -0.252902E-07  0.719E-04    0.48       9.9  T
     SCC iter.                  ...        0 min,  0.313 sec
     gradient                   ...        0 min,  0.118 sec
 * total energy  :  -348.2655870 Eh     change       -0.8949453E-03 Eh
   gradient norm :     0.0114178 Eh/α   predicted    -0.9031577E-03 (   0.92%)
   displ. norm   :     0.8188497 α      lambda       -0.1109734E-02
   maximum displ.:     0.4032627 α      in ANC's #1, #10, #11, ...

........................................................................
.............................. CYCLE   39 ..............................
........................................................................
   1   -353.6620474 -0.353662E+03  0.756E-02    0.48       0.0  T
   2   -353.6620585 -0.111511E-04  0.427E-02    0.48       1.0  T
   3   -353.6620096  0.489733E-04  0.144E-02    0.48       1.0  T
   4   -353.6620641 -0.544896E-04  0.464E-03    0.48       1.5  T
   5   -353.6620663 -0.219529E-05  0.280E-03    0.48       2.5  T
   6   -353.6620669 -0.690306E-06  0.159E-03    0.48       4.5  T
   7   -353.6620671 -0.154095E-06  0.114E-03    0.48       6.2  T
   8   -353.6620671 -0.192784E-07  0.770E-04    0.48       9.2  T
   9   -353.6620672 -0.369445E-07  0.377E-04    0.48      18.8  T
     SCC iter.                  ...        0 min,  0.347 sec
     gradient                   ...        0 min,  0.118 sec
 * total energy  :  -348.2664431 Eh     change       -0.8561307E-03 Eh
   gradient norm :     0.0124803 Eh/α   predicted    -0.9269186E-03 (   8.27%)
   displ. norm   :     0.8132011 α      lambda       -0.1034371E-02
   maximum displ.:     0.4001696 α      in ANC's #1, #10, #11, ...

........................................................................
.............................. CYCLE   40 ..............................
........................................................................
   1   -353.6564550 -0.353656E+03  0.639E-02    0.49       0.0  T
   2   -353.6564604 -0.537698E-05  0.370E-02    0.49       1.0  T
   3   -353.6563626  0.977763E-04  0.201E-02    0.49       1.0  T
   4   -353.6564692 -0.106571E-03  0.428E-03    0.49       1.7  T
   5   -353.6564711 -0.195822E-05  0.265E-03    0.49       2.7  T
   6   -353.6564719 -0.780106E-06  0.146E-03    0.49       4.9  T
   7   -353.6564721 -0.160927E-06  0.964E-04    0.49       7.4  T
   8   -353.6564721 -0.230435E-07  0.676E-04    0.49      10.5  T
     SCC iter.                  ...        0 min,  0.302 sec
     gradient                   ...        0 min,  0.118 sec
 * total energy  :  -348.2673483 Eh     change       -0.9051623E-03 Eh
   gradient norm :     0.0103637 Eh/α   predicted    -0.8592031E-03 (  -5.08%)
   displ. norm   :     0.8141125 α      lambda       -0.1027952E-02
   maximum displ.:     0.4159283 α      in ANC's #1, #10, #11, ...

........................................................................
.............................. CYCLE   41 ..............................
........................................................................
   1   -353.6603757 -0.353660E+03  0.704E-02    0.50       0.0  T
   2   -353.6603838 -0.809042E-05  0.400E-02    0.50       1.0  T
   3   -353.6603256  0.582119E-04  0.154E-02    0.50       1.0  T
   4   -353.6603892 -0.635730E-04  0.417E-03    0.50       1.7  T
   5   -353.6603911 -0.189496E-05  0.245E-03    0.50       2.9  T
   6   -353.6603916 -0.567037E-06  0.126E-03    0.50       5.6  T
   7   -353.6603918 -0.118471E-06  0.866E-04    0.50       8.2  T
   8   -353.6603918 -0.140105E-07  0.621E-04    0.50      11.4  T
     SCC iter.                  ...        0 min,  0.305 sec
     gradient                   ...        0 min,  0.122 sec
 * total energy  :  -348.2682247 Eh     change       -0.8763897E-03 Eh
   gradient norm :     0.0112812 Eh/α   predicted    -0.8546365E-03 (  -2.48%)
   displ. norm   :     0.8416394 α      lambda       -0.9853701E-03
   maximum displ.:     0.4372946 α      in ANC's #1, #10, #11, ...

........................................................................
.............................. CYCLE   42 ..............................
........................................................................
   1   -353.6617681 -0.353662E+03  0.639E-02    0.50       0.0  T
   2   -353.6617740 -0.597129E-05  0.366E-02    0.51       1.0  T
   3   -353.6617154  0.586372E-04  0.168E-02    0.50       1.0  T
   4   -353.6617797 -0.642856E-04  0.405E-03    0.51       1.8  T
   5   -353.6617810 -0.128223E-05  0.274E-03    0.50       2.6  T
   6   -353.6617819 -0.939013E-06  0.135E-03    0.51       5.2  T
   7   -353.6617820 -0.945597E-07  0.976E-04    0.51       7.3  T
   8   -353.6617820 -0.268070E-07  0.675E-04    0.51      10.5  T
     SCC iter.                  ...        0 min,  0.309 sec
     gradient                   ...        0 min,  0.121 sec
 * total energy  :  -348.2691118 Eh     change       -0.8870980E-03 Eh
   gradient norm :     0.0093953 Eh/α   predicted    -0.8416885E-03 (  -5.12%)
   displ. norm   :     0.8620227 α      lambda       -0.9700286E-03
   maximum displ.:     0.4501193 α      in ANC's #1, #10, #11, ...
 * RMSD in coord.:     1.0666182 α      energy gain  -0.2233038E-01 Eh

generating ANC from model Hessian ...
Using Lindh-Hessian (1995)
 Shifting diagonal of input Hessian by   1.005927886010943E-002
 Lowest  eigenvalues of input Hessian
    0.010000    0.010038    0.010053    0.000000    0.000000    0.000000
    0.000000    0.000000    0.000000    0.010068    0.010092    0.010110
    0.010139    0.010167    0.010186    0.010211    0.010212    0.010248
 Highest eigenvalues
    2.287262    2.289197    2.598629    2.605067    2.645013    2.649095
 

........................................................................
.............................. CYCLE   43 ..............................
........................................................................
   1   -353.6585650 -0.353659E+03  0.707E-02    0.50       0.0  T
   2   -353.6585745 -0.946277E-05  0.400E-02    0.50       1.0  T
   3   -353.6585499  0.246038E-04  0.119E-02    0.51       1.0  T
   4   -353.6585788 -0.289115E-04  0.391E-03    0.50       1.8  T
   5   -353.6585793 -0.567424E-06  0.258E-03    0.50       2.7  T
   6   -353.6585801 -0.758753E-06  0.145E-03    0.50       4.9  T
   7   -353.6585802 -0.111466E-06  0.107E-03    0.50       6.6  T
   8   -353.6585803 -0.379293E-07  0.727E-04    0.50       9.8  T
   9   -353.6585803 -0.271017E-07  0.370E-04    0.50      19.2  T
     SCC iter.                  ...        0 min,  0.333 sec
     gradient                   ...        0 min,  0.118 sec
 * total energy  :  -348.2699831 Eh     change       -0.8713006E-03 Eh
   gradient norm :     0.0077175 Eh/α   predicted     0.0000000E+00 (-100.00%)
   displ. norm   :     0.1161980 α      lambda       -0.2084511E-03
   maximum displ.:     0.0675062 α      in ANC's #1, #11, #7, ...

........................................................................
.............................. CYCLE   44 ..............................
........................................................................
   1   -353.6628718 -0.353663E+03  0.227E-02    0.51       0.0  T
   2   -353.6628734 -0.153956E-05  0.127E-02    0.51       1.0  T
   3   -353.6628696  0.375215E-05  0.441E-03    0.50       1.6  T
   4   -353.6628742 -0.452297E-05  0.106E-03    0.51       6.7  T
   5   -353.6628743 -0.115765E-06  0.638E-04    0.51      11.1  T
   6   -353.6628743 -0.273591E-07  0.356E-04    0.51      19.9  T
     SCC iter.                  ...        0 min,  0.225 sec
     gradient                   ...        0 min,  0.119 sec
 * total energy  :  -348.2701567 Eh     change       -0.1735986E-03 Eh
   gradient norm :     0.0031289 Eh/α   predicted    -0.1056346E-03 ( -39.15%)
   displ. norm   :     0.3747213 α      lambda       -0.5020161E-03
   maximum displ.:     0.2030498 α      in ANC's #1, #11, #7, ...

........................................................................
.............................. CYCLE   45 ..............................
........................................................................
   1   -353.6700681 -0.353670E+03  0.342E-02    0.51       0.0  T
   2   -353.6700697 -0.153964E-05  0.199E-02    0.51       1.0  T
   3   -353.6700272  0.424378E-04  0.133E-02    0.50       1.0  T
   4   -353.6700737 -0.464219E-04  0.306E-03    0.51       2.3  T
   5   -353.6700751 -0.142177E-05  0.158E-03    0.51       4.5  T
   6   -353.6700752 -0.145833E-06  0.893E-04    0.51       7.9  T
   7   -353.6700753 -0.389665E-07  0.657E-04    0.51      10.8  T
     SCC iter.                  ...        0 min,  0.261 sec
     gradient                   ...        0 min,  0.118 sec
 * total energy  :  -348.2705099 Eh     change       -0.3532506E-03 Eh
   gradient norm :     0.0108972 Eh/α   predicted    -0.2862543E-03 ( -18.97%)
   displ. norm   :     0.5215630 α      lambda       -0.5972970E-03
   maximum displ.:     0.2764145 α      in ANC's #1, #11, #7, ...

........................................................................
.............................. CYCLE   46 ..............................
........................................................................
   1   -353.6704348 -0.353670E+03  0.675E-02    0.51       0.0  T
   2   -353.6704452 -0.103362E-04  0.379E-02    0.51       1.0  T
   3   -353.6703364  0.108814E-03  0.206E-02    0.50       1.0  T
   4   -353.6704574 -0.121027E-03  0.355E-03    0.51       2.0  T
   5   -353.6704588 -0.141592E-05  0.205E-03    0.51       3.5  T
   6   -353.6704592 -0.339902E-06  0.100E-03    0.51       7.1  T
   7   -353.6704592 -0.742320E-07  0.679E-04    0.51      10.4  T
   8   -353.6704592 -0.161591E-07  0.497E-04    0.51      14.3  T
     SCC iter.                  ...        0 min,  0.320 sec
     gradient                   ...        0 min,  0.118 sec
 * total energy  :  -348.2709044 Eh     change       -0.3944507E-03 Eh
   gradient norm :     0.0129178 Eh/α   predicted    -0.3798920E-03 (  -3.69%)
   displ. norm   :     0.5042118 α      lambda       -0.5686399E-03
   maximum displ.:     0.2693981 α      in ANC's #1, #11, #7, ...

........................................................................
.............................. CYCLE   47 ..............................
........................................................................
   1   -353.6684222 -0.353668E+03  0.470E-02    0.51       0.0  T
   2   -353.6684268 -0.460231E-05  0.264E-02    0.52       1.0  T
   3   -353.6683952  0.316104E-04  0.116E-02    0.52       1.0  T
   4   -353.6684303 -0.350842E-04  0.271E-03    0.52       2.6  T
   5   -353.6684312 -0.871866E-06  0.161E-03    0.52       4.4  T
   6   -353.6684315 -0.300942E-06  0.624E-04    0.52      11.4  T
   7   -353.6684315 -0.412533E-07  0.376E-04    0.52      18.9  T
     SCC iter.                  ...        0 min,  0.271 sec
     gradient                   ...        0 min,  0.119 sec
 * total energy  :  -348.2713866 Eh     change       -0.4822714E-03 Eh
   gradient norm :     0.0122717 Eh/α   predicted    -0.3566211E-03 ( -26.05%)
   displ. norm   :     0.6296425 α      lambda       -0.8274057E-03
   maximum displ.:     0.3393019 α      in ANC's #1, #11, #7, ...

........................................................................
.............................. CYCLE   48 ..............................
........................................................................
   1   -353.6648701 -0.353665E+03  0.549E-02    0.52       0.0  T
   2   -353.6648746 -0.455738E-05  0.312E-02    0.52       1.0  T
   3   -353.6647897  0.848746E-04  0.172E-02    0.52       1.0  T
   4   -353.6648823 -0.925892E-04  0.338E-03    0.52       2.1  T
   5   -353.6648837 -0.133761E-05  0.178E-03    0.52       4.0  T
   6   -353.6648839 -0.222075E-06  0.886E-04    0.52       8.0  T
   7   -353.6648840 -0.976670E-07  0.516E-04    0.52      13.7  T
     SCC iter.                  ...        0 min,  0.270 sec
     gradient                   ...        0 min,  0.117 sec
 * total energy  :  -348.2720783 Eh     change       -0.6916920E-03 Eh
   gradient norm :     0.0081191 Eh/α   predicted    -0.5777166E-03 ( -16.48%)
   displ. norm   :     0.7270558 α      lambda       -0.7961300E-03
   maximum displ.:     0.3955243 α      in ANC's #1, #11, #7, ...

........................................................................
.............................. CYCLE   49 ..............................
........................................................................
   1   -353.6590326 -0.353659E+03  0.660E-02    0.52       0.0  T
   2   -353.6590408 -0.821428E-05  0.371E-02    0.52       1.0  T
   3   -353.6589654  0.754038E-04  0.164E-02    0.52       1.0  T
   4   -353.6590482 -0.827379E-04  0.375E-03    0.52       1.9  T
   5   -353.6590498 -0.167981E-05  0.204E-03    0.52       3.5  T
   6   -353.6590502 -0.326893E-06  0.101E-03    0.52       7.0  T
   7   -353.6590503 -0.966170E-07  0.704E-04    0.52      10.1  T
   8   -353.6590503 -0.234409E-07  0.536E-04    0.52      13.2  T
     SCC iter.                  ...        0 min,  0.308 sec
     gradient                   ...        0 min,  0.118 sec
 * total energy  :  -348.2727166 Eh     change       -0.6382468E-03 Eh
   gradient norm :     0.0090491 Eh/α   predicted    -0.6084953E-03 (  -4.66%)
   displ. norm   :     0.7374473 α      lambda       -0.8132502E-03
   maximum displ.:     0.4036256 α      in ANC's #1, #11, #7, ...

........................................................................
.............................. CYCLE   50 ..............................
........................................................................
   1   -353.6569603 -0.353657E+03  0.552E-02    0.52       0.0  T
   2   -353.6569655 -0.523452E-05  0.312E-02    0.52       1.0  T
   3   -353.6569363  0.292153E-04  0.116E-02    0.52       1.0  T
   4   -353.6569684 -0.320735E-04  0.336E-03    0.52       2.1  T
   5   -353.6569694 -0.101069E-05  0.204E-03    0.52       3.5  T
   6   -353.6569699 -0.522729E-06  0.916E-04    0.52       7.7  T
   7   -353.6569700 -0.623374E-07  0.674E-04    0.52      10.5  T
     SCC iter.                  ...        0 min,  0.266 sec
     gradient                   ...        0 min,  0.118 sec
 * total energy  :  -348.2733538 Eh     change       -0.6372203E-03 Eh
   gradient norm :     0.0125050 Eh/α   predicted    -0.6277870E-03 (  -1.48%)
   displ. norm   :     0.7214619 α      lambda       -0.7442945E-03
   maximum displ.:     0.3966399 α      in ANC's #1, #11, #7, ...

........................................................................
.............................. CYCLE   51 ..............................
........................................................................
   1   -353.6594199 -0.353659E+03  0.499E-02    0.53       0.0  T
   2   -353.6594239 -0.403166E-05  0.281E-02    0.53       1.0  T
   3   -353.6594066  0.173381E-04  0.889E-03    0.53       1.0  T
   4   -353.6594255 -0.188764E-04  0.300E-03    0.53       2.4  T
   5   -353.6594263 -0.892372E-06  0.181E-03    0.53       3.9  T
   6   -353.6594268 -0.445616E-06  0.844E-04    0.53       8.4  T
   7   -353.6594269 -0.578153E-07  0.596E-04    0.53      11.9  T
     SCC iter.                  ...        0 min,  0.267 sec
[...]
   155   1 H    0.999 --    47 C    0.968
   156   1 H    0.998 --    49 C    0.968
   157   1 H    0.998 --    50 C    0.969
   158   1 H    0.996 --    52 C    0.966
   159   1 H    0.997 --    52 C    0.982
   160   1 H    0.997 --    52 C    0.981
   161   1 H    0.998 --    53 C    0.969
   162   1 H    0.999 --    54 C    0.968
   163   1 H    0.999 --    60 C    0.965
   164   1 H    0.997 --    61 C    0.970
   165   1 H    0.998 --    62 C    0.970
   166   1 H    0.998 --    63 C    0.966
   167   1 H    0.998 --    65 C    0.975
   168   1 H    0.998 --    65 C    0.964
   169   1 H    0.999 --    66 C    0.986
   170   1 H    0.999 --    66 C    0.984
   171   1 H    0.998 --    66 C    0.986
   172   1 H    0.999 --    83 C    0.971
   173   1 H    0.998 --    83 C    0.974
   174   1 H    0.998 --    84 C    0.988
   175   1 H    0.998 --    84 C    0.986
   176   1 H    0.998 --    84 C    0.986
   177   1 H    0.997 --    85 C    0.968
   178   1 H    0.998 --    86 C    0.971
   179   1 H    0.996 --    87 C    0.968
   180   1 H    0.998 --    88 C    0.970
   181   1 H    0.995 --   100 C    0.956
   182   1 H    0.995 --   100 C    0.963
   183   1 H    0.997 --   101 C    0.985
   184   1 H    0.997 --   101 C    0.983
   185   1 H    0.997 --   101 C    0.984
   186   1 H    0.995 --   102 C    0.963
   187   1 H    0.995 --   102 C    0.956
   188   1 H    0.997 --   103 C    0.983
   189   1 H    0.996 --   103 C    0.984
   190   1 H    0.997 --   103 C    0.986
   191   1 H    0.997 --   110 C    0.967
   192   1 H    0.995 --   110 C    0.969
   193   1 H    0.996 --   111 C    0.972
   194   1 H    0.995 --   111 C    0.972
   195   1 H    0.995 --   112 C    0.968
   196   1 H    0.996 --   112 C    0.965
   197   1 H    0.989 --   114 C    0.944
   198   1 H    0.994 --   120 C    0.960
   199   1 H    0.993 --   121 C    0.964
 ---------------------------------------------------------------------------

Topologies differ in bond orders
Writing corrected topology to xtbtopo.mol

molecular dipole:
                 x           y           z       tot (Debye)
 q only:       -0.244       0.753       0.610
   full:       -0.687       2.231      -0.268       5.972
molecular quadrupole (traceless):
                xx          xy          yy          xz          yz          zz
 q only:      113.768      67.157      21.922      73.103    -199.969    -135.691
  q+dip:      100.069      86.131      14.056     101.465    -216.449    -114.126
   full:      104.107      91.435      11.659     104.415    -207.611    -115.765

           -------------------------------------------------
          |                Geometry Summary                 |
           -------------------------------------------------

      molecular mass/u    :     2020.9631223
   center of mass at/Å    :       -0.4707735      -0.1646568      -0.5945602
  moments of inertia/u·Å² :        0.2458867E+05   0.2414213E+06   0.2477864E+06
rotational constants/cm⁻¹ :        0.6855853E-03   0.6982661E-04   0.6803293E-04

 * 200 selected distances

     #   Z          #   Z                                           value/Å
     1   6 C        2   6 C                                       1.3790296
     3   6 C        4   8 O                                       1.2104452
     5   6 C        6   6 C                                       1.4059600
     6   6 C        7   6 C                                       1.3836871
     7   6 C        8   6 C                                       1.3873315
     8   6 C        9   6 C                                       1.3853959
     9   6 C       10  35 Br                                      1.8913272 (max)
     5   6 C       11   6 C                                       1.3832249
     9   6 C       11   6 C                                       1.3987653
    11   6 C       12  17 Cl                                      1.7131272
     2   6 C       13   6 C                                       1.4290136
    13   6 C       14   6 C                                       1.3797372
    15   6 C       16   7 N                                       1.1493955
    17   6 C       18   7 N                                       1.1497488
     1   6 C       19   6 C                                       1.3947225
    19   6 C       20   6 C                                       1.4141855
    20   6 C       21   7 N                                       1.3705065
    21   7 N       22   6 C                                       1.4060973
    22   6 C       23   6 C                                       1.3948691
    23   6 C       24   6 C                                       1.3807006
    24   6 C       25   6 C                                       1.3891578
    25   6 C       27   6 C                                       1.3914535
    22   6 C       28   6 C                                       1.3933300
    27   6 C       28   6 C                                       1.3798232
    21   7 N       29   6 C                                       1.4196816
    29   6 C       30   6 C                                       1.3923156
    30   6 C       31   6 C                                       1.3788376
    31   6 C       32   6 C                                       1.3918757
    32   6 C       34   6 C                                       1.3876945
    29   6 C       35   6 C                                       1.3899388
    34   6 C       35   6 C                                       1.3823654
    20   6 C       36   6 C                                       1.4119981
    36   6 C       37  16 S                                       1.7303812
    37  16 S       38   6 C                                       1.7562144
    38   6 C       39   6 C                                       1.3903983
    39   6 C       40   7 N                                       1.3841642
    40   7 N       41   6 C                                       1.3999227
    41   6 C       42   6 C                                       1.3926830
    42   6 C       43   6 C                                       1.3792942
    43   6 C       44   6 C                                       1.3910146
    44   6 C       46   6 C                                       1.3887714
    41   6 C       47   6 C                                       1.3931063
    46   6 C       47   6 C                                       1.3811402
    40   7 N       48   6 C                                       1.4046866
    48   6 C       49   6 C                                       1.3918814
    49   6 C       50   6 C                                       1.3800054
    50   6 C       51   6 C                                       1.3903416
    51   6 C       53   6 C                                       1.3891441
    48   6 C       54   6 C                                       1.3923051
    53   6 C       54   6 C                                       1.3808026
    36   6 C       55   6 C                                       1.3891973
    39   6 C       55   6 C                                       1.4144713
    55   6 C       56  16 S                                       1.7205351
    38   6 C       57   6 C                                       1.4272225
    57   6 C       58   6 C                                       1.3802883
    59   6 C       60   6 C                                       1.3911152
    60   6 C       61   6 C                                       1.3808274
    61   6 C       62   6 C                                       1.3834391
    62   6 C       63   6 C                                       1.3825234
    59   6 C       64   6 C                                       1.3975013
    63   6 C       64   6 C                                       1.3879995
    65   6 C       66   6 C                                       1.5294743
    58   6 C       67   6 C                                       1.4084427
    67   6 C       68  16 S                                       1.7492588
    68  16 S       69   6 C                                       1.7325194
    69   6 C       70   6 C                                       1.4040347
    70   6 C       71   6 C                                       1.4115266
    71   6 C       72   6 C                                       1.4336446
    72   6 C       73   7 N                                       1.3238276
    73   7 N       74  16 S                                       1.6188828
    71   6 C       75   7 N                                       1.3240985
    74  16 S       75   7 N                                       1.6188197
    72   6 C       76   6 C                                       1.4118076
    76   6 C       77   6 C                                       1.4021718
    77   6 C       78  16 S                                       1.7314663
    78  16 S       79   6 C                                       1.7489626
    79   6 C       80   6 C                                       1.3983211
    81   6 C       82   6 C                                       1.3969598
    83   6 C       84   6 C                                       1.5301365
    82   6 C       85   6 C                                       1.3879339
    85   6 C       86   6 C                                       1.3830570
    86   6 C       87   6 C                                       1.3842902
    81   6 C       88   6 C                                       1.3910144
    87   6 C       88   6 C                                       1.3818075
    80   6 C       89   6 C                                       1.3879904
    89   6 C       90  16 S                                       1.7554140
    79   6 C       91   6 C                                       1.4015699
    90  16 S       91   6 C                                       1.7305883
    77   6 C       92   6 C                                       1.3984829
    91   6 C       92   6 C                                       1.3985455
    92   6 C       93   7 N                                       1.3690681
    76   6 C       94   6 C                                       1.4253821
    93   7 N       94   6 C                                       1.3849678
    70   6 C       95   6 C                                       1.4242179
    94   6 C       95   6 C                                       1.4196437
    95   6 C       96   7 N                                       1.3891752
    69   6 C       97   6 C                                       1.3954103
    96   7 N       97   6 C                                       1.3689921
    67   6 C       98   6 C                                       1.3953893
    97   6 C       98   6 C                                       1.4000344
    57   6 C       99  16 S                                       1.7596293
    98   6 C       99  16 S                                       1.7240267
    96   7 N      100   6 C                                       1.4471604
   100   6 C      101   6 C                                       1.5261982
    93   7 N      102   6 C                                       1.4444350
   102   6 C      103   6 C                                       1.5268318
    89   6 C      104   6 C                                       1.4097786
   104   6 C      105  16 S                                       1.7271598
   105  16 S      106   6 C                                       1.7439043
   106   6 C      107   6 C                                       1.4010707
   104   6 C      108   6 C                                       1.3946342
   107   6 C      108   6 C                                       1.4066431
   108   6 C      109   8 O                                       1.3650969
   109   8 O      110   6 C                                       1.4134534
   110   6 C      111   6 C                                       1.5266455
   111   6 C      112   6 C                                       1.5267720
   107   6 C      113   8 O                                       1.3516464
   112   6 C      113   8 O                                       1.4152617
   106   6 C      114   6 C                                       1.4038238
   114   6 C      115   6 C                                       1.3694594
   116   6 C      117   8 O                                       1.2089655
   118   6 C      119   6 C                                       1.4079312
   119   6 C      120   6 C                                       1.3838341
   120   6 C      121   6 C                                       1.3874144
   121   6 C      122   6 C                                       1.3862309
   122   6 C      123  35 Br                                      1.8897709
   118   6 C      124   6 C                                       1.3851223
   122   6 C      124   6 C                                       1.3999694
   124   6 C      125  17 Cl                                      1.7119641
   126   6 C      127   6 C                                       1.3737387
   128   6 C      129   7 N                                       1.1490592
   130   6 C      131   7 N                                       1.1484156
     1   6 C      132   1 H                                       1.0863488
     7   6 C      133   1 H                                       1.0775084
     8   6 C      134   1 H                                       1.0792837
    23   6 C      135   1 H                                       1.0802692
    24   6 C      136   1 H                                       1.0799403
    26   6 C      137   1 H                                       1.0881517
    26   6 C      138   1 H                                       1.0900711
    26   6 C      139   1 H                                       1.0869919
    27   6 C      140   1 H                                       1.0798073
    28   6 C      141   1 H                                       1.0792302
    30   6 C      142   1 H                                       1.0802110
    31   6 C      143   1 H                                       1.0804337
    33   6 C      144   1 H                                       1.0890763
    33   6 C      145   1 H                                       1.0895439
    33   6 C      146   1 H                                       1.0859628
    34   6 C      147   1 H                                       1.0787570
    35   6 C      148   1 H                                       1.0786459
    42   6 C      149   1 H                                       1.0798536
    43   6 C      150   1 H                                       1.0805758
    45   6 C      151   1 H                                       1.0909723
    45   6 C      152   1 H                                       1.0874951
    45   6 C      153   1 H                                       1.0882999
    46   6 C      154   1 H                                       1.0807365
    47   6 C      155   1 H                                       1.0798984
    49   6 C      156   1 H                                       1.0799398
    50   6 C      157   1 H                                       1.0803339
    52   6 C      158   1 H                                       1.0904873
    52   6 C      159   1 H                                       1.0874112
    52   6 C      160   1 H                                       1.0876237
    53   6 C      161   1 H                                       1.0804246
    54   6 C      162   1 H                                       1.0806277
    60   6 C      163   1 H                                       1.0793365
    61   6 C      164   1 H                                       1.0796184
    62   6 C      165   1 H                                       1.0804270
    63   6 C      166   1 H                                       1.0800935
    65   6 C      167   1 H                                       1.0916113
    65   6 C      168   1 H                                       1.0903611
    66   6 C      169   1 H                                       1.0881689
    66   6 C      170   1 H                                       1.0872378
    66   6 C      171   1 H                                       1.0876282
    83   6 C      172   1 H                                       1.0917080
    83   6 C      173   1 H                                       1.0915609
    84   6 C      174   1 H                                       1.0874005
    84   6 C      175   1 H                                       1.0872606
    84   6 C      176   1 H                                       1.0875104
    85   6 C      177   1 H                                       1.0806406
    86   6 C      178   1 H                                       1.0800823
    87   6 C      179   1 H                                       1.0789601
    88   6 C      180   1 H                                       1.0802723
   100   6 C      181   1 H                                       1.0903815
   100   6 C      182   1 H                                       1.0929943
   101   6 C      183   1 H                                       1.0875341
   101   6 C      184   1 H                                       1.0876326
   101   6 C      185   1 H                                       1.0868121
   102   6 C      186   1 H                                       1.0929118
   102   6 C      187   1 H                                       1.0901565
   103   6 C      188   1 H                                       1.0873455
   103   6 C      189   1 H                                       1.0867012
   103   6 C      190   1 H                                       1.0873913
   110   6 C      191   1 H                                       1.0992048
   110   6 C      192   1 H                                       1.0924517
   111   6 C      193   1 H                                       1.0900806
   111   6 C      194   1 H                                       1.0920836
   112   6 C      195   1 H                                       1.0923171
   112   6 C      196   1 H                                       1.0992221
   114   6 C      197   1 H                                       1.0843405
   120   6 C      198   1 H                                       1.0774775 (min)
   121   6 C      199   1 H                                       1.0791698

 * 8 distinct bonds (by element types)

   Z      Z             #   av. dist./Å        max./Å        min./Å
   1 H    6 C          68     1.0854559     1.0992221     1.0774775
   6 C    6 C          89     1.4033514     1.5301365     1.3694594
   6 C    7 N          18     1.3351890     1.4471604     1.1484156
   6 C    8 O           6     1.3274782     1.4152617     1.2089655
   6 C   16 S          13     1.7392354     1.7596293     1.7205351
   7 N   16 S           2     1.6188512     1.6188828     1.6188197
   6 C   17 Cl          2     1.7125457     1.7131272     1.7119641
   6 C   35 Br          2     1.8905490     1.8913272     1.8897709


optimized geometry written to: xtbopt.mol


           -------------------------------------------------
          | TOTAL ENERGY             -348.322189342994 Eh   |
          | GRADIENT NORM               0.000333020377 Eh/α |
          | HOMO-LUMO GAP               0.690504356402 eV   |
           -------------------------------------------------

------------------------------------------------------------------------
 * finished run on 2022/02/08 at 10:32:02.043     
------------------------------------------------------------------------
 total:
 * wall-time:     0 d,  0 h,  2 min, 17.660 sec
 *  cpu-time:     0 d,  0 h, 18 min, 20.963 sec
 * ratio c/w:     7.998 speedup
 SCF:
 * wall-time:     0 d,  0 h,  0 min,  1.162 sec
 *  cpu-time:     0 d,  0 h,  0 min,  9.291 sec
 * ratio c/w:     7.997 speedup
 ANC optimizer:
 * wall-time:     0 d,  0 h,  2 min, 16.360 sec
 *  cpu-time:     0 d,  0 h, 18 min, 10.832 sec
 * ratio c/w:     8.000 speedup

