      -----------------------------------------------------------      
     |                   =====================                   |     
     |                           x T B                           |     
     |                   =====================                   |     
     |                         S. Grimme                         |     
     |          Mulliken Center for Theoretical Chemistry        |     
     |                    University of Bonn                     |     
      -----------------------------------------------------------      

   * xtb version 6.4.1 (unknown) compiled by 'oda6@login1.crc.pitt.edu' on 2021-06-25

   xtb is free software: you can redistribute it and/or modify it under
   the terms of the GNU Lesser General Public License as published by
   the Free Software Foundation, either version 3 of the License, or
   (at your option) any later version.
   
   xtb is distributed in the hope that it will be useful,
   but WITHOUT ANY WARRANTY; without even the implied warranty of
   MERCHANTABILITY or FITNESS FOR A PARTICULAR PURPOSE.  See the
   GNU Lesser General Public License for more details.
   
   Cite this work as:
   * C. Bannwarth, E. Caldeweyher, S. Ehlert, A. Hansen, P. Pracht,
     J. Seibert, S. Spicher, S. Grimme, WIREs Comput. Mol. Sci., 2020, 11,
     e01493. DOI: 10.1002/wcms.1493
   
   for GFN2-xTB:
   * C. Bannwarth, S. Ehlert and S. Grimme., J. Chem. Theory Comput., 2019,
     15, 1652-1671. DOI: 10.1021/acs.jctc.8b01176
   for GFN1-xTB:
   * S. Grimme, C. Bannwarth, P. Shushkov, J. Chem. Theory Comput., 2017,
     13, 1989-2009. DOI: 10.1021/acs.jctc.7b00118
   for GFN0-xTB:
   * P. Pracht, E. Caldeweyher, S. Ehlert, S. Grimme, ChemRxiv, 2019, preprint.
     DOI: 10.26434/chemrxiv.8326202.v1
   for GFN-FF:
   * S. Spicher and S. Grimme, Angew. Chem. Int. Ed., 2020, 59, 15665-15673.
     DOI: 10.1002/anie.202004239
   
   for DFT-D4:
   * E. Caldeweyher, C. Bannwarth and S. Grimme, J. Chem. Phys., 2017,
     147, 034112. DOI: 10.1063/1.4993215
   * E. Caldeweyher, S. Ehlert, A. Hansen, H. Neugebauer, S. Spicher,
     C. Bannwarth and S. Grimme, J. Chem. Phys., 2019, 150, 154122.
     DOI: 10.1063/1.5090222
   * E. Caldeweyher, J.-M. Mewes, S. Ehlert and S. Grimme, Phys. Chem. Chem. Phys.
     2020, 22, 8499-8512. DOI: 10.1039/D0CP00502A
   
   for sTDA-xTB:
   * S. Grimme and C. Bannwarth, J. Chem. Phys., 2016, 145, 054103.
     DOI: 10.1063/1.4959605
   
   in the mass-spec context:
   * V. Asgeirsson, C. Bauer and S. Grimme, Chem. Sci., 2017, 8, 4879.
     DOI: 10.1039/c7sc00601b
   * J. Koopman and S. Grimme, ACS Omega 2019, 4, 12, 15120-15133.
     DOI: 10.1021/acsomega.9b02011
   
   for metadynamics refer to:
   * S. Grimme, J. Chem. Theory Comput., 2019, 155, 2847-2862
     DOI: 10.1021/acs.jctc.9b00143
   
   for SPH calculations refer to:
   * S. Spicher and S. Grimme, J. Chem. Theory Comput., 2021, 17, 1701-1714
     DOI: 10.1021/acs.jctc.0c01306
   
   with help from (in alphabetical order)
   P. Atkinson, C. Bannwarth, F. Bohle, G. Brandenburg, E. Caldeweyher
   M. Checinski, S. Dohm, S. Ehlert, S. Ehrlich, I. Gerasimov, J. Koopman
   C. Lavigne, S. Lehtola, F. März, M. Müller, F. Musil, H. Neugebauer
   J. Pisarek, C. Plett, P. Pracht, J. Seibert, P. Shushkov, S. Spicher
   M. Stahn, M. Steiner, T. Strunk, J. Stückrath, T. Rose, and J. Unsleber
   
 * started run on 2022/02/06 at 11:04:19.765     

           -------------------------------------------------
          |                Calculation Setup                |
           -------------------------------------------------

          program call               : /ihome/ghutchison/oda6/xtb/xtb-641/bin/xtb ../../FF_optimized/62_28_86_29_26.mol -opt
          hostname                   : smp-n29
          coordinate file            : ../../FF_optimized/62_28_86_29_26.mol
          omp threads                :                     8
          number of atoms            :                   193
          number of electrons        :                   608
          charge                     :                     0
          spin                       :                   0.0
          first test random number   :      0.11775080301278

   ID    Z sym.   atoms
    1    6 C      1-3, 5-9, 11, 13-15, 17, 19, 20, 22-36, 38, 39, 41-55,
                  57-67, 69-72, 76, 77, 79-89, 91, 92, 94, 95, 97, 98,
                  100-112, 114-117, 119-123, 125
    2    8 O      4, 113
    3   35 Br     10
    4   17 Cl     12
    5    7 N      16, 18, 21, 40, 73, 75, 93, 96, 124, 126
    6   16 S      37, 56, 68, 74, 78, 90, 99
    7   53 I      118
    8    1 H      127-193
########################################################################
[WARNING] Please study the warnings concerning your input carefully
-1- prog_main_parseArguments: the use of '-opt' is discouraged, please use '--opt' next time
########################################################################

           -------------------------------------------------
          |                 G F N 2 - x T B                 |
           -------------------------------------------------

        Reference                      10.1021/acs.jctc.8b01176
      * Hamiltonian:
        H0-scaling (s, p, d)           1.850000    2.230000    2.230000
        zeta-weighting                 0.500000
      * Dispersion:
        s8                             2.700000
        a1                             0.520000
        a2                             5.000000
        s9                             5.000000
      * Repulsion:
        kExp                           1.500000    1.000000
        rExp                           1.000000
      * Coulomb:
        alpha                          2.000000
        third order                    shell-resolved
        anisotropic                    true
        a3                             3.000000
        a5                             4.000000
        cn-shift                       1.200000
        cn-exp                         4.000000
        max-rad                        5.000000


          ...................................................
          :                      SETUP                      :
          :.................................................:
          :  # basis functions                 631          :
          :  # atomic orbitals                 621          :
          :  # shells                          329          :
          :  # electrons                       608          :
          :  max. iterations                   250          :
          :  Hamiltonian                  GFN2-xTB          :
          :  restarted?                      false          :
          :  GBSA solvation                  false          :
          :  PC potential                    false          :
          :  electronic temp.          300.0000000     K    :
          :  accuracy                    1.0000000          :
          :  -> integral cutoff          0.2500000E+02      :
          :  -> integral neglect         0.1000000E-07      :
          :  -> SCF convergence          0.1000000E-05 Eh   :
          :  -> wf. convergence          0.1000000E-03 e    :
          :  Broyden damping             0.4000000          :
          ...................................................

 iter      E             dE          RMSdq      gap      omega  full diag
   1   -333.8940587 -0.333894E+03  0.478E+00    1.25       0.0  T
   2   -334.1246772 -0.230618E+00  0.300E+00    0.58       1.0  T
   3   -333.7803453  0.344332E+00  0.190E+00    0.26       1.0  T
   4   -334.2712582 -0.490913E+00  0.706E-01    0.44       1.0  T
   5   -334.3337470 -0.624888E-01  0.258E-01    0.11       1.0  T
   6   -334.3387621 -0.501515E-02  0.224E-01    0.55       1.0  T
   7   -334.3480413 -0.927914E-02  0.105E-01    0.46       1.0  T
   8   -334.3488187 -0.777371E-03  0.675E-02    0.43       1.0  T
   9   -334.3491942 -0.375586E-03  0.533E-02    0.30       1.0  T
  10   -334.3490024  0.191852E-03  0.444E-02    0.19       1.0  T
  11   -334.3492980 -0.295559E-03  0.327E-02    0.29       1.0  T
  12   -334.3493085 -0.105298E-04  0.257E-02    0.21       1.0  T
  13   -334.3494483 -0.139796E-03  0.154E-02    0.25       1.0  T
  14   -334.3494646 -0.163234E-04  0.958E-03    0.24       1.0  T
  15   -334.3494744 -0.980185E-05  0.528E-03    0.25       1.4  T
  16   -334.3494762 -0.175391E-05  0.315E-03    0.25       2.3  T
  17   -334.3494766 -0.415702E-06  0.218E-03    0.25       3.3  T
  18   -334.3494768 -0.219946E-06  0.135E-03    0.25       5.3  T
  19   -334.3494769 -0.135654E-06  0.647E-04    0.25      11.1  T
  20   -334.3494770 -0.390559E-07  0.301E-04    0.25      23.9  T

   *** convergence criteria satisfied after 20 iterations ***

         #    Occupation            Energy/Eh            Energy/eV
      -------------------------------------------------------------
         1        2.0000           -1.0705124             -29.1301
       ...           ...                  ...                  ...
       298        2.0000           -0.3875440             -10.5456
       299        2.0000           -0.3775765             -10.2744
       300        2.0000           -0.3738759             -10.1737
       301        2.0000           -0.3665010              -9.9730
       302        1.9999           -0.3573884              -9.7250
       303        1.9998           -0.3568692              -9.7109
       304        1.9837           -0.3527971              -9.6001 (HOMO)
       305        0.0165           -0.3436811              -9.3520 (LUMO)
       306        0.0001           -0.3391148              -9.2278
       307        0.0000           -0.3346149              -9.1053
       308                         -0.3308442              -9.0027
       309                         -0.3000793              -8.1656
       ...                                ...                  ...
       621                          1.0815707              29.4310
      -------------------------------------------------------------
                  HL-Gap            0.0091160 Eh            0.2481 eV
             Fermi-level           -0.3482327 Eh           -9.4759 eV

 SCC (total)                   0 d,  0 h,  0 min,  0.892 sec
 SCC setup                      ...        0 min,  0.003 sec (  0.309%)
 Dispersion                     ...        0 min,  0.008 sec (  0.927%)
 classical contributions        ...        0 min,  0.000 sec (  0.037%)
 integral evaluation            ...        0 min,  0.035 sec (  3.886%)
 iterations                     ...        0 min,  0.723 sec ( 80.990%)
 molecular gradient             ...        0 min,  0.121 sec ( 13.510%)
 printout                       ...        0 min,  0.003 sec (  0.333%)

         :::::::::::::::::::::::::::::::::::::::::::::::::::::
         ::                     SUMMARY                     ::
         :::::::::::::::::::::::::::::::::::::::::::::::::::::
         :: total energy            -329.216274701063 Eh    ::
         :: gradient norm              0.310671951658 Eh/a0 ::
         :: HOMO-LUMO gap              0.248059745524 eV    ::
         ::.................................................::
         :: SCC energy              -334.349476968533 Eh    ::
         :: -> isotropic ES            0.131867679565 Eh    ::
         :: -> anisotropic ES          0.026761882528 Eh    ::
         :: -> anisotropic XC          0.206874734602 Eh    ::
         :: -> dispersion             -0.323674411333 Eh    ::
         :: repulsion energy           5.123627707048 Eh    ::
         :: add. restraining           0.000000000000 Eh    ::
         :: total charge               0.000000000014 e     ::
         :::::::::::::::::::::::::::::::::::::::::::::::::::::

      ----------------------------------------------------------- 
     |                   =====================                   |
     |                        A N C O P T                        |
     |                   =====================                   |
     |               Approximate Normal Coordinate               |
     |                Rational Function Optimizer                |
      ----------------------------------------------------------- 

          ...................................................
          :                      SETUP                      :
          :.................................................:
          :   optimization level            normal          :
          :   max. optcycles                   579          :
          :   ANC micro-cycles                  20          :
          :   degrees of freedom               573          :
          :.................................................:
          :   RF solver                   davidson          :
          :   write xtbopt.log                true          :
          :   linear?                        false          :
          :   energy convergence         0.5000000E-05 Eh   :
          :   grad. convergence          0.1000000E-02 Eh/α :
          :   maximium RF displ.         1.0000000          :
          :   Hlow (freq-cutoff)         0.1000000E-01      :
          :   Hmax (freq-cutoff)         5.0000000          :
          :   S6 in model hess.         20.0000000          :
          ...................................................

generating ANC from model Hessian ...
Using Lindh-Hessian (1995)
 Shifting diagonal of input Hessian by   1.009248165713498E-002
 Lowest  eigenvalues of input Hessian
    0.010000    0.010070    0.000000    0.000000    0.000000    0.000000
    0.000000    0.000000    0.010093    0.010100    0.010107    0.010113
    0.010127    0.010155    0.010171    0.010183    0.010191    0.010220
 Highest eigenvalues
    2.234133    2.258814    2.488264    2.511863    2.543951    2.567180
 

........................................................................
.............................. CYCLE    1 ..............................
........................................................................
   1   -334.3494770 -0.334349E+03  0.163E-04    0.25       0.0  T
   2   -334.3494770  0.306272E-09  0.134E-04    0.25      53.9  T
   3   -334.3494770 -0.252498E-08  0.792E-05    0.25      90.9  T
     SCC iter.                  ...        0 min,  0.113 sec
     gradient                   ...        0 min,  0.117 sec
 * total energy  :  -329.2162747 Eh     change       -0.1176676E-07 Eh
   gradient norm :     0.3106737 Eh/α   predicted     0.0000000E+00 (-100.00%)
   displ. norm   :     0.4985110 α      lambda       -0.1156767E+00
   maximum displ.:     0.1315029 α      in ANC's #354, #309, #307, ...

........................................................................
.............................. CYCLE    2 ..............................
........................................................................
   1   -334.5582609 -0.334558E+03  0.291E-01    0.25       0.0  T
   2   -334.5596192 -0.135837E-02  0.174E-01    0.31       1.0  T
   3   -334.5581167  0.150255E-02  0.106E-01    0.22       1.0  T
   4   -334.5598435 -0.172680E-02  0.542E-02    0.31       1.0  T
   5   -334.5605403 -0.696805E-03  0.231E-02    0.27       1.0  T
   6   -334.5605908 -0.504893E-04  0.107E-02    0.27       1.0  T
   7   -334.5605971 -0.632314E-05  0.625E-03    0.27       1.2  T
   8   -334.5606002 -0.306711E-05  0.400E-03    0.27       1.8  T
   9   -334.5606006 -0.416146E-06  0.276E-03    0.27       2.6  T
  10   -334.5606010 -0.382587E-06  0.165E-03    0.27       4.4  T
  11   -334.5606011 -0.172057E-06  0.106E-03    0.27       6.8  T
  12   -334.5606012 -0.818267E-07  0.609E-04    0.27      11.8  T
  13   -334.5606013 -0.349058E-07  0.314E-04    0.27      22.9  T
     SCC iter.                  ...        0 min,  0.458 sec
     gradient                   ...        0 min,  0.115 sec
 * total energy  :  -329.3008865 Eh     change       -0.8461183E-01 Eh
   gradient norm :     0.1453958 Eh/α   predicted    -0.7225941E-01 ( -14.60%)
   displ. norm   :     0.5042592 α      lambda       -0.4877984E-01
   maximum displ.:     0.0994287 α      in ANC's #125, #354, #195, ...

........................................................................
.............................. CYCLE    3 ..............................
........................................................................
   1   -334.6799746 -0.334680E+03  0.236E-01    0.23       0.0  T
   2   -334.6807125 -0.737895E-03  0.144E-01    0.35       1.0  T
   3   -334.6794179  0.129458E-02  0.103E-01    0.23       1.0  T
   4   -334.6816061 -0.218823E-02  0.481E-02    0.31       1.0  T
   5   -334.6821349 -0.528769E-03  0.192E-02    0.28       1.0  T
   6   -334.6821653 -0.303652E-04  0.939E-03    0.28       1.0  T
   7   -334.6821702 -0.489798E-05  0.575E-03    0.28       1.3  T
   8   -334.6821721 -0.190344E-05  0.387E-03    0.28       1.9  T
   9   -334.6821726 -0.517414E-06  0.265E-03    0.28       2.7  T
  10   -334.6821730 -0.439002E-06  0.152E-03    0.28       4.7  T
  11   -334.6821732 -0.163012E-06  0.906E-04    0.28       7.9  T
  12   -334.6821732 -0.518716E-07  0.570E-04    0.28      12.6  T
     SCC iter.                  ...        0 min,  0.424 sec
     gradient                   ...        0 min,  0.116 sec
 * total energy  :  -329.3316692 Eh     change       -0.3078270E-01 Eh
   gradient norm :     0.0455469 Eh/α   predicted    -0.3059173E-01 (  -0.62%)
   displ. norm   :     0.5307254 α      lambda       -0.1364933E-01
   maximum displ.:     0.1870065 α      in ANC's #76, #125, #75, ...

........................................................................
.............................. CYCLE    4 ..............................
........................................................................
   1   -334.7199482 -0.334720E+03  0.176E-01    0.25       0.0  T
   2   -334.7199256  0.226286E-04  0.108E-01    0.32       1.0  T
   3   -334.7178952  0.203035E-02  0.906E-02    0.24       1.0  T
   4   -334.7205057 -0.261045E-02  0.229E-02    0.30       1.0  T
   5   -334.7206215 -0.115860E-03  0.889E-03    0.29       1.0  T
   6   -334.7206292 -0.769446E-05  0.446E-03    0.29       1.6  T
   7   -334.7206303 -0.106389E-05  0.277E-03    0.29       2.6  T
   8   -334.7206306 -0.348803E-06  0.190E-03    0.29       3.8  T
   9   -334.7206308 -0.122946E-06  0.134E-03    0.29       5.4  T
  10   -334.7206309 -0.125483E-06  0.797E-04    0.29       9.0  T
  11   -334.7206309 -0.453560E-07  0.466E-04    0.29      15.5  T
     SCC iter.                  ...        0 min,  0.384 sec
     gradient                   ...        0 min,  0.116 sec
 * total energy  :  -329.3398363 Eh     change       -0.8167021E-02 Eh
   gradient norm :     0.0335376 Eh/α   predicted    -0.8747119E-02 (   7.10%)
   displ. norm   :     0.6950959 α      lambda       -0.1326485E-01
   maximum displ.:     0.1886417 α      in ANC's #17, #91, #76, ...

........................................................................
.............................. CYCLE    5 ..............................
........................................................................
   1   -334.7460758 -0.334746E+03  0.314E-01    0.25       0.0  T
   2   -334.7461837 -0.107912E-03  0.181E-01    0.34       1.0  T
   3   -334.7391227  0.706100E-02  0.143E-01    0.21       1.0  T
   4   -334.7468968 -0.777407E-02  0.299E-02    0.33       1.0  T
   5   -334.7471404 -0.243549E-03  0.111E-02    0.31       1.0  T
   6   -334.7471530 -0.126235E-04  0.524E-03    0.29       1.4  T
   7   -334.7471549 -0.187777E-05  0.289E-03    0.29       2.5  T
   8   -334.7471554 -0.579118E-06  0.185E-03    0.29       3.9  T
   9   -334.7471556 -0.149792E-06  0.132E-03    0.30       5.5  T
  10   -334.7471557 -0.683951E-07  0.935E-04    0.29       7.7  T
  11   -334.7471557 -0.561387E-07  0.565E-04    0.30      12.7  T
     SCC iter.                  ...        0 min,  0.373 sec
     gradient                   ...        0 min,  0.116 sec
 * total energy  :  -329.3430744 Eh     change       -0.3238121E-02 Eh
   gradient norm :     0.0432284 Eh/α   predicted    -0.9836980E-02 ( 203.79%)
   displ. norm   :     0.3440921 α      lambda       -0.7267358E-02
   maximum displ.:     0.1146365 α      in ANC's #76, #35, #75, ...

........................................................................
.............................. CYCLE    6 ..............................
........................................................................
   1   -334.7482263 -0.334748E+03  0.162E-01    0.28       0.0  T
   2   -334.7482844 -0.581877E-04  0.904E-02    0.30       1.0  T
   3   -334.7479123  0.372145E-03  0.400E-02    0.27       1.0  T
   4   -334.7483310 -0.418742E-03  0.710E-03    0.30       1.0  T
   5   -334.7483365 -0.548469E-05  0.415E-03    0.29       1.7  T
   6   -334.7483382 -0.167250E-05  0.224E-03    0.29       3.2  T
   7   -334.7483388 -0.601129E-06  0.127E-03    0.29       5.7  T
   8   -334.7483389 -0.100139E-06  0.877E-04    0.29       8.2  T
   9   -334.7483389 -0.259676E-07  0.568E-04    0.29      12.7  T
     SCC iter.                  ...        0 min,  0.317 sec
     gradient                   ...        0 min,  0.117 sec
 * total energy  :  -329.3476833 Eh     change       -0.4608877E-02 Eh
   gradient norm :     0.0325424 Eh/α   predicted    -0.4063935E-02 ( -11.82%)
   displ. norm   :     0.4952097 α      lambda       -0.4809583E-02
   maximum displ.:     0.1438199 α      in ANC's #76, #42, #35, ...

........................................................................
.............................. CYCLE    7 ..............................
........................................................................
   1   -334.7404938 -0.334740E+03  0.180E-01    0.30       0.0  T
   2   -334.7405373 -0.434398E-04  0.102E-01    0.31       1.0  T
   3   -334.7393725  0.116477E-02  0.633E-02    0.29       1.0  T
   4   -334.7406456 -0.127309E-02  0.843E-03    0.30       1.0  T
   5   -334.7406546 -0.903563E-05  0.437E-03    0.30       1.6  T
   6   -334.7406561 -0.147461E-05  0.232E-03    0.30       3.1  T
   7   -334.7406569 -0.762978E-06  0.108E-03    0.30       6.7  T
   8   -334.7406569 -0.753384E-07  0.697E-04    0.30      10.3  T
   9   -334.7406570 -0.264264E-07  0.475E-04    0.30      15.2  T
     SCC iter.                  ...        0 min,  0.311 sec
     gradient                   ...        0 min,  0.116 sec
 * total energy  :  -329.3494486 Eh     change       -0.1765299E-02 Eh
   gradient norm :     0.0277353 Eh/α   predicted    -0.2994544E-02 (  69.63%)
   displ. norm   :     0.4523823 α      lambda       -0.3571563E-02
   maximum displ.:     0.1271832 α      in ANC's #35, #38, #76, ...

........................................................................
.............................. CYCLE    8 ..............................
........................................................................
   1   -334.7396095 -0.334740E+03  0.140E-01    0.28       0.0  T
   2   -334.7396108 -0.123693E-05  0.800E-02    0.33       1.0  T
   3   -334.7381917  0.141905E-02  0.660E-02    0.26       1.0  T
   4   -334.7397782 -0.158646E-02  0.899E-03    0.31       1.0  T
   5   -334.7397901 -0.119163E-04  0.391E-03    0.31       1.8  T
   6   -334.7397916 -0.147853E-05  0.191E-03    0.31       3.8  T
   7   -334.7397920 -0.412747E-06  0.834E-04    0.31       8.6  T
   8   -334.7397921 -0.684832E-07  0.411E-04    0.31      17.5  T
     SCC iter.                  ...        0 min,  0.297 sec
     gradient                   ...        0 min,  0.116 sec
 * total energy  :  -329.3519595 Eh     change       -0.2510924E-02 Eh
   gradient norm :     0.0233781 Eh/α   predicted    -0.2151243E-02 ( -14.32%)
   displ. norm   :     0.5745575 α      lambda       -0.3111282E-02
   maximum displ.:     0.1730529 α      in ANC's #35, #42, #38, ...

........................................................................
.............................. CYCLE    9 ..............................
........................................................................
   1   -334.7411720 -0.334741E+03  0.163E-01    0.28       0.0  T
   2   -334.7411813 -0.929090E-05  0.929E-02    0.34       1.0  T
   3   -334.7393508  0.183056E-02  0.746E-02    0.26       1.0  T
   4   -334.7413898 -0.203899E-02  0.106E-02    0.32       1.0  T
   5   -334.7414070 -0.172802E-04  0.449E-03    0.32       1.6  T
   6   -334.7414087 -0.168125E-05  0.228E-03    0.31       3.2  T
   7   -334.7414093 -0.609672E-06  0.106E-03    0.31       6.8  T
   8   -334.7414094 -0.851682E-07  0.621E-04    0.31      11.6  T
   9   -334.7414094 -0.188498E-07  0.433E-04    0.31      16.6  T
     SCC iter.                  ...        0 min,  0.311 sec
     gradient                   ...        0 min,  0.116 sec
 * total energy  :  -329.3535341 Eh     change       -0.1574639E-02 Eh
   gradient norm :     0.0271771 Eh/α   predicted    -0.2069184E-02 (  31.41%)
   displ. norm   :     0.6046215 α      lambda       -0.3805537E-02
   maximum displ.:     0.1876052 α      in ANC's #35, #42, #29, ...

........................................................................
.............................. CYCLE   10 ..............................
........................................................................
   1   -334.7555409 -0.334756E+03  0.193E-01    0.31       0.0  T
   2   -334.7555836 -0.426896E-04  0.109E-01    0.35       1.0  T
   3   -334.7539535  0.163014E-02  0.700E-02    0.29       1.0  T
   4   -334.7557373 -0.178385E-02  0.112E-02    0.33       1.0  T
   5   -334.7557597 -0.223370E-04  0.464E-03    0.33       1.6  T
   6   -334.7557614 -0.174947E-05  0.226E-03    0.33       3.2  T
   7   -334.7557619 -0.531149E-06  0.107E-03    0.33       6.7  T
   8   -334.7557620 -0.103067E-06  0.628E-04    0.33      11.5  T
   9   -334.7557621 -0.151620E-07  0.432E-04    0.33      16.7  T
     SCC iter.                  ...        0 min,  0.307 sec
     gradient                   ...        0 min,  0.117 sec
 * total energy  :  -329.3551299 Eh     change       -0.1595816E-02 Eh
   gradient norm :     0.0412734 Eh/α   predicted    -0.2598370E-02 (  62.82%)
   displ. norm   :     0.4681800 α      lambda       -0.2651722E-02
   maximum displ.:     0.1505410 α      in ANC's #35, #29, #42, ...

........................................................................
.............................. CYCLE   11 ..............................
........................................................................
   1   -334.7508778 -0.334751E+03  0.913E-02    0.33       0.0  T
   2   -334.7508863 -0.849767E-05  0.529E-02    0.35       1.0  T
   3   -334.7504701  0.416198E-03  0.392E-02    0.33       1.0  T
   4   -334.7509292 -0.459022E-03  0.622E-03    0.34       1.2  T
   5   -334.7509360 -0.679049E-05  0.278E-03    0.35       2.6  T
   6   -334.7509368 -0.814917E-06  0.137E-03    0.35       5.2  T
   7   -334.7509369 -0.179731E-06  0.731E-04    0.35       9.8  T
   8   -334.7509370 -0.394118E-07  0.446E-04    0.35      16.2  T
     SCC iter.                  ...        0 min,  0.278 sec
     gradient                   ...        0 min,  0.117 sec
 * total energy  :  -329.3570642 Eh     change       -0.1934255E-02 Eh
   gradient norm :     0.0200085 Eh/α   predicted    -0.1616480E-02 ( -16.43%)
   displ. norm   :     0.6319703 α      lambda       -0.2629116E-02
   maximum displ.:     0.1962928 α      in ANC's #35, #42, #29, ...

........................................................................
.............................. CYCLE   12 ..............................
........................................................................
   1   -334.7360822 -0.334736E+03  0.138E-01    0.33       0.0  T
   2   -334.7361379 -0.557540E-04  0.784E-02    0.37       1.0  T
   3   -334.7355059  0.632005E-03  0.509E-02    0.32       1.0  T
   4   -334.7362069 -0.700938E-03  0.771E-03    0.36       1.0  T
   5   -334.7362140 -0.714300E-05  0.452E-03    0.36       1.6  T
   6   -334.7362174 -0.342780E-05  0.192E-03    0.36       3.8  T
   7   -334.7362177 -0.277719E-06  0.112E-03    0.36       6.4  T
   8   -334.7362178 -0.122059E-06  0.613E-04    0.36      11.7  T
   9   -334.7362179 -0.205801E-07  0.442E-04    0.36      16.3  T
     SCC iter.                  ...        0 min,  0.319 sec
     gradient                   ...        0 min,  0.116 sec
 * total energy  :  -329.3582940 Eh     change       -0.1229803E-02 Eh
   gradient norm :     0.0437141 Eh/α   predicted    -0.1839582E-02 (  49.58%)
   displ. norm   :     0.5579750 α      lambda       -0.2584281E-02
   maximum displ.:     0.1758501 α      in ANC's #29, #35, #23, ...

........................................................................
.............................. CYCLE   13 ..............................
........................................................................
   1   -334.7420592 -0.334742E+03  0.114E-01    0.36       0.0  T
   2   -334.7420974 -0.382110E-04  0.641E-02    0.38       1.0  T
   3   -334.7417539  0.343448E-03  0.357E-02    0.35       1.0  T
   4   -334.7421291 -0.375154E-03  0.747E-03    0.38       1.0  T
   5   -334.7421395 -0.103677E-04  0.352E-03    0.38       2.0  T
   6   -334.7421414 -0.189865E-05  0.143E-03    0.37       5.0  T
   7   -334.7421415 -0.123036E-06  0.816E-04    0.37       8.8  T
   8   -334.7421415 -0.558850E-07  0.481E-04    0.37      15.0  T
     SCC iter.                  ...        0 min,  0.286 sec
     gradient                   ...        0 min,  0.117 sec
 * total energy  :  -329.3600229 Eh     change       -0.1728921E-02 Eh
   gradient norm :     0.0210212 Eh/α   predicted    -0.1694437E-02 (  -1.99%)
   displ. norm   :     0.6602186 α      lambda       -0.1804008E-02
   maximum displ.:     0.2083607 α      in ANC's #29, #35, #23, ...

........................................................................
.............................. CYCLE   14 ..............................
........................................................................
   1   -334.7411348 -0.334741E+03  0.956E-02    0.36       0.0  T
   2   -334.7411501 -0.152477E-04  0.557E-02    0.40       1.0  T
   3   -334.7407139  0.436141E-03  0.403E-02    0.36       1.0  T
   4   -334.7412016 -0.487728E-03  0.886E-03    0.39       1.0  T
   5   -334.7412179 -0.162611E-04  0.323E-03    0.39       2.2  T
   6   -334.7412192 -0.128769E-05  0.157E-03    0.39       4.6  T
   7   -334.7412194 -0.243062E-06  0.848E-04    0.39       8.5  T
   8   -334.7412195 -0.576841E-07  0.515E-04    0.39      14.0  T
     SCC iter.                  ...        0 min,  0.285 sec
     gradient                   ...        0 min,  0.116 sec
 * total energy  :  -329.3614342 Eh     change       -0.1411307E-02 Eh
   gradient norm :     0.0156847 Eh/α   predicted    -0.1295178E-02 (  -8.23%)
   displ. norm   :     0.7055314 α      lambda       -0.2014691E-02
   maximum displ.:     0.2344596 α      in ANC's #23, #29, #35, ...

........................................................................
.............................. CYCLE   15 ..............................
........................................................................
   1   -334.7539252 -0.334754E+03  0.938E-02    0.38       0.0  T
   2   -334.7539482 -0.230106E-04  0.539E-02    0.40       1.0  T
   3   -334.7538345  0.113714E-03  0.231E-02    0.38       1.0  T
   4   -334.7539619 -0.127449E-03  0.493E-03    0.40       1.5  T
   5   -334.7539657 -0.373927E-05  0.264E-03    0.40       2.7  T
   6   -334.7539664 -0.709505E-06  0.126E-03    0.40       5.7  T
   7   -334.7539665 -0.106369E-06  0.691E-04    0.40      10.4  T
   8   -334.7539665 -0.346144E-07  0.451E-04    0.40      16.0  T
     SCC iter.                  ...        0 min,  0.284 sec
     gradient                   ...        0 min,  0.117 sec
 * total energy  :  -329.3627547 Eh     change       -0.1320449E-02 Eh
   gradient norm :     0.0231786 Eh/α   predicted    -0.1508776E-02 (  14.26%)
   displ. norm   :     0.7055665 α      lambda       -0.1701116E-02
   maximum displ.:     0.2358286 α      in ANC's #29, #23, #35, ...

........................................................................
.............................. CYCLE   16 ..............................
........................................................................
   1   -334.7459881 -0.334746E+03  0.980E-02    0.39       0.0  T
   2   -334.7460095 -0.213674E-04  0.564E-02    0.42       1.0  T
   3   -334.7457879  0.221540E-03  0.290E-02    0.39       1.0  T
   4   -334.7460298 -0.241900E-03  0.612E-03    0.41       1.2  T
   5   -334.7460355 -0.571751E-05  0.303E-03    0.41       2.4  T
   6   -334.7460366 -0.108065E-05  0.150E-03    0.41       4.8  T
   7   -334.7460369 -0.266561E-06  0.776E-04    0.41       9.3  T
   8   -334.7460369 -0.675524E-07  0.451E-04    0.41      16.0  T
     SCC iter.                  ...        0 min,  0.280 sec
     gradient                   ...        0 min,  0.116 sec
 * total energy  :  -329.3641282 Eh     change       -0.1373486E-02 Eh
   gradient norm :     0.0105197 Eh/α   predicted    -0.1273989E-02 (  -7.24%)
   displ. norm   :     0.7570819 α      lambda       -0.1363941E-02
   maximum displ.:     0.2742538 α      in ANC's #29, #23, #10, ...

........................................................................
.............................. CYCLE   17 ..............................
........................................................................
   1   -334.7407668 -0.334741E+03  0.925E-02    0.40       0.0  T
   2   -334.7407861 -0.192599E-04  0.534E-02    0.42       1.0  T
   3   -334.7406084  0.177734E-03  0.259E-02    0.40       1.0  T
   4   -334.7408021 -0.193730E-03  0.571E-03    0.42       1.3  T
   5   -334.7408069 -0.479215E-05  0.291E-03    0.42       2.5  T
   6   -334.7408079 -0.101982E-05  0.151E-03    0.42       4.8  T
   7   -334.7408081 -0.233975E-06  0.829E-04    0.42       8.7  T
   8   -334.7408082 -0.658305E-07  0.501E-04    0.42      14.4  T
     SCC iter.                  ...        0 min,  0.287 sec
     gradient                   ...        0 min,  0.116 sec
 * total energy  :  -329.3653062 Eh     change       -0.1178049E-02 Eh
   gradient norm :     0.0113337 Eh/α   predicted    -0.1072864E-02 (  -8.93%)
   displ. norm   :     0.7644836 α      lambda       -0.1414023E-02
   maximum displ.:     0.2865431 α      in ANC's #23, #29, #10, ...

........................................................................
.............................. CYCLE   18 ..............................
........................................................................
   1   -334.7540376 -0.334754E+03  0.812E-02    0.42       0.0  T
   2   -334.7540495 -0.119323E-04  0.469E-02    0.42       1.0  T
   3   -334.7539450  0.104556E-03  0.207E-02    0.42       1.0  T
   4   -334.7540559 -0.110965E-03  0.483E-03    0.42       1.5  T
   5   -334.7540603 -0.441618E-05  0.253E-03    0.42       2.8  T
   6   -334.7540612 -0.884706E-06  0.125E-03    0.42       5.8  T
   7   -334.7540614 -0.153946E-06  0.649E-04    0.42      11.1  T
   8   -334.7540614 -0.368938E-07  0.412E-04    0.42      17.5  T
     SCC iter.                  ...        0 min,  0.287 sec
     gradient                   ...        0 min,  0.116 sec
 * total energy  :  -329.3664615 Eh     change       -0.1155284E-02 Eh
   gradient norm :     0.0122984 Eh/α   predicted    -0.1120214E-02 (  -3.04%)
   displ. norm   :     0.8130671 α      lambda       -0.1380043E-02
   maximum displ.:     0.3059312 α      in ANC's #29, #23, #13, ...

........................................................................
.............................. CYCLE   19 ..............................
........................................................................
   1   -334.7460119 -0.334746E+03  0.905E-02    0.42       0.0  T
   2   -334.7460274 -0.155448E-04  0.521E-02    0.44       1.0  T
   3   -334.7459091  0.118340E-03  0.211E-02    0.42       1.0  T
   4   -334.7460357 -0.126684E-03  0.527E-03    0.44       1.4  T
   5   -334.7460401 -0.431341E-05  0.276E-03    0.43       2.6  T
   6   -334.7460410 -0.966870E-06  0.142E-03    0.43       5.1  T
   7   -334.7460413 -0.250050E-06  0.699E-04    0.43      10.3  T
   8   -334.7460413 -0.305486E-07  0.468E-04    0.43      15.4  T
     SCC iter.                  ...        0 min,  0.302 sec
     gradient                   ...        0 min,  0.122 sec
 * total energy  :  -329.3676001 Eh     change       -0.1138628E-02 Eh
   gradient norm :     0.0103579 Eh/α   predicted    -0.1146173E-02 (   0.66%)
   displ. norm   :     0.7610936 α      lambda       -0.1247425E-02
   maximum displ.:     0.2881423 α      in ANC's #23, #29, #13, ...

........................................................................
.............................. CYCLE   20 ..............................
........................................................................
   1   -334.7520266 -0.334752E+03  0.790E-02    0.43       0.0  T
   2   -334.7520369 -0.102049E-04  0.454E-02    0.44       1.0  T
   3   -334.7520075  0.293113E-04  0.127E-02    0.44       1.0  T
   4   -334.7520405 -0.329781E-04  0.353E-03    0.44       2.0  T
   5   -334.7520418 -0.127391E-05  0.194E-03    0.44       3.7  T
   6   -334.7520421 -0.266417E-06  0.115E-03    0.44       6.3  T
   7   -334.7520422 -0.139376E-06  0.689E-04    0.44      10.5  T
   8   -334.7520422 -0.265654E-07  0.469E-04    0.44      15.4  T
     SCC iter.                  ...        0 min,  0.287 sec
     gradient                   ...        0 min,  0.115 sec
 * total energy  :  -329.3686975 Eh     change       -0.1097414E-02 Eh
   gradient norm :     0.0114773 Eh/α   predicted    -0.9850084E-03 ( -10.24%)
   displ. norm   :     0.8021732 α      lambda       -0.1328912E-02
   maximum displ.:     0.3056563 α      in ANC's #23, #29, #13, ...
 * RMSD in coord.:     0.6952176 α      energy gain  -0.1524228E+00 Eh

generating ANC from model Hessian ...
Using Lindh-Hessian (1995)
 Shifting diagonal of input Hessian by   1.004680346965905E-002
 Lowest  eigenvalues of input Hessian
    0.010000    0.010017    0.000000    0.000000    0.000000    0.000000
    0.000000    0.000000    0.010050    0.010051    0.010058    0.010076
    0.010111    0.010124    0.010148    0.010150    0.010186    0.010204
 Highest eigenvalues
    2.274950    2.278538    2.612356    2.617184    2.649284    2.651156
 

........................................................................
.............................. CYCLE   21 ..............................
........................................................................
   1   -334.7588114 -0.334759E+03  0.802E-02    0.44       0.0  T
   2   -334.7588193 -0.785664E-05  0.460E-02    0.43       1.0  T
   3   -334.7587782  0.410781E-04  0.142E-02    0.44       1.0  T
   4   -334.7588227 -0.445366E-04  0.398E-03    0.43       1.8  T
   5   -334.7588245 -0.180387E-05  0.192E-03    0.43       3.7  T
   6   -334.7588248 -0.272453E-06  0.929E-04    0.43       7.8  T
   7   -334.7588249 -0.954420E-07  0.497E-04    0.43      14.5  T
     SCC iter.                  ...        0 min,  0.255 sec
     gradient                   ...        0 min,  0.115 sec
 * total energy  :  -329.3698845 Eh     change       -0.1186976E-02 Eh
   gradient norm :     0.0116383 Eh/α   predicted     0.0000000E+00 (-100.00%)
   displ. norm   :     0.1527071 α      lambda       -0.4202154E-03
   maximum displ.:     0.0479676 α      in ANC's #14, #15, #23, ...

........................................................................
.............................. CYCLE   22 ..............................
........................................................................
   1   -334.7569483 -0.334757E+03  0.348E-02    0.43       0.0  T
   2   -334.7569518 -0.346447E-05  0.196E-02    0.43       1.0  T
   3   -334.7569386  0.131435E-04  0.792E-03    0.43       1.0  T
   4   -334.7569540 -0.153423E-04  0.157E-03    0.43       4.6  T
   5   -334.7569542 -0.225108E-06  0.813E-04    0.43       8.9  T
   6   -334.7569542 -0.504730E-07  0.399E-04    0.43      18.0  T
     SCC iter.                  ...        0 min,  0.229 sec
     gradient                   ...        0 min,  0.115 sec
 * total energy  :  -329.3702194 Eh     change       -0.3349175E-03 Eh
   gradient norm :     0.0060540 Eh/α   predicted    -0.2150160E-03 ( -35.80%)
   displ. norm   :     0.5749880 α      lambda       -0.1270242E-02
   maximum displ.:     0.1819617 α      in ANC's #15, #10, #1, ...

........................................................................
.............................. CYCLE   23 ..............................
........................................................................
   1   -334.7505507 -0.334751E+03  0.105E-01    0.43       0.0  T
   2   -334.7505817 -0.309923E-04  0.593E-02    0.43       1.0  T
   3   -334.7504687  0.112977E-03  0.232E-02    0.42       1.0  T
   4   -334.7505988 -0.130087E-03  0.526E-03    0.43       1.4  T
   5   -334.7506018 -0.303913E-05  0.260E-03    0.43       2.8  T
   6   -334.7506024 -0.553530E-06  0.129E-03    0.43       5.6  T
   7   -334.7506025 -0.188088E-06  0.545E-04    0.43      13.2  T
   8   -334.7506026 -0.220438E-07  0.333E-04    0.43      21.6  T
     SCC iter.                  ...        0 min,  0.272 sec
     gradient                   ...        0 min,  0.115 sec
 * total energy  :  -329.3704355 Eh     change       -0.2160342E-03 Eh
   gradient norm :     0.0244639 Eh/α   predicted    -0.8450994E-03 ( 291.19%)
   displ. norm   :     0.3018096 α      lambda       -0.1407232E-02
   maximum displ.:     0.1205185 α      in ANC's #14, #15, #10, ...

........................................................................
.............................. CYCLE   24 ..............................
........................................................................
   1   -334.7536525 -0.334754E+03  0.981E-02    0.44       0.0  T
   2   -334.7536760 -0.235179E-04  0.543E-02    0.43       1.0  T
   3   -334.7536693  0.668796E-05  0.854E-03    0.43       1.0  T
   4   -334.7536850 -0.156575E-04  0.263E-03    0.43       2.7  T
   5   -334.7536854 -0.389748E-06  0.158E-03    0.43       4.5  T
   6   -334.7536857 -0.365457E-06  0.683E-04    0.43      10.5  T
   7   -334.7536858 -0.902775E-07  0.313E-04    0.43      23.0  T
     SCC iter.                  ...        0 min,  0.240 sec
     gradient                   ...        0 min,  0.117 sec
 * total energy  :  -329.3711802 Eh     change       -0.7447555E-03 Eh
   gradient norm :     0.0151355 Eh/α   predicted    -0.7677082E-03 (   3.08%)
   displ. norm   :     0.3156885 α      lambda       -0.8957798E-03
   maximum displ.:     0.0970735 α      in ANC's #15, #10, #14, ...

........................................................................
.............................. CYCLE   25 ..............................
........................................................................
   1   -334.7550020 -0.334755E+03  0.912E-02    0.44       0.0  T
   2   -334.7550213 -0.193441E-04  0.507E-02    0.44       1.0  T
   3   -334.7550031  0.182423E-04  0.110E-02    0.44       1.0  T
   4   -334.7550301 -0.270308E-04  0.240E-03    0.44       3.0  T
   5   -334.7550302 -0.103932E-06  0.160E-03    0.44       4.5  T
   6   -334.7550306 -0.382729E-06  0.662E-04    0.44      10.9  T
   7   -334.7550307 -0.882999E-07  0.293E-04    0.44      24.5  T
     SCC iter.                  ...        0 min,  0.243 sec
     gradient                   ...        0 min,  0.116 sec
 * total energy  :  -329.3715320 Eh     change       -0.3518194E-03 Eh
   gradient norm :     0.0134841 Eh/α   predicted    -0.4925264E-03 (  39.99%)
   displ. norm   :     0.4185365 α      lambda       -0.8946460E-03
   maximum displ.:     0.1340517 α      in ANC's #15, #10, #14, ...

........................................................................
.............................. CYCLE   26 ..............................
........................................................................
   1   -334.7568863 -0.334757E+03  0.641E-02    0.44       0.0  T
   2   -334.7568945 -0.822846E-05  0.360E-02    0.44       1.0  T
   3   -334.7568878  0.668426E-05  0.665E-03    0.44       1.1  T
   4   -334.7568975 -0.965231E-05  0.213E-03    0.44       3.4  T
   5   -334.7568979 -0.383768E-06  0.118E-03    0.44       6.1  T
   6   -334.7568980 -0.133875E-06  0.495E-04    0.44      14.5  T
   7   -334.7568980 -0.254278E-07  0.283E-04    0.44      25.5  T
     SCC iter.                  ...        0 min,  0.244 sec
     gradient                   ...        0 min,  0.116 sec
 * total energy  :  -329.3722171 Eh     change       -0.6850447E-03 Eh
   gradient norm :     0.0104938 Eh/α   predicted    -0.5256846E-03 ( -23.26%)
   displ. norm   :     0.6579205 α      lambda       -0.1673113E-02
   maximum displ.:     0.2070994 α      in ANC's #15, #10, #1, ...

........................................................................
.............................. CYCLE   27 ..............................
........................................................................
   1   -334.7543577 -0.334754E+03  0.142E-01    0.44       0.0  T
   2   -334.7543998 -0.420641E-04  0.789E-02    0.44       1.0  T
   3   -334.7543785  0.213428E-04  0.139E-02    0.44       1.0  T
   4   -334.7544174 -0.388907E-04  0.403E-03    0.44       1.8  T
   5   -334.7544179 -0.524276E-06  0.246E-03    0.44       2.9  T
   6   -334.7544185 -0.647395E-06  0.105E-03    0.44       6.9  T
   7   -334.7544187 -0.201630E-06  0.539E-04    0.44      13.4  T
   8   -334.7544187 -0.195915E-07  0.365E-04    0.44      19.7  T
     SCC iter.                  ...        0 min,  0.282 sec
     gradient                   ...        0 min,  0.116 sec
 * total energy  :  -329.3726577 Eh     change       -0.4405840E-03 Eh
   gradient norm :     0.0142997 Eh/α   predicted    -0.1198669E-02 ( 172.06%)
   displ. norm   :     0.5029477 α      lambda       -0.1463401E-02
   maximum displ.:     0.1560968 α      in ANC's #15, #10, #14, ...

........................................................................
.............................. CYCLE   28 ..............................
........................................................................
   1   -334.7544350 -0.334754E+03  0.877E-02    0.45       0.0  T
   2   -334.7544496 -0.145448E-04  0.490E-02    0.44       1.0  T
   3   -334.7544300  0.195266E-04  0.100E-02    0.45       1.0  T
   4   -334.7544560 -0.259859E-04  0.269E-03    0.44       2.7  T
   5   -334.7544565 -0.432669E-06  0.169E-03    0.44       4.3  T
   6   -334.7544568 -0.368918E-06  0.773E-04    0.44       9.3  T
   7   -334.7544569 -0.997551E-07  0.366E-04    0.44      19.7  T
     SCC iter.                  ...        0 min,  0.247 sec
     gradient                   ...        0 min,  0.115 sec
 * total energy  :  -329.3737119 Eh     change       -0.1054208E-02 Eh
   gradient norm :     0.0091023 Eh/α   predicted    -0.9167880E-03 ( -13.04%)
   displ. norm   :     0.7359926 α      lambda       -0.1010354E-02
   maximum displ.:     0.2348350 α      in ANC's #15, #10, #9, ...

........................................................................
.............................. CYCLE   29 ..............................
........................................................................
   1   -334.7538436 -0.334754E+03  0.733E-02    0.44       0.0  T
   2   -334.7538516 -0.808571E-05  0.419E-02    0.44       1.0  T
   3   -334.7538174  0.341914E-04  0.124E-02    0.45       1.0  T
   4   -334.7538562 -0.387323E-04  0.293E-03    0.44       2.5  T
   5   -334.7538568 -0.655445E-06  0.184E-03    0.44       3.9  T
   6   -334.7538572 -0.413992E-06  0.884E-04    0.44       8.1  T
   7   -334.7538574 -0.125428E-06  0.436E-04    0.44      16.5  T
     SCC iter.                  ...        0 min,  0.246 sec
     gradient                   ...        0 min,  0.116 sec
 * total energy  :  -329.3745870 Eh     change       -0.8751491E-03 Eh
   gradient norm :     0.0079446 Eh/α   predicted    -0.7788253E-03 ( -11.01%)
   displ. norm   :     0.8127938 α      lambda       -0.1149399E-02
   maximum displ.:     0.2654896 α      in ANC's #10, #15, #9, ...

........................................................................
.............................. CYCLE   30 ..............................
........................................................................
   1   -334.7552804 -0.334755E+03  0.912E-02    0.44       0.0  T
   2   -334.7552954 -0.150039E-04  0.516E-02    0.44       1.0  T
   3   -334.7552175  0.779218E-04  0.175E-02    0.45       1.0  T
   4   -334.7553050 -0.875205E-04  0.380E-03    0.44       1.9  T
   5   -334.7553065 -0.146558E-05  0.239E-03    0.44       3.0  T
   6   -334.7553072 -0.761150E-06  0.112E-03    0.44       6.4  T
   7   -334.7553074 -0.168082E-06  0.556E-04    0.44      12.9  T
   8   -334.7553074 -0.193510E-07  0.367E-04    0.44      19.6  T
     SCC iter.                  ...        0 min,  0.281 sec
     gradient                   ...        0 min,  0.116 sec
 * total energy  :  -329.3755405 Eh     change       -0.9535156E-03 Eh
   gradient norm :     0.0099944 Eh/α   predicted    -0.9543700E-03 (   0.09%)
   displ. norm   :     0.8136442 α      lambda       -0.1114894E-02
   maximum displ.:     0.2718200 α      in ANC's #10, #15, #9, ...

........................................................................
.............................. CYCLE   31 ..............................
........................................................................
   1   -334.7611495 -0.334761E+03  0.764E-02    0.44       0.0  T
   2   -334.7611585 -0.898322E-05  0.437E-02    0.44       1.0  T
   3   -334.7610931  0.654086E-04  0.157E-02    0.45       1.0  T
   4   -334.7611643 -0.711639E-04  0.376E-03    0.44       1.9  T
   5   -334.7611664 -0.208781E-05  0.218E-03    0.44       3.3  T
   6   -334.7611670 -0.600315E-06  0.108E-03    0.44       6.6  T
   7   -334.7611671 -0.131711E-06  0.580E-04    0.44      12.4  T
   8   -334.7611671 -0.148485E-07  0.405E-04    0.44      17.8  T
     SCC iter.                  ...        0 min,  0.282 sec
     gradient                   ...        0 min,  0.117 sec
 * total energy  :  -329.3765440 Eh     change       -0.1003468E-02 Eh
   gradient norm :     0.0082547 Eh/α   predicted    -0.9264885E-03 (  -7.67%)
   displ. norm   :     0.8726659 α      lambda       -0.1098807E-02
   maximum displ.:     0.2942133 α      in ANC's #10, #15, #9, ...

........................................................................
.............................. CYCLE   32 ..............................
........................................................................
   1   -334.7606046 -0.334761E+03  0.763E-02    0.44       0.0  T
   2   -334.7606134 -0.887695E-05  0.438E-02    0.44       1.0  T
   3   -334.7605544  0.590601E-04  0.156E-02    0.45       1.0  T
   4   -334.7606195 -0.651612E-04  0.360E-03    0.45       2.0  T
   5   -334.7606210 -0.149442E-05  0.213E-03    0.45       3.4  T
   6   -334.7606216 -0.555538E-06  0.108E-03    0.45       6.7  T
   7   -334.7606217 -0.144605E-06  0.626E-04    0.45      11.5  T
   8   -334.7606218 -0.240754E-07  0.425E-04    0.45      17.0  T
     SCC iter.                  ...        0 min,  0.282 sec
     gradient                   ...        0 min,  0.116 sec
 * total energy  :  -329.3775661 Eh     change       -0.1022068E-02 Eh
   gradient norm :     0.0052736 Eh/α   predicted    -0.9677995E-03 (  -5.31%)
   displ. norm   :     0.8848748 α      lambda       -0.1077145E-02
   maximum displ.:     0.3084455 α      in ANC's #10, #9, #13, ...

........................................................................
.............................. CYCLE   33 ..............................
........................................................................
   1   -334.7647648 -0.334765E+03  0.797E-02    0.44       0.0  T
   2   -334.7647765 -0.116309E-04  0.455E-02    0.45       1.0  T
   3   -334.7646995  0.769076E-04  0.173E-02    0.45       1.0  T
   4   -334.7647841 -0.845339E-04  0.412E-03    0.45       1.7  T
   5   -334.7647868 -0.271338E-05  0.226E-03    0.45       3.2  T
   6   -334.7647873 -0.555796E-06  0.120E-03    0.45       6.0  T
   7   -334.7647875 -0.166763E-06  0.693E-04    0.45      10.4  T
   8   -334.7647875 -0.342146E-07  0.459E-04    0.45      15.7  T
     SCC iter.                  ...        0 min,  0.282 sec
     gradient                   ...        0 min,  0.116 sec
 * total energy  :  -329.3785718 Eh     change       -0.1005738E-02 Eh
   gradient norm :     0.0048257 Eh/α   predicted    -0.9602801E-03 (  -4.52%)
   displ. norm   :     0.9202839 α      lambda       -0.1058912E-02
   maximum displ.:     0.3213010 α      in ANC's #10, #9, #13, ...

........................................................................
.............................. CYCLE   34 ..............................
........................................................................
   1   -334.7626641 -0.334763E+03  0.778E-02    0.45       0.0  T
   2   -334.7626744 -0.103191E-04  0.446E-02    0.45       1.0  T
   3   -334.7625970  0.774713E-04  0.174E-02    0.45       1.0  T
   4   -334.7626817 -0.847638E-04  0.408E-03    0.45       1.8  T
   5   -334.7626846 -0.286438E-05  0.218E-03    0.45       3.3  T
   6   -334.7626851 -0.468446E-06  0.118E-03    0.45       6.1  T
   7   -334.7626852 -0.169064E-06  0.679E-04    0.45      10.6  T
   8   -334.7626853 -0.293340E-07  0.463E-04    0.45      15.5  T
     SCC iter.                  ...        0 min,  0.281 sec
     gradient                   ...        0 min,  0.115 sec
 * total energy  :  -329.3795878 Eh     change       -0.1015937E-02 Eh
   gradient norm :     0.0053563 Eh/α   predicted    -0.9778672E-03 (  -3.75%)
   displ. norm   :     0.8978059 α      lambda       -0.1119302E-02
   maximum displ.:     0.3262995 α      in ANC's #10, #9, #13, ...

........................................................................
.............................. CYCLE   35 ..............................
........................................................................
   1   -334.7734755 -0.334773E+03  0.803E-02    0.45       0.0  T
   2   -334.7734888 -0.132977E-04  0.461E-02    0.45       1.0  T
   3   -334.7733543  0.134502E-03  0.227E-02    0.45       1.0  T
   4   -334.7734994 -0.145098E-03  0.526E-03    0.45       1.4  T
   5   -334.7735059 -0.651918E-05  0.230E-03    0.45       3.1  T
   6   -334.7735063 -0.419218E-06  0.138E-03    0.45       5.2  T
   7   -334.7735066 -0.210727E-06  0.751E-04    0.45       9.6  T
   8   -334.7735066 -0.440090E-07  0.497E-04    0.45      14.5  T
     SCC iter.                  ...        0 min,  0.282 sec
     gradient                   ...        0 min,  0.116 sec
 * total energy  :  -329.3805972 Eh     change       -0.1009499E-02 Eh
   gradient norm :     0.0079487 Eh/α   predicted    -0.1010760E-02 (   0.12%)
   displ. norm   :     0.9289432 α      lambda       -0.1092766E-02
   maximum displ.:     0.3302938 α      in ANC's #10, #9, #13, ...

........................................................................
.............................. CYCLE   36 ..............................
........................................................................
   1   -334.7625394 -0.334763E+03  0.876E-02    0.45       0.0  T
   2   -334.7625546 -0.151463E-04  0.502E-02    0.45       1.0  T
   3   -334.7624163  0.138260E-03  0.242E-02    0.45       1.0  T
   4   -334.7625711 -0.154774E-03  0.449E-03    0.45       1.6  T
   5   -334.7625742 -0.306449E-05  0.236E-03    0.45       3.1  T
   6   -334.7625745 -0.326509E-06  0.130E-03    0.45       5.5  T
   7   -334.7625747 -0.238283E-06  0.726E-04    0.45       9.9  T
   8   -334.7625748 -0.392285E-07  0.491E-04    0.45      14.7  T
     SCC iter.                  ...        0 min,  0.282 sec
     gradient                   ...        0 min,  0.116 sec
 * total energy  :  -329.3815754 Eh     change       -0.9781130E-03 Eh
   gradient norm :     0.0121122 Eh/α   predicted    -0.1017878E-02 (   4.07%)
   displ. norm   :     0.8834739 α      lambda       -0.1033628E-02
   maximum displ.:     0.3225589 α      in ANC's #10, #9, #13, ...

........................................................................
.............................. CYCLE   37 ..............................
........................................................................
   1   -334.7587760 -0.334759E+03  0.777E-02    0.45       0.0  T
   2   -334.7587842 -0.823517E-05  0.448E-02    0.45       1.0  T
   3   -334.7586180  0.166237E-03  0.243E-02    0.45       1.0  T
   4   -334.7587971 -0.179105E-03  0.488E-03    0.45       1.5  T
   5   -334.7588026 -0.550606E-05  0.213E-03    0.45       3.4  T
   6   -334.7588029 -0.244063E-06  0.128E-03    0.45       5.6  T
   7   -334.7588031 -0.192047E-06  0.663E-04    0.45      10.8  T
   8   -334.7588031 -0.233674E-07  0.472E-04    0.45      15.2  T
     SCC iter.                  ...        0 min,  0.287 sec
     gradient                   ...        0 min,  0.116 sec
 * total energy  :  -329.3825101 Eh     change       -0.9347087E-03 Eh
   gradient norm :     0.0077721 Eh/α   predicted    -0.9202011E-03 (  -1.55%)
   displ. norm   :     0.8608808 α      lambda       -0.1030661E-02
   maximum displ.:     0.3213951 α      in ANC's #10, #9, #13, ...

........................................................................
.............................. CYCLE   38 ..............................
........................................................................
   1   -334.7632253 -0.334763E+03  0.797E-02    0.45       0.0  T
   2   -334.7632338 -0.850197E-05  0.464E-02    0.45       1.0  T
   3   -334.7629576  0.276181E-03  0.316E-02    0.45       1.0  T
   4   -334.7632623 -0.304620E-03  0.573E-03    0.45       1.3  T
   5   -334.7632698 -0.755900E-05  0.235E-03    0.45       3.1  T
   6   -334.7632702 -0.378797E-06  0.146E-03    0.45       4.9  T
   7   -334.7632704 -0.250753E-06  0.684E-04    0.45      10.5  T
   8   -334.7632705 -0.331422E-07  0.458E-04    0.45      15.7  T
     SCC iter.                  ...        0 min,  0.283 sec
     gradient                   ...        0 min,  0.115 sec
 * total energy  :  -329.3834515 Eh     change       -0.9414387E-03 Eh
   gradient norm :     0.0059357 Eh/α   predicted    -0.8972509E-03 (  -4.69%)
   displ. norm   :     0.9024524 α      lambda       -0.9758789E-03
   maximum displ.:     0.3392404 α      in ANC's #10, #9, #13, ...

........................................................................
.............................. CYCLE   39 ..............................
........................................................................
   1   -334.7642809 -0.334764E+03  0.854E-02    0.44       0.0  T
   2   -334.7642902 -0.929932E-05  0.493E-02    0.44       1.0  T
   3   -334.7640233  0.266881E-03  0.308E-02    0.45       1.0  T
   4   -334.7643154 -0.292094E-03  0.575E-03    0.44       1.3  T
   5   -334.7643227 -0.732136E-05  0.241E-03    0.44       3.0  T
   6   -334.7643230 -0.235526E-06  0.145E-03    0.44       5.0  T
   7   -334.7643232 -0.269338E-06  0.692E-04    0.44      10.4  T
   8   -334.7643233 -0.254011E-07  0.491E-04    0.44      14.7  T
     SCC iter.                  ...        0 min,  0.281 sec
     gradient                   ...        0 min,  0.116 sec
 * total energy  :  -329.3843626 Eh     change       -0.9110848E-03 Eh
   gradient norm :     0.0072446 Eh/α   predicted    -0.8853565E-03 (  -2.82%)
   displ. norm   :     0.8772736 α      lambda       -0.9797418E-03
   maximum displ.:     0.3364475 α      in ANC's #10, #9, #13, ...

........................................................................
.............................. CYCLE   40 ..............................
........................................................................
   1   -334.7732340 -0.334773E+03  0.760E-02    0.45       0.0  T
   2   -334.7732429 -0.888133E-05  0.451E-02    0.44       1.0  T
   3   -334.7729282  0.314715E-03  0.349E-02    0.45       1.0  T
   4   -334.7732876 -0.359390E-03  0.644E-03    0.44       1.1  T
   5   -334.7732970 -0.943486E-05  0.254E-03    0.44       2.8  T
   6   -334.7732977 -0.678599E-06  0.146E-03    0.44       4.9  T
   7   -334.7732979 -0.208909E-06  0.743E-04    0.44       9.7  T
   8   -334.7732979 -0.406143E-07  0.492E-04    0.44      14.6  T
     SCC iter.                  ...        0 min,  0.284 sec
     gradient                   ...        0 min,  0.115 sec
 * total energy  :  -329.3852197 Eh     change       -0.8571242E-03 Eh
   gradient norm :     0.0078444 Eh/α   predicted    -0.8668842E-03 (   1.14%)
   displ. norm   :     0.9181464 α      lambda       -0.9236168E-03
   maximum displ.:     0.3480365 α      in ANC's #10, #9, #13, ...

........................................................................
.............................. CYCLE   41 ..............................
........................................................................
   1   -334.7650147 -0.334765E+03  0.835E-02    0.44       0.0  T
   2   -334.7650285 -0.137870E-04  0.481E-02    0.44       1.0  T
   3   -334.7648917  0.136766E-03  0.232E-02    0.44       1.0  T
   4   -334.7650416 -0.149801E-03  0.510E-03    0.44       1.4  T
   5   -334.7650471 -0.555937E-05  0.248E-03    0.44       2.9  T
   6   -334.7650475 -0.427988E-06  0.141E-03    0.44       5.1  T
   7   -334.7650478 -0.250003E-06  0.736E-04    0.44       9.8  T
   8   -334.7650478 -0.196650E-07  0.538E-04    0.44      13.4  T
     SCC iter.                  ...        0 min,  0.282 sec
     gradient                   ...        0 min,  0.116 sec
 * total energy  :  -329.3860478 Eh     change       -0.8280622E-03 Eh
   gradient norm :     0.0082425 Eh/α   predicted    -0.8511142E-03 (   2.78%)
   displ. norm   :     0.8514782 α      lambda       -0.8602293E-03
   maximum displ.:     0.3315333 α      in ANC's #10, #9, #13, ...

........................................................................
.............................. CYCLE   42 ..............................
........................................................................
   1   -334.7670629 -0.334767E+03  0.795E-02    0.44       0.0  T
   2   -334.7670745 -0.116666E-04  0.459E-02    0.44       1.0  T
   3   -334.7668435  0.231018E-03  0.285E-02    0.44       1.0  T
   4   -334.7670964 -0.252927E-03  0.525E-03    0.44       1.4  T
   5   -334.7671021 -0.562204E-05  0.241E-03    0.44       3.0  T
   6   -334.7671026 -0.526714E-06  0.132E-03    0.44       5.5  T
   7   -334.7671028 -0.188959E-06  0.653E-04    0.44      11.0  T
   8   -334.7671028 -0.340979E-07  0.430E-04    0.44      16.8  T
     SCC iter.                  ...        0 min,  0.283 sec
     gradient                   ...        0 min,  0.115 sec
 * total energy  :  -329.3867780 Eh     change       -0.7302545E-03 Eh
   gradient norm :     0.0157083 Eh/α   predicted    -0.7419568E-03 (   1.60%)
   displ. norm   :     0.8347237 α      lambda       -0.8743026E-03
   maximum displ.:     0.3254677 α      in ANC's #10, #9, #13, ...
 * RMSD in coord.:     1.0963526 α      energy gain  -0.1808050E-01 Eh

generating ANC from model Hessian ...
Using Lindh-Hessian (1995)
 Shifting diagonal of input Hessian by   1.000099018332754E-002
 Lowest  eigenvalues of input Hessian
    0.010000    0.000000    0.000000    0.000000    0.000000    0.000000
    0.000000    0.010002    0.010005    0.010016    0.010026    0.010062
    0.010073    0.010086    0.010103    0.010122    0.010145    0.010205
 Highest eigenvalues
    2.272316    2.278696    2.605237    2.616984    2.643561    2.651122
 

........................................................................
.............................. CYCLE   43 ..............................
........................................................................
   1   -334.7692192 -0.334769E+03  0.684E-02    0.44       0.0  T
   2   -334.7692274 -0.823207E-05  0.397E-02    0.44       1.0  T
   3   -334.7691328  0.946330E-04  0.193E-02    0.45       1.0  T
   4   -334.7692362 -0.103358E-03  0.389E-03    0.44       1.9  T
   5   -334.7692391 -0.296698E-05  0.207E-03    0.44       3.5  T
   6   -334.7692396 -0.502353E-06  0.114E-03    0.44       6.3  T
   7   -334.7692398 -0.150584E-06  0.625E-04    0.44      11.5  T
   8   -334.7692398 -0.183767E-07  0.436E-04    0.44      16.5  T
     SCC iter.                  ...        0 min,  0.283 sec
     gradient                   ...        0 min,  0.116 sec
 * total energy  :  -329.3874904 Eh     change       -0.7123851E-03 Eh
   gradient norm :     0.0081055 Eh/α   predicted     0.0000000E+00 (-100.00%)
   displ. norm   :     0.1080189 α      lambda       -0.2140751E-03
   maximum displ.:     0.0497524 α      in ANC's #10, #2, #5, ...

........................................................................
.............................. CYCLE   44 ..............................
........................................................................
   1   -334.7708816 -0.334771E+03  0.410E-02    0.44       0.0  T
   2   -334.7708869 -0.528382E-05  0.228E-02    0.44       1.0  T
   3   -334.7708789  0.798305E-05  0.634E-03    0.44       1.1  T
   4   -334.7708891 -0.101709E-04  0.161E-03    0.44       4.5  T
   5   -334.7708894 -0.324814E-06  0.834E-04    0.44       8.6  T
   6   -334.7708895 -0.330139E-07  0.481E-04    0.44      15.0  T
     SCC iter.                  ...        0 min,  0.214 sec
     gradient                   ...        0 min,  0.115 sec
 * total energy  :  -329.3876109 Eh     change       -0.1204601E-03 Eh
   gradient norm :     0.0047517 Eh/α   predicted    -0.1082879E-03 ( -10.10%)
   displ. norm   :     0.2688935 α      lambda       -0.4120282E-03
   maximum displ.:     0.1279621 α      in ANC's #10, #2, #12, ...

........................................................................
.............................. CYCLE   45 ..............................
........................................................................
   1   -334.7758597 -0.334776E+03  0.444E-02    0.44       0.0  T
   2   -334.7758698 -0.101118E-04  0.255E-02    0.44       1.0  T
   3   -334.7758433  0.264939E-04  0.116E-02    0.45       1.0  T
   4   -334.7758742 -0.309222E-04  0.305E-03    0.44       2.4  T
   5   -334.7758756 -0.141131E-05  0.142E-03    0.44       5.1  T
   6   -334.7758757 -0.101187E-06  0.917E-04    0.44       7.8  T
   7   -334.7758758 -0.595339E-07  0.580E-04    0.44      12.4  T
     SCC iter.                  ...        0 min,  0.243 sec
     gradient                   ...        0 min,  0.115 sec
 * total energy  :  -329.3878130 Eh     change       -0.2021526E-03 Eh
   gradient norm :     0.0120430 Eh/α   predicted    -0.2209096E-03 (   9.28%)
   displ. norm   :     0.2693875 α      lambda       -0.3449335E-03
   maximum displ.:     0.1296616 α      in ANC's #10, #2, #5, ...

........................................................................
.............................. CYCLE   46 ..............................
........................................................................
   1   -334.7774046 -0.334777E+03  0.456E-02    0.44       0.0  T
   2   -334.7774097 -0.514443E-05  0.255E-02    0.44       1.0  T
   3   -334.7773962  0.135049E-04  0.780E-03    0.44       1.0  T
   4   -334.7774119 -0.156482E-04  0.214E-03    0.44       3.4  T
   5   -334.7774125 -0.627406E-06  0.125E-03    0.44       5.7  T
   6   -334.7774127 -0.173245E-06  0.662E-04    0.44      10.9  T
   7   -334.7774127 -0.389771E-07  0.399E-04    0.44      18.0  T
     SCC iter.                  ...        0 min,  0.243 sec
     gradient                   ...        0 min,  0.116 sec
 * total energy  :  -329.3880450 Eh     change       -0.2320160E-03 Eh
   gradient norm :     0.0117328 Eh/α   predicted    -0.1849828E-03 ( -20.27%)
   displ. norm   :     0.4642717 α      lambda       -0.5770072E-03
   maximum displ.:     0.2230612 α      in ANC's #10, #2, #12, ...

........................................................................
.............................. CYCLE   47 ..............................
........................................................................
   1   -334.7764608 -0.334776E+03  0.523E-02    0.44       0.0  T
   2   -334.7764671 -0.631531E-05  0.301E-02    0.44       1.0  T
   3   -334.7764103  0.567857E-04  0.149E-02    0.44       1.0  T
   4   -334.7764714 -0.610935E-04  0.335E-03    0.44       2.1  T
   5   -334.7764733 -0.188179E-05  0.187E-03    0.44       3.9  T
   6   -334.7764736 -0.328748E-06  0.111E-03    0.44       6.5  T
   7   -334.7764737 -0.832314E-07  0.682E-04    0.44      10.6  T
   8   -334.7764737 -0.197856E-07  0.471E-04    0.44      15.3  T
     SCC iter.                  ...        0 min,  0.274 sec
     gradient                   ...        0 min,  0.116 sec
 * total energy  :  -329.3884408 Eh     change       -0.3957558E-03 Eh
   gradient norm :     0.0101767 Eh/α   predicted    -0.3506968E-03 ( -11.39%)
   displ. norm   :     0.5663980 α      lambda       -0.5865081E-03
   maximum displ.:     0.2743347 α      in ANC's #10, #2, #5, ...

........................................................................
.............................. CYCLE   48 ..............................
........................................................................
   1   -334.7705300 -0.334771E+03  0.770E-02    0.44       0.0  T
   2   -334.7705436 -0.135923E-04  0.433E-02    0.43       1.0  T
   3   -334.7705092  0.344035E-04  0.122E-02    0.44       1.0  T
   4   -334.7705487 -0.394960E-04  0.333E-03    0.44       2.2  T
   5   -334.7705504 -0.170631E-05  0.178E-03    0.44       4.0  T
   6   -334.7705507 -0.340466E-06  0.982E-04    0.44       7.3  T
   7   -334.7705509 -0.162883E-06  0.469E-04    0.44      15.3  T
     SCC iter.                  ...        0 min,  0.267 sec
     gradient                   ...        0 min,  0.116 sec
 * total energy  :  -329.3887992 Eh     change       -0.3584282E-03 Eh
   gradient norm :     0.0124883 Eh/α   predicted    -0.3873315E-03 (   8.06%)
   displ. norm   :     0.5544611 α      lambda       -0.6059047E-03
   maximum displ.:     0.2729537 α      in ANC's #10, #2, #5, ...

........................................................................
.............................. CYCLE   49 ..............................
........................................................................
   1   -334.7679781 -0.334768E+03  0.538E-02    0.43       0.0  T
   2   -334.7679819 -0.371967E-05  0.309E-02    0.43       1.0  T
   3   -334.7679649  0.170075E-04  0.942E-03    0.44       1.0  T
   4   -334.7679841 -0.192932E-04  0.260E-03    0.43       2.8  T
   5   -334.7679845 -0.307748E-06  0.164E-03    0.43       4.4  T
   6   -334.7679846 -0.116137E-06  0.107E-03    0.43       6.7  T
   7   -334.7679847 -0.943616E-07  0.722E-04    0.43      10.0  T
   8   -334.7679847 -0.185347E-07  0.509E-04    0.43      14.1  T
     SCC iter.                  ...        0 min,  0.293 sec
     gradient                   ...        0 min,  0.116 sec
 * total energy  :  -329.3892705 Eh     change       -0.4713166E-03 Eh
   gradient norm :     0.0096703 Eh/α   predicted    -0.3960926E-03 ( -15.96%)
   displ. norm   :     0.6130586 α      lambda       -0.6017983E-03
   maximum displ.:     0.3098224 α      in ANC's #10, #2, #5, ...

........................................................................
.............................. CYCLE   50 ..............................
........................................................................
   1   -334.7715752 -0.334772E+03  0.518E-02    0.43       0.0  T
   2   -334.7715784 -0.314077E-05  0.301E-02    0.43       1.0  T
   3   -334.7715318  0.465318E-04  0.127E-02    0.43       1.0  T
   4   -334.7715816 -0.497961E-04  0.275E-03    0.43       2.6  T
   5   -334.7715827 -0.110203E-05  0.155E-03    0.43       4.6  T
   6   -334.7715830 -0.253030E-06  0.856E-04    0.43       8.4  T
   7   -334.7715831 -0.890063E-07  0.502E-04    0.43      14.3  T
     SCC iter.                  ...        0 min,  0.259 sec
     gradient                   ...        0 min,  0.116 sec
 * total energy  :  -329.3897848 Eh     change       -0.5142901E-03 Eh
   gradient norm :     0.0067879 Eh/α   predicted    -0.4139863E-03 ( -19.50%)
   displ. norm   :     0.7115159 α      lambda       -0.6257776E-03
   maximum displ.:     0.3667816 α      in ANC's #10, #2, #5, ...

........................................................................
.............................. CYCLE   51 ..............................
........................................................................
   1   -334.7769234 -0.334777E+03  0.616E-02    0.43       0.0  T
   2   -334.7769273 -0.386261E-05  0.357E-02    0.43       1.0  T
   3   -334.7768331  0.941986E-04  0.176E-02    0.44       1.0  T
   4   -334.7769344 -0.101291E-03  0.318E-03    0.43       2.3  T
   5   -334.7769357 -0.134162E-05  0.180E-03    0.43       4.0  T
   6   -334.7769360 -0.315276E-06  0.933E-04    0.43       7.7  T
   7   -334.7769361 -0.934562E-07  0.539E-04    0.43      13.4  T
     SCC iter.                  ...        0 min,  0.256 sec
     gradient                   ...        0 min,  0.116 sec
 * total energy  :  -329.3903404 Eh     change       -0.5555370E-03 Eh
   gradient norm :     0.0058756 Eh/α   predicted    -0.4712895E-03 ( -15.17%)
   displ. norm   :     0.7759058 α      lambda       -0.6291607E-03
   maximum displ.:     0.4055871 α      in ANC's #10, #2, #5, ...

........................................................................
.............................. CYCLE   52 ..............................
........................................................................
   1   -334.7783354 -0.334778E+03  0.683E-02    0.43       0.0  T
   2   -334.7783411 -0.570324E-05  0.393E-02    0.43       1.0  T
   3   -334.7782900  0.511227E-04  0.139E-02    0.43       1.0  T
   4   -334.7783453 -0.552909E-04  0.316E-03    0.43       2.3  T
   5   -334.7783465 -0.121227E-05  0.198E-03    0.43       3.6  T
   6   -334.7783471 -0.534188E-06  0.875E-04    0.43       8.2  T
   7   -334.7783471 -0.634282E-07  0.556E-04    0.43      12.9  T
     SCC iter.                  ...        0 min,  0.251 sec
     gradient                   ...        0 min,  0.116 sec
 * total energy  :  -329.3909112 Eh     change       -0.5708368E-03 Eh
   gradient norm :     0.0068930 Eh/α   predicted    -0.5039658E-03 ( -11.71%)
   displ. norm   :     0.7888376 α      lambda       -0.6326910E-03
   maximum displ.:     0.4207409 α      in ANC's #10, #2, #5, ...

........................................................................
.............................. CYCLE   53 ..............................
........................................................................
   1   -334.7778039 -0.334778E+03  0.703E-02    0.43       0.0  T
   2   -334.7778102 -0.632329E-05  0.404E-02    0.43       1.0  T
   3   -334.7777739  0.363014E-04  0.123E-02    0.43       1.0  T
   4   -334.7778136 -0.397317E-04  0.307E-03    0.43       2.3  T
   5   -334.7778147 -0.109643E-05  0.195E-03    0.43       3.7  T
   6   -334.7778153 -0.563205E-06  0.867E-04    0.43       8.3  T
   7   -334.7778153 -0.672254E-07  0.552E-04    0.43      13.0  T
     SCC iter.                  ...        0 min,  0.248 sec
     gradient                   ...        0 min,  0.117 sec
 * total energy  :  -329.3914674 Eh     change       -0.5561797E-03 Eh
   gradient norm :     0.0060150 Eh/α   predicted    -0.5131959E-03 (  -7.73%)
   displ. norm   :     0.7879609 α      lambda       -0.6066462E-03
   maximum displ.:     0.4265598 α      in ANC's #10, #2, #5, ...

........................................................................
.............................. CYCLE   54 ..............................
........................................................................
   1   -334.7777350 -0.334778E+03  0.675E-02    0.43       0.0  T
   2   -334.7777408 -0.581324E-05  0.388E-02    0.43       1.0  T
   3   -334.7777172  0.236098E-04  0.106E-02    0.43       1.0  T
   4   -334.7777434 -0.261369E-04  0.308E-03    0.43       2.3  T
   5   -334.7777444 -0.103399E-05  0.171E-03    0.43       4.2  T
   6   -334.7777447 -0.318403E-06  0.790E-04    0.43       9.1  T
   7   -334.7777448 -0.481170E-07  0.555E-04    0.43      13.0  T
     SCC iter.                  ...        0 min,  0.254 sec
     gradient                   ...        0 min,  0.115 sec
 * total energy  :  -329.3919953 Eh     change       -0.5279371E-03 Eh
   gradient norm :     0.0054223 Eh/α   predicted    -0.4916497E-03 (  -6.87%)
   displ. norm   :     0.7780996 α      lambda       -0.5455958E-03
   maximum displ.:     0.4240717 α      in ANC's #10, #2, #5, ...

........................................................................
.............................. CYCLE   55 ..............................
........................................................................
   1   -334.7738134 -0.334774E+03  0.641E-02    0.43       0.0  T
   2   -334.7738184 -0.498044E-05  0.369E-02    0.43       1.0  T
   3   -334.7737835  0.348548E-04  0.121E-02    0.43       1.0  T
   4   -334.7738211 -0.376142E-04  0.310E-03    0.43       2.3  T
   5   -334.7738224 -0.127061E-05  0.162E-03    0.43       4.4  T
   6   -334.7738226 -0.256004E-06  0.771E-04    0.43       9.3  T
   7   -334.7738227 -0.555635E-07  0.506E-04    0.43      14.2  T
     SCC iter.                  ...        0 min,  0.250 sec
     gradient                   ...        0 min,  0.116 sec
 * total energy  :  -329.3924912 Eh     change       -0.4958533E-03 Eh
   gradient norm :     0.0050912 Eh/α   predicted    -0.4379661E-03 ( -11.67%)
   displ. norm   :     0.7652540 α      lambda       -0.5645514E-03
   maximum displ.:     0.4257502 α      in ANC's #10, #2, #5, ...

........................................................................
.............................. CYCLE   56 ..............................
........................................................................
   1   -334.7771295 -0.334777E+03  0.571E-02    0.43       0.0  T
   2   -334.7771324 -0.286209E-05  0.331E-02    0.44       1.0  T
   3   -334.7770891  0.432677E-04  0.125E-02    0.43       1.0  T
   4   -334.7771343 -0.452544E-04  0.312E-03    0.44       2.3  T
   5   -334.7771361 -0.175892E-05  0.153E-03    0.43       4.7  T
   6   -334.7771363 -0.234718E-06  0.736E-04    0.43       9.8  T
   7   -334.7771364 -0.400095E-07  0.459E-04    0.43      15.7  T
     SCC iter.                  ...        0 min,  0.248 sec
     gradient                   ...        0 min,  0.115 sec
 * total energy  :  -329.3929871 Eh     change       -0.4959431E-03 Eh
   gradient norm :     0.0072975 Eh/α   predicted    -0.4475835E-03 (  -9.75%)
   displ. norm   :     0.7964258 α      lambda       -0.5690033E-03
   maximum displ.:     0.4404873 α      in ANC's #10, #2, #5, ...

........................................................................
.............................. CYCLE   57 ..............................
........................................................................
   1   -334.7749045 -0.334775E+03  0.647E-02    0.43       0.0  T
   2   -334.7749095 -0.503012E-05  0.370E-02    0.43       1.0  T
   3   -334.7748674  0.421085E-04  0.126E-02    0.43       1.0  T
   4   -334.7749125 -0.450911E-04  0.313E-03    0.43       2.3  T
   5   -334.7749138 -0.126547E-05  0.173E-03    0.43       4.2  T
   6   -334.7749141 -0.304523E-06  0.811E-04    0.43       8.9  T
[...]
   133   1 H    0.997 --    26 C    0.985
   134   1 H    0.996 --    26 C    0.971
   135   1 H    0.998 --    27 C    0.969
   136   1 H    0.998 --    28 C    0.967
   137   1 H    0.999 --    30 C    0.968
   138   1 H    0.998 --    31 C    0.968
   139   1 H    0.997 --    33 C    0.978
   140   1 H    0.996 --    33 C    0.966
   141   1 H    0.998 --    33 C    0.984
   142   1 H    0.997 --    34 C    0.968
   143   1 H    0.997 --    35 C    0.966
   144   1 H    0.999 --    42 C    0.968
   145   1 H    0.998 --    43 C    0.968
   146   1 H    0.996 --    45 C    0.969
   147   1 H    0.998 --    45 C    0.986
   148   1 H    0.997 --    45 C    0.974
   149   1 H    0.998 --    46 C    0.970
   150   1 H    0.999 --    47 C    0.968
   151   1 H    0.999 --    49 C    0.964
   152   1 H    0.998 --    50 C    0.969
   153   1 H    0.997 --    52 C    0.978
   154   1 H    0.998 --    52 C    0.985
   155   1 H    0.996 --    52 C    0.969
   156   1 H    0.999 --    53 C    0.969
   157   1 H    0.999 --    54 C    0.968
   158   1 H    0.998 --    60 C    0.969
   159   1 H    0.998 --    61 C    0.970
   160   1 H    0.999 --    62 C    0.969
   161   1 H    0.998 --    64 C    0.977
   162   1 H    0.998 --    64 C    0.970
   163   1 H    0.999 --    65 C    0.985
   164   1 H    0.999 --    65 C    0.987
   165   1 H    0.998 --    65 C    0.986
   166   1 H    0.999 --    66 C    0.963
   167   1 H    0.998 --    82 C    0.967
   168   1 H    0.998 --    83 C    0.970
   169   1 H    0.998 --    84 C    0.969
   170   1 H    0.998 --    86 C    0.972
   171   1 H    0.998 --    86 C    0.976
   172   1 H    0.999 --    87 C    0.989
   173   1 H    0.997 --    87 C    0.985
   174   1 H    0.999 --    87 C    0.987
   175   1 H    0.999 --    88 C    0.967
   176   1 H    0.995 --   100 C    0.963
   177   1 H    0.996 --   100 C    0.955
   178   1 H    0.997 --   101 C    0.987
   179   1 H    0.997 --   101 C    0.983
   180   1 H    0.996 --   101 C    0.983
   181   1 H    0.995 --   102 C    0.969
   182   1 H    0.996 --   102 C    0.961
   183   1 H    0.997 --   103 C    0.983
   184   1 H    0.997 --   103 C    0.983
   185   1 H    0.998 --   103 C    0.987
   186   1 H    0.997 --   105 C    0.965
   187   1 H    0.997 --   106 C    0.967
   188   1 H    0.995 --   108 C    0.964
   189   1 H    0.997 --   109 C    0.963
   190   1 H    0.995 --   110 C    0.945
   191   1 H    0.995 --   115 C    0.963
   192   1 H    0.995 --   116 C    0.967
   193   1 H    0.995 --   119 C    0.959
 ---------------------------------------------------------------------------

Topologies differ in bond orders
Writing corrected topology to xtbtopo.mol

molecular dipole:
                 x           y           z       tot (Debye)
 q only:        0.507       1.054      -2.089
   full:        0.778       1.037      -2.145       6.370
molecular quadrupole (traceless):
                xx          xy          yy          xz          yz          zz
 q only:      -51.995    -141.586       7.678     -42.720     -31.997      44.317
  q+dip:      -42.235    -184.432       7.356     -42.714     -33.775      34.879
   full:      -37.457    -192.557      10.615     -44.771     -30.198      26.842

           -------------------------------------------------
          |                Geometry Summary                 |
           -------------------------------------------------

      molecular mass/u    :     1955.4288549
   center of mass at/Å    :       -0.7939607      -0.6440427       0.8336097
  moments of inertia/u·Å² :        0.5143392E+05   0.1976978E+06   0.2366410E+06
rotational constants/cm⁻¹ :        0.3277532E-03   0.8526971E-04   0.7123717E-04

 * 190 selected distances

     #   Z          #   Z                                           value/Å
     1   6 C        2   6 C                                       1.3845218
     3   6 C        4   8 O                                       1.2182168
     5   6 C        6   6 C                                       1.4062758
     6   6 C        7   6 C                                       1.3846514
     7   6 C        8   6 C                                       1.3883888
     8   6 C        9   6 C                                       1.3852768
     9   6 C       10  35 Br                                      1.8910003
     5   6 C       11   6 C                                       1.3834455
     9   6 C       11   6 C                                       1.3991369
    11   6 C       12  17 Cl                                      1.7119681
     2   6 C       13   6 C                                       1.4379955
    13   6 C       14   6 C                                       1.3767006
    15   6 C       16   7 N                                       1.1490291
    17   6 C       18   7 N                                       1.1503187
     1   6 C       19   6 C                                       1.3865207
    19   6 C       20   6 C                                       1.4264746
    20   6 C       21   7 N                                       1.3633318
    21   7 N       22   6 C                                       1.4108408
    22   6 C       23   6 C                                       1.3903729
    23   6 C       24   6 C                                       1.3820299
    24   6 C       25   6 C                                       1.3874803
    25   6 C       27   6 C                                       1.3916858
    22   6 C       28   6 C                                       1.3924198
    27   6 C       28   6 C                                       1.3787581
    21   7 N       29   6 C                                       1.4115496
    29   6 C       30   6 C                                       1.3925290
    30   6 C       31   6 C                                       1.3800976
    31   6 C       32   6 C                                       1.3908844
    32   6 C       34   6 C                                       1.3895193
    29   6 C       35   6 C                                       1.3916558
    34   6 C       35   6 C                                       1.3810102
    20   6 C       36   6 C                                       1.4044390
    36   6 C       37  16 S                                       1.7369804
    38   6 C       39   6 C                                       1.3894396
    39   6 C       40   7 N                                       1.3826589
    40   7 N       41   6 C                                       1.4066457
    41   6 C       42   6 C                                       1.3902359
    42   6 C       43   6 C                                       1.3811844
    43   6 C       44   6 C                                       1.3884551
    44   6 C       46   6 C                                       1.3901826
    41   6 C       47   6 C                                       1.3925882
    46   6 C       47   6 C                                       1.3793594
    40   7 N       48   6 C                                       1.3993194
    48   6 C       49   6 C                                       1.3926457
    49   6 C       50   6 C                                       1.3791199
    50   6 C       51   6 C                                       1.3906412
    51   6 C       53   6 C                                       1.3890643
    48   6 C       54   6 C                                       1.3925355
    53   6 C       54   6 C                                       1.3811134
    36   6 C       55   6 C                                       1.3911547
    39   6 C       55   6 C                                       1.4146527
    55   6 C       56  16 S                                       1.7240429
    38   6 C       57   6 C                                       1.4248942
    57   6 C       58   6 C                                       1.3812209
    59   6 C       60   6 C                                       1.3906503
    60   6 C       61   6 C                                       1.3816856
    61   6 C       62   6 C                                       1.3845251
    62   6 C       63   6 C                                       1.3885204
    64   6 C       65   6 C                                       1.5293441
    59   6 C       66   6 C                                       1.3894360
    63   6 C       66   6 C                                       1.3861207
    58   6 C       67   6 C                                       1.4075030
    67   6 C       68  16 S                                       1.7465082
    68  16 S       69   6 C                                       1.7324231
    69   6 C       70   6 C                                       1.4050545
    70   6 C       71   6 C                                       1.4130474
    71   6 C       72   6 C                                       1.4381391
    72   6 C       73   7 N                                       1.3235999
    73   7 N       74  16 S                                       1.6190856
    71   6 C       75   7 N                                       1.3236596
    74  16 S       75   7 N                                       1.6186664
    72   6 C       76   6 C                                       1.4119358
    76   6 C       77   6 C                                       1.4070035
    77   6 C       78  16 S                                       1.7308492
    78  16 S       79   6 C                                       1.7481970
    79   6 C       80   6 C                                       1.4100914
    81   6 C       82   6 C                                       1.3917342
    82   6 C       83   6 C                                       1.3824788
    83   6 C       84   6 C                                       1.3839676
    84   6 C       85   6 C                                       1.3898499
    86   6 C       87   6 C                                       1.5304647
    81   6 C       88   6 C                                       1.3922249
    85   6 C       88   6 C                                       1.3856999
    80   6 C       89   6 C                                       1.3834335
    89   6 C       90  16 S                                       1.7574460
    79   6 C       91   6 C                                       1.3963958
    90  16 S       91   6 C                                       1.7254187
    77   6 C       92   6 C                                       1.3974702
    91   6 C       92   6 C                                       1.3993785
    92   6 C       93   7 N                                       1.3732997
    76   6 C       94   6 C                                       1.4199270
    93   7 N       94   6 C                                       1.3848221
    70   6 C       95   6 C                                       1.4213863
    94   6 C       95   6 C                                       1.4153347
    95   6 C       96   7 N                                       1.3869242
    69   6 C       97   6 C                                       1.3973540
    96   7 N       97   6 C                                       1.3706691
    67   6 C       98   6 C                                       1.3956397
    97   6 C       98   6 C                                       1.4005599
    98   6 C       99  16 S                                       1.7267350
    96   7 N      100   6 C                                       1.4498241
   100   6 C      101   6 C                                       1.5249435
    93   7 N      102   6 C                                       1.4467620
   102   6 C      103   6 C                                       1.5283835
   104   6 C      105   6 C                                       1.4033213
   105   6 C      106   6 C                                       1.3712012
   106   6 C      107   6 C                                       1.4065617
   107   6 C      108   6 C                                       1.4018754
   104   6 C      109   6 C                                       1.4002559
   108   6 C      109   6 C                                       1.3742076
   107   6 C      110   6 C                                       1.4321851
   110   6 C      111   6 C                                       1.3625939
   112   6 C      113   8 O                                       1.2108481
   114   6 C      115   6 C                                       1.3817694
   115   6 C      116   6 C                                       1.3861129
   116   6 C      117   6 C                                       1.3878213
   117   6 C      118  53 I                                       2.1123121 (max)
   117   6 C      119   6 C                                       1.3879427
   114   6 C      120   6 C                                       1.4043805
   119   6 C      120   6 C                                       1.3859137
   121   6 C      122   6 C                                       1.3689201
   123   6 C      124   7 N                                       1.1481742
   125   6 C      126   7 N                                       1.1476404
     1   6 C      127   1 H                                       1.0820152
     7   6 C      128   1 H                                       1.0770035
     8   6 C      129   1 H                                       1.0790925
    23   6 C      130   1 H                                       1.0798418
    24   6 C      131   1 H                                       1.0792293
    26   6 C      132   1 H                                       1.0889221
    26   6 C      133   1 H                                       1.0861826
    26   6 C      134   1 H                                       1.0894214
    27   6 C      135   1 H                                       1.0802138
    28   6 C      136   1 H                                       1.0799642
    30   6 C      137   1 H                                       1.0801600
    31   6 C      138   1 H                                       1.0804857
    33   6 C      139   1 H                                       1.0878076
    33   6 C      140   1 H                                       1.0905748
    33   6 C      141   1 H                                       1.0871947
    34   6 C      142   1 H                                       1.0792794
    35   6 C      143   1 H                                       1.0785004
    42   6 C      144   1 H                                       1.0802838
    43   6 C      145   1 H                                       1.0805147
    45   6 C      146   1 H                                       1.0893303
    45   6 C      147   1 H                                       1.0871192
    45   6 C      148   1 H                                       1.0894490
    46   6 C      149   1 H                                       1.0804418
    47   6 C      150   1 H                                       1.0808604
    49   6 C      151   1 H                                       1.0802981
    50   6 C      152   1 H                                       1.0808103
    52   6 C      153   1 H                                       1.0883314
    52   6 C      154   1 H                                       1.0871595
    52   6 C      155   1 H                                       1.0906460
    53   6 C      156   1 H                                       1.0807176
    54   6 C      157   1 H                                       1.0798376
    60   6 C      158   1 H                                       1.0794676
    61   6 C      159   1 H                                       1.0798370
    62   6 C      160   1 H                                       1.0812228
    64   6 C      161   1 H                                       1.0916318
    64   6 C      162   1 H                                       1.0929440
    65   6 C      163   1 H                                       1.0870391
    65   6 C      164   1 H                                       1.0880659
    65   6 C      165   1 H                                       1.0877032
    66   6 C      166   1 H                                       1.0797109
    82   6 C      167   1 H                                       1.0794608
    83   6 C      168   1 H                                       1.0799276
    84   6 C      169   1 H                                       1.0803860
    86   6 C      170   1 H                                       1.0920334
    86   6 C      171   1 H                                       1.0912974
    87   6 C      172   1 H                                       1.0878108
    87   6 C      173   1 H                                       1.0869409
    87   6 C      174   1 H                                       1.0882021
    88   6 C      175   1 H                                       1.0808956
   100   6 C      176   1 H                                       1.0928824
   100   6 C      177   1 H                                       1.0926048
   101   6 C      178   1 H                                       1.0875820
   101   6 C      179   1 H                                       1.0862862
   101   6 C      180   1 H                                       1.0864297
   102   6 C      181   1 H                                       1.0948746
   102   6 C      182   1 H                                       1.0864058
   103   6 C      183   1 H                                       1.0859739
   103   6 C      184   1 H                                       1.0866241
   103   6 C      185   1 H                                       1.0881067
   105   6 C      186   1 H                                       1.0784910
   106   6 C      187   1 H                                       1.0805645
   108   6 C      188   1 H                                       1.0765385 (min)
   109   6 C      189   1 H                                       1.0805735
   110   6 C      190   1 H                                       1.0847491
   115   6 C      191   1 H                                       1.0790100
   116   6 C      192   1 H                                       1.0790333
   119   6 C      193   1 H                                       1.0776935

 * 9 distinct bonds (by element types)

   Z      Z             #   av. dist./Å        max./Å        min./Å
   1 H    6 C          67     1.0841894     1.0948746     1.0765385
   6 C    6 C          89     1.3999495     1.5304647     1.3625939
   6 C    7 N          18     1.3349483     1.4498241     1.1476404
   6 C    8 O           2     1.2145324     1.2182168     1.2108481
   6 C   16 S           9     1.7365112     1.7574460     1.7240429
   7 N   16 S           2     1.6188760     1.6190856     1.6186664
   6 C   17 Cl          1     1.7119681     1.7119681     1.7119681
   6 C   35 Br          1     1.8910003     1.8910003     1.8910003
   6 C   53 I           1     2.1123121     2.1123121     2.1123121


optimized geometry written to: xtbopt.mol


           -------------------------------------------------
          | TOTAL ENERGY             -329.426472254292 Eh   |
          | GRADIENT NORM               0.000673448367 Eh/α |
          | HOMO-LUMO GAP               0.460239535932 eV   |
           -------------------------------------------------

------------------------------------------------------------------------
 * finished run on 2022/02/06 at 11:06:54.931     
------------------------------------------------------------------------
 total:
 * wall-time:     0 d,  0 h,  2 min, 35.166 sec
 *  cpu-time:     0 d,  0 h, 20 min, 41.179 sec
 * ratio c/w:     7.999 speedup
 SCF:
 * wall-time:     0 d,  0 h,  0 min,  0.895 sec
 *  cpu-time:     0 d,  0 h,  0 min,  7.142 sec
 * ratio c/w:     7.984 speedup
 ANC optimizer:
 * wall-time:     0 d,  0 h,  2 min, 34.170 sec
 *  cpu-time:     0 d,  0 h, 20 min, 33.316 sec
 * ratio c/w:     8.000 speedup

