      -----------------------------------------------------------      
     |                   =====================                   |     
     |                           x T B                           |     
     |                   =====================                   |     
     |                         S. Grimme                         |     
     |          Mulliken Center for Theoretical Chemistry        |     
     |                    University of Bonn                     |     
      -----------------------------------------------------------      

   * xtb version 6.4.1 (unknown) compiled by 'oda6@login1.crc.pitt.edu' on 2021-06-25

   xtb is free software: you can redistribute it and/or modify it under
   the terms of the GNU Lesser General Public License as published by
   the Free Software Foundation, either version 3 of the License, or
   (at your option) any later version.
   
   xtb is distributed in the hope that it will be useful,
   but WITHOUT ANY WARRANTY; without even the implied warranty of
   MERCHANTABILITY or FITNESS FOR A PARTICULAR PURPOSE.  See the
   GNU Lesser General Public License for more details.
   
   Cite this work as:
   * C. Bannwarth, E. Caldeweyher, S. Ehlert, A. Hansen, P. Pracht,
     J. Seibert, S. Spicher, S. Grimme, WIREs Comput. Mol. Sci., 2020, 11,
     e01493. DOI: 10.1002/wcms.1493
   
   for GFN2-xTB:
   * C. Bannwarth, S. Ehlert and S. Grimme., J. Chem. Theory Comput., 2019,
     15, 1652-1671. DOI: 10.1021/acs.jctc.8b01176
   for GFN1-xTB:
   * S. Grimme, C. Bannwarth, P. Shushkov, J. Chem. Theory Comput., 2017,
     13, 1989-2009. DOI: 10.1021/acs.jctc.7b00118
   for GFN0-xTB:
   * P. Pracht, E. Caldeweyher, S. Ehlert, S. Grimme, ChemRxiv, 2019, preprint.
     DOI: 10.26434/chemrxiv.8326202.v1
   for GFN-FF:
   * S. Spicher and S. Grimme, Angew. Chem. Int. Ed., 2020, 59, 15665-15673.
     DOI: 10.1002/anie.202004239
   
   for DFT-D4:
   * E. Caldeweyher, C. Bannwarth and S. Grimme, J. Chem. Phys., 2017,
     147, 034112. DOI: 10.1063/1.4993215
   * E. Caldeweyher, S. Ehlert, A. Hansen, H. Neugebauer, S. Spicher,
     C. Bannwarth and S. Grimme, J. Chem. Phys., 2019, 150, 154122.
     DOI: 10.1063/1.5090222
   * E. Caldeweyher, J.-M. Mewes, S. Ehlert and S. Grimme, Phys. Chem. Chem. Phys.
     2020, 22, 8499-8512. DOI: 10.1039/D0CP00502A
   
   for sTDA-xTB:
   * S. Grimme and C. Bannwarth, J. Chem. Phys., 2016, 145, 054103.
     DOI: 10.1063/1.4959605
   
   in the mass-spec context:
   * V. Asgeirsson, C. Bauer and S. Grimme, Chem. Sci., 2017, 8, 4879.
     DOI: 10.1039/c7sc00601b
   * J. Koopman and S. Grimme, ACS Omega 2019, 4, 12, 15120-15133.
     DOI: 10.1021/acsomega.9b02011
   
   for metadynamics refer to:
   * S. Grimme, J. Chem. Theory Comput., 2019, 155, 2847-2862
     DOI: 10.1021/acs.jctc.9b00143
   
   for SPH calculations refer to:
   * S. Spicher and S. Grimme, J. Chem. Theory Comput., 2021, 17, 1701-1714
     DOI: 10.1021/acs.jctc.0c01306
   
   with help from (in alphabetical order)
   P. Atkinson, C. Bannwarth, F. Bohle, G. Brandenburg, E. Caldeweyher
   M. Checinski, S. Dohm, S. Ehlert, S. Ehrlich, I. Gerasimov, J. Koopman
   C. Lavigne, S. Lehtola, F. März, M. Müller, F. Musil, H. Neugebauer
   J. Pisarek, C. Plett, P. Pracht, J. Seibert, P. Shushkov, S. Spicher
   M. Stahn, M. Steiner, T. Strunk, J. Stückrath, T. Rose, and J. Unsleber
   
 * started run on 2022/02/08 at 13:42:52.379     

           -------------------------------------------------
          |                Calculation Setup                |
           -------------------------------------------------

          program call               : /ihome/ghutchison/oda6/xtb/xtb-641/bin/xtb ../../FF_optimized/65_28_100_84_65.mol -opt
          hostname                   : smp-n26
          coordinate file            : ../../FF_optimized/65_28_100_84_65.mol
          omp threads                :                     8
          number of atoms            :                   261
          number of electrons        :                   826
          charge                     :                     0
          spin                       :                   0.0
          first test random number   :      0.32120750998270

   ID    Z sym.   atoms
    1    6 C      1-3, 5, 6, 8, 10, 12, 14-17, 19, 21, 22, 24-38, 40, 41,
                  43-57, 59-69, 71-74, 78, 79, 81-91, 93, 94, 96, 97, 99,
                  100, 102-112, 114, 116-123, 125-128, 130-132, 134-139,
                  141-143, 145, 146, 148-150, 152, 153, 155, 157, 159,
                  161-164, 166
    2    8 O      4, 151
    3   17 Cl     7, 9, 11, 13, 154, 156, 158, 160
    4    7 N      18, 20, 23, 42, 75, 77, 95, 98, 165, 167
    5   16 S      39, 58, 70, 76, 80, 92, 101, 113, 124, 129, 140, 144, 147
    6   14 Si     115, 133
    7    1 H      168-261
########################################################################
[WARNING] Please study the warnings concerning your input carefully
-1- prog_main_parseArguments: the use of '-opt' is discouraged, please use '--opt' next time
########################################################################

           -------------------------------------------------
          |                 G F N 2 - x T B                 |
           -------------------------------------------------

        Reference                      10.1021/acs.jctc.8b01176
      * Hamiltonian:
        H0-scaling (s, p, d)           1.850000    2.230000    2.230000
        zeta-weighting                 0.500000
      * Dispersion:
        s8                             2.700000
        a1                             0.520000
        a2                             5.000000
        s9                             5.000000
      * Repulsion:
        kExp                           1.500000    1.000000
        rExp                           1.000000
      * Coulomb:
        alpha                          2.000000
        third order                    shell-resolved
        anisotropic                    true
        a3                             3.000000
        a5                             4.000000
        cn-shift                       1.200000
        cn-exp                         4.000000
        max-rad                        5.000000


          ...................................................
          :                      SETUP                      :
          :.................................................:
          :  # basis functions                 900          :
          :  # atomic orbitals                 877          :
          :  # shells                          451          :
          :  # electrons                       826          :
          :  max. iterations                   250          :
          :  Hamiltonian                  GFN2-xTB          :
          :  restarted?                      false          :
          :  GBSA solvation                  false          :
          :  PC potential                    false          :
          :  electronic temp.          300.0000000     K    :
          :  accuracy                    1.0000000          :
          :  -> integral cutoff          0.2500000E+02      :
          :  -> integral neglect         0.1000000E-07      :
          :  -> SCF convergence          0.1000000E-05 Eh   :
          :  -> wf. convergence          0.1000000E-03 e    :
          :  Broyden damping             0.4000000          :
          ...................................................

 iter      E             dE          RMSdq      gap      omega  full diag
   1   -455.4943205 -0.455494E+03  0.445E+00    0.82       0.0  T
   2   -455.9357445 -0.441424E+00  0.265E+00    0.08       1.0  T
   3   -455.6859964  0.249748E+00  0.171E+00    0.46       1.0  T
   4   -456.1323045 -0.446308E+00  0.679E-01    0.22       1.0  T
   5   -455.7183748  0.413930E+00  0.807E-01    0.09       1.0  T
   6   -456.1965216 -0.478147E+00  0.329E-01    0.19       1.0  T
   7   -456.2270256 -0.305040E-01  0.198E-01    0.34       1.0  T
   8   -456.2263918  0.633839E-03  0.147E-01    0.35       1.0  T
   9   -456.2295618 -0.316998E-02  0.113E-01    0.30       1.0  T
  10   -456.2338908 -0.432901E-02  0.785E-02    0.19       1.0  T
  11   -456.2324064  0.148441E-02  0.783E-02    0.08       1.0  T
  12   -456.2365043 -0.409795E-02  0.288E-02    0.14       1.0  T
  13   -456.2366451 -0.140774E-03  0.206E-02    0.12       1.0  T
  14   -456.2359771  0.667978E-03  0.341E-02    0.10       1.0  T
  15   -456.2368382 -0.861127E-03  0.804E-03    0.13       1.0  T
  16   -456.2368180  0.202610E-04  0.773E-03    0.12       1.0  T
  17   -456.2368330 -0.150529E-04  0.565E-03    0.13       1.1  T
  18   -456.2368491 -0.160385E-04  0.306E-03    0.13       2.0  T
  19   -456.2368509 -0.183818E-05  0.202E-03    0.12       3.1  T
  20   -456.2368517 -0.817798E-06  0.135E-03    0.13       4.6  T
  21   -456.2368518 -0.876476E-07  0.102E-03    0.13       6.1  T
  22   -456.2368521 -0.334587E-06  0.635E-04    0.13       9.7  T
  23   -456.2368522 -0.959890E-07  0.401E-04    0.13      15.4  T

   *** convergence criteria satisfied after 23 iterations ***

         #    Occupation            Energy/Eh            Energy/eV
      -------------------------------------------------------------
         1        2.0000           -1.0818272             -29.4380
       ...           ...                  ...                  ...
       407        2.0000           -0.3764556             -10.2439
       408        2.0000           -0.3719086             -10.1201
       409        2.0000           -0.3689920             -10.0408
       410        2.0000           -0.3651562              -9.9364
       411        1.9999           -0.3635132              -9.8917
       412        1.9674           -0.3578373              -9.7372
       413        1.8535           -0.3563535              -9.6969 (HOMO)
       414        0.1792           -0.3517400              -9.5713 (LUMO)
       415        0.0000           -0.3421908              -9.3115
       416                         -0.3345114              -9.1025
       417                         -0.3339864              -9.0882
       418                         -0.3017735              -8.2117
       ...                                ...                  ...
       877                          1.0751276              29.2557
      -------------------------------------------------------------
                  HL-Gap            0.0046134 Eh            0.1255 eV
             Fermi-level           -0.3539426 Eh           -9.6313 eV

 SCC (total)                   0 d,  0 h,  0 min,  2.013 sec
 SCC setup                      ...        0 min,  0.003 sec (  0.144%)
 Dispersion                     ...        0 min,  0.024 sec (  1.195%)
 classical contributions        ...        0 min,  0.001 sec (  0.029%)
 integral evaluation            ...        0 min,  0.090 sec (  4.492%)
 iterations                     ...        0 min,  1.636 sec ( 81.263%)
 molecular gradient             ...        0 min,  0.251 sec ( 12.482%)
 printout                       ...        0 min,  0.008 sec (  0.391%)

         :::::::::::::::::::::::::::::::::::::::::::::::::::::
         ::                     SUMMARY                     ::
         :::::::::::::::::::::::::::::::::::::::::::::::::::::
         :: total energy            -449.768359438107 Eh    ::
         :: gradient norm              0.410226658392 Eh/a0 ::
         :: HOMO-LUMO gap              0.125538287019 eV    ::
         ::.................................................::
         :: SCC energy              -456.236852241435 Eh    ::
         :: -> isotropic ES            0.188069766265 Eh    ::
         :: -> anisotropic ES          0.042194103185 Eh    ::
         :: -> anisotropic XC          0.235615735306 Eh    ::
         :: -> dispersion             -0.473763631073 Eh    ::
         :: repulsion energy           6.449722215247 Eh    ::
         :: add. restraining           0.000000000000 Eh    ::
         :: total charge               0.000000001569 e     ::
         :::::::::::::::::::::::::::::::::::::::::::::::::::::

      ----------------------------------------------------------- 
     |                   =====================                   |
     |                        A N C O P T                        |
     |                   =====================                   |
     |               Approximate Normal Coordinate               |
     |                Rational Function Optimizer                |
      ----------------------------------------------------------- 

          ...................................................
          :                      SETUP                      :
          :.................................................:
          :   optimization level            normal          :
          :   max. optcycles                   783          :
          :   ANC micro-cycles                  20          :
          :   degrees of freedom               777          :
          :.................................................:
          :   RF solver                   davidson          :
          :   write xtbopt.log                true          :
          :   linear?                        false          :
          :   energy convergence         0.5000000E-05 Eh   :
          :   grad. convergence          0.1000000E-02 Eh/α :
          :   maximium RF displ.         1.0000000          :
          :   Hlow (freq-cutoff)         0.1000000E-01      :
          :   Hmax (freq-cutoff)         5.0000000          :
          :   S6 in model hess.         20.0000000          :
          ...................................................

generating ANC from model Hessian ...
Using Lindh-Hessian (1995)
 Shifting diagonal of input Hessian by   1.003138525452926E-002
 Lowest  eigenvalues of input Hessian
    0.010000    0.010021    0.010025    0.000000    0.000000    0.000000
    0.000000    0.000000    0.000000    0.010034    0.010042    0.010045
    0.010050    0.010071    0.010078    0.010092    0.010097    0.010103
 Highest eigenvalues
    2.293402    2.305009    2.492057    2.494716    2.551653    2.554066
 

........................................................................
.............................. CYCLE    1 ..............................
........................................................................
   1   -456.2368522 -0.456237E+03  0.302E-04    0.13       0.0  T
   2   -456.2368504  0.186368E-05  0.147E-03    0.13       4.2  T
   3   -456.2368522 -0.184296E-05  0.313E-04    0.13      19.7  T
   4   -456.2368523 -0.497825E-07  0.169E-04    0.13      36.6  T
   5   -456.2368523 -0.197690E-08  0.104E-04    0.13      59.2  T
     SCC iter.                  ...        0 min,  0.371 sec
     gradient                   ...        0 min,  0.246 sec
 * total energy  :  -449.7683595 Eh     change       -0.2947417E-07 Eh
   gradient norm :     0.4102264 Eh/α   predicted     0.0000000E+00 (-100.00%)
   displ. norm   :     0.5292912 α      lambda       -0.1719129E+00
   maximum displ.:     0.0911913 α      in ANC's #499, #550, #598, ...

........................................................................
.............................. CYCLE    2 ..............................
........................................................................
   1   -456.4697661 -0.456470E+03  0.277E-01    0.18       0.0  T
   2   -456.1069051  0.362861E+00  0.658E-01    0.05       1.0  T
   3   -456.4622284 -0.355323E+00  0.198E-01    0.49       1.0  T
   4   -456.4672238 -0.499532E-02  0.136E-01    0.41       1.0  T
   5   -456.4655796  0.164416E-02  0.111E-01    0.46       1.0  T
   6   -456.4681683 -0.258874E-02  0.935E-02    0.40       1.0  T
   7   -456.4690657 -0.897381E-03  0.840E-02    0.33       1.0  T
   8   -456.4696775 -0.611733E-03  0.752E-02    0.28       1.0  T
   9   -456.4714054 -0.172797E-02  0.579E-02    0.21       1.0  T
  10   -456.4738152 -0.240981E-02  0.180E-02    0.15       1.0  T
  11   -456.4740366 -0.221380E-03  0.664E-03    0.13       1.0  T
  12   -456.4739451  0.915726E-04  0.120E-02    0.12       1.0  T
  13   -456.4739960 -0.509435E-04  0.895E-03    0.14       1.0  T
  14   -456.4740537 -0.576691E-04  0.240E-03    0.13       2.6  T
  15   -456.4740542 -0.511348E-06  0.174E-03    0.13       3.5  T
  16   -456.4740491  0.505758E-05  0.270E-03    0.13       2.3  T
  17   -456.4740504 -0.128746E-05  0.233E-03    0.13       2.7  T
  18   -456.4740546 -0.423207E-05  0.559E-04    0.13      11.1  T
  19   -456.4740546 -0.117777E-07  0.428E-04    0.13      14.5  T
  20   -456.4740543  0.357278E-06  0.748E-04    0.13       8.3  T
     SCC iter.                  ...        0 min,  1.458 sec
     gradient                   ...        0 min,  0.246 sec
 * total energy  :  -449.8989569 Eh     change       -0.1305975E+00 Eh
   gradient norm :     0.2133369 Eh/α   predicted    -0.1100770E+00 ( -15.71%)
   displ. norm   :     0.5319244 α      lambda       -0.8719160E-01
   maximum displ.:     0.0752930 α      in ANC's #699, #499, #180, ...

........................................................................
.............................. CYCLE    3 ..............................
........................................................................
   1   -456.6299761 -0.456630E+03  0.247E-01    0.17       0.0  T
   2   -456.5215480  0.108428E+00  0.380E-01    0.01       1.0  T
   3   -456.6206349 -0.990869E-01  0.184E-01    0.63       1.0  T
   4   -456.6282288 -0.759398E-02  0.125E-01    0.39       1.0  T
   5   -456.6272786  0.950223E-03  0.969E-02    0.41       1.0  T
   6   -456.6298645 -0.258589E-02  0.746E-02    0.31       1.0  T
   7   -456.6315275 -0.166295E-02  0.562E-02    0.22       1.0  T
   8   -456.6331983 -0.167087E-02  0.294E-02    0.16       1.0  T
   9   -456.6336956 -0.497290E-03  0.144E-02    0.14       1.0  T
  10   -456.6334866  0.209019E-03  0.193E-02    0.12       1.0  T
  11   -456.6337089 -0.222250E-03  0.108E-02    0.14       1.0  T
  12   -456.6337754 -0.665277E-04  0.526E-03    0.13       1.2  T
  13   -456.6337793 -0.390157E-05  0.410E-03    0.13       1.5  T
  14   -456.6337753  0.400382E-05  0.421E-03    0.13       1.5  T
  15   -456.6337872 -0.119103E-04  0.134E-03    0.14       4.6  T
  16   -456.6337867  0.519740E-06  0.122E-03    0.14       5.1  T
  17   -456.6337876 -0.892602E-06  0.525E-04    0.14      11.8  T
  18   -456.6337875  0.434485E-07  0.493E-04    0.14      12.6  T
     SCC iter.                  ...        0 min,  1.286 sec
     gradient                   ...        0 min,  0.244 sec
 * total energy  :  -449.9560321 Eh     change       -0.5707515E-01 Eh
   gradient norm :     0.0698531 Eh/α   predicted    -0.5593097E-01 (  -2.00%)
   displ. norm   :     0.5620194 α      lambda       -0.2418797E-01
   maximum displ.:     0.1282627 α      in ANC's #123, #52, #180, ...

........................................................................
.............................. CYCLE    4 ..............................
........................................................................
   1   -456.6811124 -0.456681E+03  0.148E-01    0.20       0.0  T
   2   -456.4776663  0.203446E+00  0.479E-01    0.03       1.0  T
   3   -456.6779504 -0.200284E+00  0.111E-01    0.34       1.0  T
   4   -456.6798251 -0.187467E-02  0.857E-02    0.26       1.0  T
   5   -456.6799819 -0.156842E-03  0.631E-02    0.29       1.0  T
   6   -456.6807093 -0.727362E-03  0.524E-02    0.26       1.0  T
   7   -456.6813852 -0.675940E-03  0.438E-02    0.22       1.0  T
   8   -456.6819464 -0.561163E-03  0.339E-02    0.20       1.0  T
   9   -456.6827296 -0.783216E-03  0.152E-02    0.16       1.0  T
  10   -456.6828828 -0.153131E-03  0.534E-03    0.14       1.2  T
  11   -456.6828823  0.486343E-06  0.490E-03    0.14       1.3  T
  12   -456.6828968 -0.145104E-04  0.239E-03    0.14       2.6  T
  13   -456.6828996 -0.285055E-05  0.114E-03    0.14       5.4  T
  14   -456.6828997 -0.103839E-06  0.782E-04    0.14       7.9  T
  15   -456.6828998 -0.531259E-07  0.568E-04    0.14      10.9  T
     SCC iter.                  ...        0 min,  1.061 sec
     gradient                   ...        0 min,  0.253 sec
 * total energy  :  -449.9737220 Eh     change       -0.1768993E-01 Eh
   gradient norm :     0.0401835 Eh/α   predicted    -0.1591447E-01 ( -10.04%)
   displ. norm   :     0.6417197 α      lambda       -0.1314577E-01
   maximum displ.:     0.2194098 α      in ANC's #52, #55, #67, ...

........................................................................
.............................. CYCLE    5 ..............................
........................................................................
   1   -456.7004455 -0.456700E+03  0.151E-01    0.20       0.0  T
   2   -456.6559904  0.444551E-01  0.241E-01    0.04       1.0  T
   3   -456.6964091 -0.404187E-01  0.111E-01    0.43       1.0  T
   4   -456.6987062 -0.229708E-02  0.860E-02    0.32       1.0  T
   5   -456.6989996 -0.293390E-03  0.603E-02    0.35       1.0  T
   6   -456.6997248 -0.725282E-03  0.497E-02    0.30       1.0  T
   7   -456.7002727 -0.547836E-03  0.420E-02    0.25       1.0  T
   8   -456.7008511 -0.578427E-03  0.307E-02    0.21       1.0  T
   9   -456.7015717 -0.720589E-03  0.827E-03    0.16       1.0  T
  10   -456.7016046 -0.328711E-04  0.366E-03    0.15       1.7  T
  11   -456.7016074 -0.285821E-05  0.245E-03    0.16       2.5  T
  12   -456.7016083 -0.832442E-06  0.167E-03    0.15       3.7  T
  13   -456.7016049  0.337183E-05  0.242E-03    0.16       2.6  T
  14   -456.7016087 -0.377551E-05  0.921E-04    0.15       6.7  T
  15   -456.7016088 -0.960448E-07  0.723E-04    0.16       8.6  T
  16   -456.7016089 -0.158015E-06  0.466E-04    0.15      13.3  T
     SCC iter.                  ...        0 min,  1.251 sec
     gradient                   ...        0 min,  0.259 sec
 * total energy  :  -449.9838071 Eh     change       -0.1008504E-01 Eh
   gradient norm :     0.0318626 Eh/α   predicted    -0.9279638E-02 (  -7.99%)
   displ. norm   :     0.6766889 α      lambda       -0.9127926E-02
   maximum displ.:     0.2236260 α      in ANC's #52, #55, #67, ...

........................................................................
.............................. CYCLE    6 ..............................
........................................................................
   1   -456.6951678 -0.456695E+03  0.129E-01    0.26       0.0  T
   2   -456.6655675  0.296003E-01  0.197E-01    0.06       1.0  T
   3   -456.6926312 -0.270637E-01  0.969E-02    0.45       1.0  T
   4   -456.6947410 -0.210985E-02  0.721E-02    0.34       1.0  T
   5   -456.6949141 -0.173081E-03  0.483E-02    0.35       1.0  T
   6   -456.6953790 -0.464883E-03  0.386E-02    0.30       1.0  T
   7   -456.6957144 -0.335434E-03  0.321E-02    0.26       1.0  T
   8   -456.6960481 -0.333685E-03  0.226E-02    0.23       1.0  T
   9   -456.6963906 -0.342456E-03  0.680E-03    0.18       1.0  T
  10   -456.6964058 -0.151953E-04  0.354E-03    0.18       1.7  T
  11   -456.6964103 -0.458696E-05  0.210E-03    0.18       2.9  T
  12   -456.6964110 -0.670917E-06  0.132E-03    0.17       4.7  T
  13   -456.6964111 -0.102402E-06  0.946E-04    0.18       6.5  T
  14   -456.6964106  0.497056E-06  0.105E-03    0.18       5.9  T
  15   -456.6964113 -0.675929E-06  0.406E-04    0.18      15.3  T
     SCC iter.                  ...        0 min,  1.177 sec
     gradient                   ...        0 min,  0.258 sec
 * total energy  :  -449.9902879 Eh     change       -0.6480878E-02 Eh
   gradient norm :     0.0270990 Eh/α   predicted    -0.6653860E-02 (   2.67%)
   displ. norm   :     0.6933163 α      lambda       -0.7143657E-02
   maximum displ.:     0.2830594 α      in ANC's #52, #55, #67, ...

........................................................................
.............................. CYCLE    7 ..............................
........................................................................
   1   -456.6931426 -0.456693E+03  0.183E-01    0.18       0.0  T
   2   -456.6931476 -0.495055E-05  0.107E-01    0.20       1.0  T
   3   -456.6621077  0.310399E-01  0.193E-01    0.06       1.0  T
   4   -456.6906226 -0.285149E-01  0.759E-02    0.39       1.0  T
   5   -456.6930909 -0.246834E-02  0.357E-02    0.28       1.0  T
   6   -456.6931654 -0.744725E-04  0.282E-02    0.26       1.0  T
   7   -456.6934960 -0.330576E-03  0.193E-02    0.22       1.0  T
   8   -456.6936763 -0.180320E-03  0.107E-02    0.20       1.0  T
   9   -456.6937327 -0.563602E-04  0.477E-03    0.19       1.3  T
  10   -456.6937447 -0.120148E-04  0.184E-03    0.18       3.4  T
  11   -456.6937443  0.363743E-06  0.159E-03    0.18       3.9  T
  12   -456.6937449 -0.604738E-06  0.952E-04    0.18       6.5  T
  13   -456.6937451 -0.186199E-06  0.605E-04    0.18      10.2  T
     SCC iter.                  ...        0 min,  1.165 sec
     gradient                   ...        0 min,  0.269 sec
 * total energy  :  -449.9946867 Eh     change       -0.4398750E-02 Eh
   gradient norm :     0.0467004 Eh/α   predicted    -0.5288766E-02 (  20.23%)
   displ. norm   :     0.5807624 α      lambda       -0.5432488E-02
   maximum displ.:     0.2110202 α      in ANC's #52, #67, #55, ...

........................................................................
.............................. CYCLE    8 ..............................
........................................................................
   1   -456.7059989 -0.456706E+03  0.148E-01    0.25       0.0  T
   2   -456.7045042  0.149470E-02  0.971E-02    0.14       1.0  T
   3   -456.7020872  0.241695E-02  0.969E-02    0.50       1.0  T
   4   -456.7056898 -0.360255E-02  0.467E-02    0.35       1.0  T
   5   -456.7060364 -0.346643E-03  0.272E-02    0.29       1.0  T
   6   -456.7063448 -0.308402E-03  0.171E-02    0.24       1.0  T
   7   -456.7064559 -0.111114E-03  0.872E-03    0.21       1.0  T
   8   -456.7064819 -0.260033E-04  0.326E-03    0.20       1.9  T
   9   -456.7064805  0.143292E-05  0.270E-03    0.20       2.3  T
  10   -456.7064816 -0.107229E-05  0.191E-03    0.19       3.2  T
  11   -456.7064821 -0.515309E-06  0.150E-03    0.20       4.1  T
  12   -456.7064832 -0.110957E-05  0.738E-04    0.20       8.4  T
  13   -456.7064832 -0.187846E-07  0.599E-04    0.20      10.3  T
  14   -456.7064834 -0.173165E-06  0.296E-04    0.20      20.9  T
     SCC iter.                  ...        0 min,  1.236 sec
     gradient                   ...        0 min,  0.260 sec
 * total energy  :  -449.9977504 Eh     change       -0.3063693E-02 Eh
   gradient norm :     0.0362490 Eh/α   predicted    -0.3632412E-02 (  18.56%)
   displ. norm   :     0.5468683 α      lambda       -0.4064949E-02
   maximum displ.:     0.1872482 α      in ANC's #52, #67, #55, ...

........................................................................
.............................. CYCLE    9 ..............................
........................................................................
   1   -456.7055374 -0.456706E+03  0.105E-01    0.22       0.0  T
   2   -456.7055576 -0.202033E-04  0.605E-02    0.19       1.0  T
   3   -456.7049045  0.653017E-03  0.443E-02    0.27       1.0  T
   4   -456.7055933 -0.688769E-03  0.116E-02    0.19       1.0  T
   5   -456.7056248 -0.315017E-04  0.762E-03    0.22       1.0  T
   6   -456.7056532 -0.283677E-04  0.379E-03    0.20       1.6  T
   7   -456.7056593 -0.610427E-05  0.179E-03    0.20       3.5  T
   8   -456.7056595 -0.249249E-06  0.116E-03    0.20       5.3  T
   9   -456.7056597 -0.141262E-06  0.841E-04    0.20       7.4  T
  10   -456.7056597 -0.509854E-07  0.576E-04    0.20      10.7  T
     SCC iter.                  ...        0 min,  0.779 sec
     gradient                   ...        0 min,  0.259 sec
 * total energy  :  -450.0003415 Eh     change       -0.2591146E-02 Eh
   gradient norm :     0.0294474 Eh/α   predicted    -0.2640322E-02 (   1.90%)
   displ. norm   :     0.5940623 α      lambda       -0.3282589E-02
   maximum displ.:     0.2358323 α      in ANC's #52, #67, #55, ...

........................................................................
.............................. CYCLE   10 ..............................
........................................................................
   1   -456.6925830 -0.456693E+03  0.155E-01    0.16       0.0  T
   2   -456.6919692  0.613770E-03  0.937E-02    0.31       1.0  T
   3   -456.2876508  0.404318E+00  0.688E-01    0.07       1.0  T
   4   -456.6918946 -0.404244E+00  0.636E-02    0.32       1.0  T
   5   -456.6921976 -0.302974E-03  0.404E-02    0.34       1.0  T
   6   -456.6923144 -0.116827E-03  0.375E-02    0.33       1.0  T
   7   -456.6924293 -0.114878E-03  0.347E-02    0.32       1.0  T
   8   -456.6924965 -0.672348E-04  0.323E-02    0.31       1.0  T
   9   -456.6925837 -0.871843E-04  0.298E-02    0.29       1.0  T
  10   -456.6926553 -0.716448E-04  0.273E-02    0.28       1.0  T
  11   -456.6927478 -0.925015E-04  0.241E-02    0.27       1.0  T
  12   -456.6928032 -0.553510E-04  0.220E-02    0.26       1.0  T
  13   -456.6929061 -0.102932E-03  0.178E-02    0.24       1.0  T
  14   -456.6930358 -0.129688E-03  0.108E-02    0.22       1.0  T
  15   -456.6930968 -0.609580E-04  0.519E-03    0.21       1.2  T
  16   -456.6931109 -0.141743E-04  0.260E-03    0.20       2.4  T
  17   -456.6931156 -0.467973E-05  0.451E-04    0.20      13.7  T
  18   -456.6931156 -0.148311E-07  0.376E-04    0.20      16.5  T
  19   -456.6931156  0.294845E-07  0.405E-04    0.20      15.3  T
     SCC iter.                  ...        0 min,  1.464 sec
     gradient                   ...        0 min,  0.259 sec
 * total energy  :  -450.0020797 Eh     change       -0.1738160E-02 Eh
   gradient norm :     0.0461306 Eh/α   predicted    -0.2220526E-02 (  27.75%)
   displ. norm   :     0.4749846 α      lambda       -0.3025794E-02
   maximum displ.:     0.1213668 α      in ANC's #67, #52, #24, ...

........................................................................
.............................. CYCLE   11 ..............................
........................................................................
   1   -456.7085665 -0.456709E+03  0.813E-02    0.21       0.0  T
   2   -456.7082156  0.350896E-03  0.556E-02    0.16       1.0  T
   3   -456.7070930  0.112259E-02  0.557E-02    0.33       1.0  T
   4   -456.7085811 -0.148807E-02  0.190E-02    0.23       1.0  T
   5   -456.7087041 -0.122992E-03  0.613E-03    0.21       1.0  T
   6   -456.7087120 -0.789549E-05  0.380E-03    0.20       1.6  T
   7   -456.7087131 -0.114479E-05  0.272E-03    0.20       2.3  T
   8   -456.7087139 -0.764754E-06  0.165E-03    0.20       3.8  T
   9   -456.7087148 -0.885079E-06  0.108E-03    0.20       5.7  T
  10   -456.7087152 -0.439050E-06  0.640E-04    0.20       9.7  T
  11   -456.7087153 -0.666557E-07  0.445E-04    0.20      13.9  T
     SCC iter.                  ...        0 min,  0.901 sec
     gradient                   ...        0 min,  0.259 sec
 * total energy  :  -450.0036315 Eh     change       -0.1551801E-02 Eh
   gradient norm :     0.0227604 Eh/α   predicted    -0.1854220E-02 (  19.49%)
   displ. norm   :     0.4718869 α      lambda       -0.1816253E-02
   maximum displ.:     0.1842254 α      in ANC's #52, #55, #67, ...

........................................................................
.............................. CYCLE   12 ..............................
........................................................................
   1   -456.7090170 -0.456709E+03  0.825E-02    0.23       0.0  T
   2   -456.7089719  0.451036E-04  0.485E-02    0.18       1.0  T
   3   -456.7082533  0.718542E-03  0.410E-02    0.31       1.0  T
   4   -456.7090660 -0.812660E-03  0.128E-02    0.22       1.0  T
   5   -456.7090948 -0.288458E-04  0.470E-03    0.22       1.3  T
   6   -456.7091011 -0.622850E-05  0.307E-03    0.20       2.0  T
   7   -456.7091035 -0.242695E-05  0.204E-03    0.21       3.0  T
   8   -456.7091041 -0.630159E-06  0.131E-03    0.21       4.7  T
   9   -456.7091045 -0.399485E-06  0.886E-04    0.21       7.0  T
  10   -456.7091046 -0.107402E-06  0.625E-04    0.21       9.9  T
     SCC iter.                  ...        0 min,  0.780 sec
     gradient                   ...        0 min,  0.258 sec
 * total energy  :  -450.0050171 Eh     change       -0.1385624E-02 Eh
   gradient norm :     0.0159105 Eh/α   predicted    -0.1110351E-02 ( -19.87%)
   displ. norm   :     0.6082571 α      lambda       -0.1781338E-02
   maximum displ.:     0.1871620 α      in ANC's #52, #14, #24, ...

........................................................................
.............................. CYCLE   13 ..............................
........................................................................
   1   -456.7064992 -0.456706E+03  0.102E-01    0.21       0.0  T
   2   -456.7065245 -0.253124E-04  0.576E-02    0.21       1.0  T
   3   -456.7060411  0.483383E-03  0.348E-02    0.19       1.0  T
   4   -456.7064848 -0.443718E-03  0.117E-02    0.23       1.0  T
   5   -456.7065654 -0.805595E-04  0.449E-03    0.20       1.4  T
   6   -456.7065705 -0.505634E-05  0.267E-03    0.21       2.3  T
   7   -456.7065713 -0.828897E-06  0.161E-03    0.21       3.8  T
   8   -456.7065716 -0.352283E-06  0.117E-03    0.21       5.3  T
   9   -456.7065717 -0.925867E-07  0.893E-04    0.21       6.9  T
  10   -456.7065718 -0.564425E-07  0.619E-04    0.21      10.0  T
     SCC iter.                  ...        0 min,  0.778 sec
     gradient                   ...        0 min,  0.257 sec
 * total energy  :  -450.0062983 Eh     change       -0.1281207E-02 Eh
   gradient norm :     0.0182566 Eh/α   predicted    -0.1220199E-02 (  -4.76%)
   displ. norm   :     0.6509497 α      lambda       -0.1717169E-02
   maximum displ.:     0.1845614 α      in ANC's #14, #24, #52, ...

........................................................................
.............................. CYCLE   14 ..............................
........................................................................
   1   -456.7183115 -0.456718E+03  0.106E-01    0.21       0.0  T
   2   -456.7183598 -0.483029E-04  0.598E-02    0.22       1.0  T
   3   -456.7179961  0.363677E-03  0.272E-02    0.18       1.0  T
   4   -456.7182835 -0.287417E-03  0.128E-02    0.24       1.0  T
   5   -456.7183852 -0.101657E-03  0.472E-03    0.21       1.3  T
   6   -456.7183890 -0.380203E-05  0.290E-03    0.21       2.1  T
   7   -456.7183896 -0.624051E-06  0.198E-03    0.21       3.1  T
   8   -456.7183900 -0.378310E-06  0.142E-03    0.21       4.4  T
   9   -456.7183901 -0.145554E-06  0.103E-03    0.21       6.0  T
  10   -456.7183902 -0.116427E-06  0.649E-04    0.21       9.5  T
  11   -456.7183903 -0.593054E-07  0.415E-04    0.21      14.9  T
     SCC iter.                  ...        0 min,  0.875 sec
     gradient                   ...        0 min,  0.259 sec
 * total energy  :  -450.0066025 Eh     change       -0.3042252E-03 Eh
   gradient norm :     0.0574362 Eh/α   predicted    -0.1222398E-02 ( 301.81%)
   displ. norm   :     0.3966533 α      lambda       -0.2203761E-02
   maximum displ.:     0.1198320 α      in ANC's #14, #24, #11, ...

........................................................................
.............................. CYCLE   15 ..............................
........................................................................
   1   -456.7033744 -0.456703E+03  0.981E-02    0.21       0.0  T
   2   -456.7034120 -0.375674E-04  0.550E-02    0.22       1.0  T
   3   -456.7026439  0.768110E-03  0.355E-02    0.17       1.0  T
   4   -456.7033104 -0.666459E-03  0.146E-02    0.25       1.0  T
   5   -456.7034458 -0.135395E-03  0.408E-03    0.22       1.5  T
   6   -456.7034488 -0.303736E-05  0.233E-03    0.21       2.7  T
   7   -456.7034492 -0.437263E-06  0.143E-03    0.21       4.3  T
   8   -456.7034493 -0.110316E-06  0.964E-04    0.21       6.4  T
   9   -456.7034494 -0.103903E-06  0.671E-04    0.21       9.2  T
     SCC iter.                  ...        0 min,  0.701 sec
     gradient                   ...        0 min,  0.258 sec
 * total energy  :  -450.0077326 Eh     change       -0.1130059E-02 Eh
   gradient norm :     0.0323133 Eh/α   predicted    -0.1275245E-02 (  12.85%)
   displ. norm   :     0.3268664 α      lambda       -0.1750572E-02
   maximum displ.:     0.1074481 α      in ANC's #14, #11, #24, ...

........................................................................
.............................. CYCLE   16 ..............................
........................................................................
   1   -456.7164191 -0.456716E+03  0.851E-02    0.24       0.0  T
   2   -456.7163713  0.477997E-04  0.494E-02    0.20       1.0  T
   3   -456.7153727  0.998597E-03  0.479E-02    0.33       1.0  T
   4   -456.7164643 -0.109155E-02  0.104E-02    0.24       1.0  T
   5   -456.7165087 -0.444353E-04  0.351E-03    0.22       1.8  T
   6   -456.7165094 -0.720169E-06  0.239E-03    0.22       2.6  T
   7   -456.7165098 -0.396724E-06  0.168E-03    0.22       3.7  T
   8   -456.7165102 -0.391581E-06  0.991E-04    0.22       6.2  T
   9   -456.7165103 -0.982426E-07  0.711E-04    0.22       8.7  T
     SCC iter.                  ...        0 min,  0.702 sec
     gradient                   ...        0 min,  0.258 sec
 * total energy  :  -450.0076123 Eh     change        0.1202957E-03 Eh
   gradient norm :     0.0622824 Eh/α   predicted    -0.9688053E-03 (-905.35%)
   displ. norm   :     0.2870668 α      lambda       -0.1879727E-02
   maximum displ.:     0.0905376 α      in ANC's #52, #14, #24, ...

........................................................................
.............................. CYCLE   17 ..............................
........................................................................
   1   -456.7110969 -0.456711E+03  0.701E-02    0.20       0.0  T
   2   -456.7110840  0.129088E-04  0.397E-02    0.23       1.0  T
   3   -456.7076926  0.339144E-02  0.634E-02    0.13       1.0  T
   4   -456.7110471 -0.335451E-02  0.136E-02    0.25       1.0  T
   5   -456.7111166 -0.695401E-04  0.665E-03    0.23       1.0  T
   6   -456.7111358 -0.191582E-04  0.393E-03    0.22       1.6  T
   7   -456.7111437 -0.791783E-05  0.179E-03    0.22       3.5  T
   8   -456.7111450 -0.128945E-05  0.877E-04    0.21       7.1  T
   9   -456.7111451 -0.614448E-07  0.586E-04    0.21      10.6  T
  10   -456.7111451 -0.319076E-07  0.409E-04    0.21      15.1  T
     SCC iter.                  ...        0 min,  0.779 sec
     gradient                   ...        0 min,  0.258 sec
 * total energy  :  -450.0088218 Eh     change       -0.1209484E-02 Eh
   gradient norm :     0.0118891 Eh/α   predicted    -0.1017317E-02 ( -15.89%)
   displ. norm   :     0.5520673 α      lambda       -0.9096845E-03
   maximum displ.:     0.1931790 α      in ANC's #14, #24, #11, ...

........................................................................
.............................. CYCLE   18 ..............................
........................................................................
   1   -456.7072616 -0.456707E+03  0.762E-02    0.22       0.0  T
   2   -456.7072770 -0.153881E-04  0.430E-02    0.22       1.0  T
   3   -456.7071767  0.100280E-03  0.169E-02    0.21       1.0  T
   4   -456.7072744 -0.976134E-04  0.551E-03    0.23       1.1  T
   5   -456.7072835 -0.912193E-05  0.355E-03    0.21       1.7  T
   6   -456.7072887 -0.522290E-05  0.157E-03    0.22       4.0  T
   7   -456.7072892 -0.478188E-06  0.910E-04    0.22       6.8  T
   8   -456.7072893 -0.785505E-07  0.621E-04    0.22      10.0  T
     SCC iter.                  ...        0 min,  0.626 sec
     gradient                   ...        0 min,  0.258 sec
 * total energy  :  -450.0095039 Eh     change       -0.6820950E-03 Eh
   gradient norm :     0.0175738 Eh/α   predicted    -0.5934690E-03 ( -12.99%)
   displ. norm   :     0.6236122 α      lambda       -0.9711597E-03
   maximum displ.:     0.2309984 α      in ANC's #14, #11, #24, ...

........................................................................
.............................. CYCLE   19 ..............................
........................................................................
   1   -456.7100644 -0.456710E+03  0.665E-02    0.23       0.0  T
   2   -456.7100724 -0.798810E-05  0.380E-02    0.22       1.0  T
   3   -456.7100011  0.712903E-04  0.139E-02    0.24       1.0  T
   4   -456.7100741 -0.730520E-04  0.428E-03    0.22       1.4  T
   5   -456.7100755 -0.139716E-05  0.347E-03    0.23       1.8  T
   6   -456.7100800 -0.445066E-05  0.152E-03    0.22       4.1  T
   7   -456.7100806 -0.630378E-06  0.812E-04    0.22       7.6  T
   8   -456.7100806 -0.352231E-07  0.557E-04    0.22      11.1  T
     SCC iter.                  ...        0 min,  0.630 sec
     gradient                   ...        0 min,  0.260 sec
 * total energy  :  -450.0103695 Eh     change       -0.8656155E-03 Eh
   gradient norm :     0.0198267 Eh/α   predicted    -0.6744221E-03 ( -22.09%)
   displ. norm   :     0.7496907 α      lambda       -0.1420905E-02
   maximum displ.:     0.2846956 α      in ANC's #14, #11, #24, ...

........................................................................
.............................. CYCLE   20 ..............................
........................................................................
   1   -456.7198289 -0.456720E+03  0.735E-02    0.24       0.0  T
   2   -456.7198337 -0.475995E-05  0.427E-02    0.22       1.0  T
   3   -456.7195979  0.235855E-03  0.242E-02    0.27       1.0  T
   4   -456.7198428 -0.244927E-03  0.605E-03    0.22       1.0  T
   5   -456.7198512 -0.840908E-05  0.367E-03    0.23       1.7  T
   6   -456.7198535 -0.232537E-05  0.215E-03    0.23       2.9  T
   7   -456.7198546 -0.106939E-05  0.130E-03    0.23       4.8  T
   8   -456.7198547 -0.927874E-07  0.967E-04    0.23       6.4  T
   9   -456.7198547 -0.661180E-07  0.664E-04    0.23       9.3  T
     SCC iter.                  ...        0 min,  0.718 sec
     gradient                   ...        0 min,  0.259 sec
 * total energy  :  -450.0114711 Eh     change       -0.1101576E-02 Eh
   gradient norm :     0.0119953 Eh/α   predicted    -0.1109755E-02 (   0.74%)
   displ. norm   :     0.8037639 α      lambda       -0.1172682E-02
   maximum displ.:     0.3078256 α      in ANC's #14, #11, #24, ...
 * RMSD in coord.:     0.5068728 α      energy gain  -0.2431116E+00 Eh

generating ANC from model Hessian ...
Using Lindh-Hessian (1995)
 Shifting diagonal of input Hessian by   1.015728831770228E-002
 Lowest  eigenvalues of input Hessian
    0.010000    0.010130    0.010143    0.010151    0.000000    0.000000
    0.000000    0.000000    0.000000    0.000000    0.010162    0.010169
    0.010173    0.010190    0.010202    0.010218    0.010220    0.010230
 Highest eigenvalues
    2.289665    2.295502    2.602979    2.608359    2.614103    2.637329
 

........................................................................
.............................. CYCLE   21 ..............................
........................................................................
   1   -456.7107085 -0.456711E+03  0.860E-02    0.24       0.0  T
   2   -456.7107238 -0.152860E-04  0.490E-02    0.23       1.0  T
   3   -456.7106638  0.599599E-04  0.160E-02    0.23       1.0  T
   4   -456.7107323 -0.684432E-04  0.421E-03    0.24       1.5  T
   5   -456.7107315  0.814344E-06  0.331E-03    0.23       1.9  T
   6   -456.7107341 -0.258892E-05  0.167E-03    0.24       3.7  T
   7   -456.7107347 -0.618816E-06  0.113E-03    0.23       5.5  T
   8   -456.7107348 -0.147216E-06  0.822E-04    0.23       7.5  T
   9   -456.7107349 -0.661374E-07  0.566E-04    0.23      10.9  T
     SCC iter.                  ...        0 min,  0.808 sec
     gradient                   ...        0 min,  0.259 sec
 * total energy  :  -450.0124648 Eh     change       -0.9937783E-03 Eh
   gradient norm :     0.0129198 Eh/α   predicted     0.0000000E+00 (-100.00%)
   displ. norm   :     0.1410742 α      lambda       -0.3915165E-03
   maximum displ.:     0.0431141 α      in ANC's #16, #14, #11, ...

........................................................................
.............................. CYCLE   22 ..............................
........................................................................
   1   -456.7170535 -0.456717E+03  0.223E-02    0.24       0.0  T
   2   -456.7170552 -0.173287E-05  0.128E-02    0.23       1.0  T
   3   -456.7170424  0.128223E-04  0.673E-03    0.24       1.0  T
   4   -456.7170567 -0.142597E-04  0.164E-03    0.23       3.8  T
   5   -456.7170571 -0.471532E-06  0.101E-03    0.23       6.1  T
   6   -456.7170573 -0.107688E-06  0.591E-04    0.23      10.5  T
   7   -456.7170573 -0.242288E-07  0.412E-04    0.23      15.0  T
     SCC iter.                  ...        0 min,  0.545 sec
     gradient                   ...        0 min,  0.258 sec
 * total energy  :  -450.0127797 Eh     change       -0.3148592E-03 Eh
   gradient norm :     0.0054390 Eh/α   predicted    -0.1996664E-03 ( -36.59%)
   displ. norm   :     0.4495726 α      lambda       -0.8293224E-03
   maximum displ.:     0.1422810 α      in ANC's #16, #14, #11, ...

........................................................................
.............................. CYCLE   23 ..............................
........................................................................
   1   -456.7262966 -0.456726E+03  0.526E-02    0.24       0.0  T
   2   -456.7263039 -0.728148E-05  0.305E-02    0.24       1.0  T
   3   -456.7261995  0.104374E-03  0.179E-02    0.24       1.0  T
   4   -456.7263115 -0.112010E-03  0.462E-03    0.24       1.3  T
   5   -456.7263157 -0.417013E-05  0.290E-03    0.23       2.1  T
   6   -456.7263166 -0.886373E-06  0.196E-03    0.24       3.2  T
   7   -456.7263173 -0.707871E-06  0.133E-03    0.24       4.7  T
   8   -456.7263174 -0.176763E-06  0.974E-04    0.24       6.4  T
   9   -456.7263176 -0.112770E-06  0.658E-04    0.24       9.4  T
     SCC iter.                  ...        0 min,  0.804 sec
     gradient                   ...        0 min,  0.260 sec
 * total energy  :  -450.0133223 Eh     change       -0.5425812E-03 Eh
   gradient norm :     0.0145394 Eh/α   predicted    -0.4985922E-03 (  -8.11%)
   displ. norm   :     0.5396424 α      lambda       -0.8167704E-03
   maximum displ.:     0.1746193 α      in ANC's #16, #14, #11, ...

........................................................................
.............................. CYCLE   24 ..............................
........................................................................
   1   -456.7261326 -0.456726E+03  0.748E-02    0.24       0.0  T
   2   -456.7261438 -0.111419E-04  0.424E-02    0.24       1.0  T
   3   -456.7259770  0.166746E-03  0.212E-02    0.22       1.0  T
   4   -456.7261497 -0.172685E-03  0.537E-03    0.25       1.2  T
   5   -456.7261584 -0.863645E-05  0.307E-03    0.24       2.0  T
   6   -456.7261599 -0.156834E-05  0.190E-03    0.24       3.3  T
   7   -456.7261605 -0.548049E-06  0.121E-03    0.24       5.1  T
   8   -456.7261606 -0.951027E-07  0.919E-04    0.24       6.7  T
   9   -456.7261607 -0.859833E-07  0.646E-04    0.24       9.6  T
     SCC iter.                  ...        0 min,  0.702 sec
     gradient                   ...        0 min,  0.259 sec
 * total energy  :  -450.0138202 Eh     change       -0.4978955E-03 Eh
   gradient norm :     0.0170343 Eh/α   predicted    -0.5273142E-03 (   5.91%)
   displ. norm   :     0.5269619 α      lambda       -0.8098021E-03
   maximum displ.:     0.1745538 α      in ANC's #16, #14, #11, ...

........................................................................
.............................. CYCLE   25 ..............................
........................................................................
   1   -456.7203273 -0.456720E+03  0.661E-02    0.24       0.0  T
   2   -456.7203352 -0.791505E-05  0.375E-02    0.24       1.0  T
   3   -456.7202389  0.963302E-04  0.165E-02    0.23       1.0  T
   4   -456.7203404 -0.101458E-03  0.385E-03    0.25       1.6  T
   5   -456.7203432 -0.277530E-05  0.250E-03    0.24       2.5  T
   6   -456.7203445 -0.134777E-05  0.133E-03    0.24       4.6  T
   7   -456.7203448 -0.305521E-06  0.780E-04    0.24       7.9  T
   8   -456.7203448 -0.401651E-07  0.554E-04    0.24      11.2  T
     SCC iter.                  ...        0 min,  0.621 sec
     gradient                   ...        0 min,  0.258 sec
 * total energy  :  -450.0144525 Eh     change       -0.6323283E-03 Eh
   gradient norm :     0.0151252 Eh/α   predicted    -0.5173441E-03 ( -18.18%)
   displ. norm   :     0.6301108 α      lambda       -0.1211058E-02
   maximum displ.:     0.2144774 α      in ANC's #16, #14, #11, ...

........................................................................
.............................. CYCLE   26 ..............................
........................................................................
   1   -456.7130306 -0.456713E+03  0.662E-02    0.24       0.0  T
   2   -456.7130406 -0.100042E-04  0.381E-02    0.25       1.0  T
   3   -456.7129869  0.537294E-04  0.138E-02    0.24       1.0  T
   4   -456.7130439 -0.570041E-04  0.437E-03    0.25       1.4  T
   5   -456.7130462 -0.232498E-05  0.305E-03    0.24       2.0  T
   6   -456.7130481 -0.194264E-05  0.156E-03    0.25       4.0  T
   7   -456.7130484 -0.304921E-06  0.105E-03    0.24       5.9  T
   8   -456.7130485 -0.959781E-07  0.724E-04    0.25       8.5  T
   9   -456.7130486 -0.390015E-07  0.460E-04    0.24      13.4  T
     SCC iter.                  ...        0 min,  0.752 sec
     gradient                   ...        0 min,  0.256 sec
 * total energy  :  -450.0153815 Eh     change       -0.9289826E-03 Eh
   gradient norm :     0.0114929 Eh/α   predicted    -0.8459495E-03 (  -8.94%)
   displ. norm   :     0.7070493 α      lambda       -0.1012360E-02
   maximum displ.:     0.2479694 α      in ANC's #16, #14, #11, ...

........................................................................
.............................. CYCLE   27 ..............................
........................................................................
   1   -456.7084204 -0.456708E+03  0.696E-02    0.24       0.0  T
   2   -456.7084295 -0.907955E-05  0.401E-02    0.25       1.0  T
   3   -456.7083250  0.104442E-03  0.173E-02    0.23       1.0  T
   4   -456.7084293 -0.104268E-03  0.559E-03    0.26       1.1  T
   5   -456.7084384 -0.904103E-05  0.307E-03    0.25       2.0  T
   6   -456.7084400 -0.161313E-05  0.163E-03    0.25       3.8  T
   7   -456.7084402 -0.197442E-06  0.115E-03    0.25       5.4  T
   8   -456.7084403 -0.910140E-07  0.821E-04    0.25       7.5  T
   9   -456.7084403 -0.568480E-07  0.537E-04    0.25      11.5  T
     SCC iter.                  ...        0 min,  0.626 sec
     gradient                   ...        0 min,  0.242 sec
 * total energy  :  -450.0162237 Eh     change       -0.8421953E-03 Eh
   gradient norm :     0.0117350 Eh/α   predicted    -0.7592306E-03 (  -9.85%)
   displ. norm   :     0.7349855 α      lambda       -0.1107368E-02
   maximum displ.:     0.2661308 α      in ANC's #16, #14, #11, ...

........................................................................
.............................. CYCLE   28 ..............................
........................................................................
   1   -456.7094841 -0.456709E+03  0.735E-02    0.25       0.0  T
   2   -456.7094975 -0.133058E-04  0.421E-02    0.26       1.0  T
   3   -456.7094474  0.500825E-04  0.147E-02    0.25       1.0  T
   4   -456.7095038 -0.564543E-04  0.416E-03    0.26       1.5  T
   5   -456.7095052 -0.135814E-05  0.292E-03    0.25       2.1  T
   6   -456.7095066 -0.138796E-05  0.160E-03    0.26       3.9  T
   7   -456.7095068 -0.240847E-06  0.118E-03    0.25       5.2  T
   8   -456.7095070 -0.145299E-06  0.872E-04    0.25       7.1  T
   9   -456.7095070 -0.750225E-07  0.596E-04    0.25      10.4  T
     SCC iter.                  ...        0 min,  0.624 sec
     gradient                   ...        0 min,  0.246 sec
 * total energy  :  -450.0171468 Eh     change       -0.9230990E-03 Eh
   gradient norm :     0.0132499 Eh/α   predicted    -0.8527909E-03 (  -7.62%)
   displ. norm   :     0.7597702 α      lambda       -0.1082812E-02
   maximum displ.:     0.2814707 α      in ANC's #16, #14, #11, ...

........................................................................
.............................. CYCLE   29 ..............................
........................................................................
   1   -456.7170154 -0.456717E+03  0.695E-02    0.26       0.0  T
   2   -456.7170247 -0.938160E-05  0.399E-02    0.26       1.0  T
   3   -456.7169818  0.429347E-04  0.132E-02    0.26       1.0  T
   4   -456.7170280 -0.462290E-04  0.394E-03    0.26       1.6  T
   5   -456.7170298 -0.176390E-05  0.266E-03    0.26       2.3  T
   6   -456.7170313 -0.153980E-05  0.123E-03    0.26       5.0  T
   7   -456.7170315 -0.180783E-06  0.813E-04    0.26       7.6  T
   8   -456.7170316 -0.501138E-07  0.569E-04    0.26      10.9  T
     SCC iter.                  ...        0 min,  0.576 sec
     gradient                   ...        0 min,  0.244 sec
 * total energy  :  -450.0181075 Eh     change       -0.9607256E-03 Eh
   gradient norm :     0.0092508 Eh/α   predicted    -0.8539399E-03 ( -11.12%)
   displ. norm   :     0.8457622 α      lambda       -0.1081477E-02
   maximum displ.:     0.3137024 α      in ANC's #16, #14, #11, ...

........................................................................
.............................. CYCLE   30 ..............................
........................................................................
   1   -456.7196835 -0.456720E+03  0.734E-02    0.27       0.0  T
   2   -456.7196910 -0.750040E-05  0.424E-02    0.27       1.0  T
   3   -456.7195909  0.100132E-03  0.178E-02    0.26       1.0  T
   4   -456.7196953 -0.104407E-03  0.459E-03    0.27       1.3  T
   5   -456.7196993 -0.404303E-05  0.274E-03    0.27       2.3  T
   6   -456.7197007 -0.136545E-05  0.124E-03    0.27       5.0  T
   7   -456.7197008 -0.135934E-06  0.832E-04    0.27       7.4  T
   8   -456.7197008 -0.376241E-07  0.583E-04    0.27      10.6  T
     SCC iter.                  ...        0 min,  0.582 sec
     gradient                   ...        0 min,  0.251 sec
 * total energy  :  -450.0191022 Eh     change       -0.9947223E-03 Eh
   gradient norm :     0.0071103 Eh/α   predicted    -0.9275398E-03 (  -6.75%)
   displ. norm   :     0.8446749 α      lambda       -0.1087244E-02
   maximum displ.:     0.3264421 α      in ANC's #16, #14, #11, ...

........................................................................
.............................. CYCLE   31 ..............................
........................................................................
   1   -456.7291511 -0.456729E+03  0.723E-02    0.28       0.0  T
   2   -456.7291593 -0.816234E-05  0.417E-02    0.28       1.0  T
   3   -456.7290879  0.713536E-04  0.157E-02    0.27       1.0  T
   4   -456.7291635 -0.755448E-04  0.426E-03    0.28       1.5  T
   5   -456.7291660 -0.254675E-05  0.276E-03    0.28       2.2  T
   6   -456.7291674 -0.141512E-05  0.130E-03    0.28       4.7  T
   7   -456.7291676 -0.165663E-06  0.900E-04    0.28       6.9  T
   8   -456.7291676 -0.459511E-07  0.644E-04    0.28       9.6  T
     SCC iter.                  ...        0 min,  0.569 sec
     gradient                   ...        0 min,  0.247 sec
 * total energy  :  -450.0200711 Eh     change       -0.9688490E-03 Eh
   gradient norm :     0.0077327 Eh/α   predicted    -0.9314898E-03 (  -3.86%)
   displ. norm   :     0.9254842 α      lambda       -0.1061705E-02
   maximum displ.:     0.3495204 α      in ANC's #16, #14, #11, ...

........................................................................
.............................. CYCLE   32 ..............................
........................................................................
   1   -456.7185559 -0.456719E+03  0.799E-02    0.28       0.0  T
   2   -456.7185631 -0.719981E-05  0.462E-02    0.29       1.0  T
   3   -456.7184034  0.159727E-03  0.220E-02    0.27       1.0  T
   4   -456.7185719 -0.168556E-03  0.464E-03    0.29       1.3  T
   5   -456.7185753 -0.340109E-05  0.275E-03    0.28       2.3  T
   6   -456.7185765 -0.121685E-05  0.123E-03    0.29       5.0  T
   7   -456.7185767 -0.138450E-06  0.793E-04    0.29       7.8  T
   8   -456.7185767 -0.323040E-07  0.551E-04    0.29      11.2  T
     SCC iter.                  ...        0 min,  0.573 sec
     gradient                   ...        0 min,  0.244 sec
 * total energy  :  -450.0210376 Eh     change       -0.9664867E-03 Eh
   gradient norm :     0.0074844 Eh/α   predicted    -0.9855426E-03 (   1.97%)
   displ. norm   :     0.8530327 α      lambda       -0.1027867E-02
   maximum displ.:     0.3393650 α      in ANC's #16, #14, #11, ...

........................................................................
.............................. CYCLE   33 ..............................
........................................................................
   1   -456.7195684 -0.456720E+03  0.825E-02    0.29       0.0  T
   2   -456.7195793 -0.109054E-04  0.471E-02    0.30       1.0  T
   3   -456.7194570  0.122295E-03  0.194E-02    0.28       1.0  T
   4   -456.7195889 -0.131912E-03  0.431E-03    0.30       1.4  T
   5   -456.7195910 -0.209179E-05  0.281E-03    0.29       2.2  T
   6   -456.7195923 -0.131276E-05  0.119E-03    0.29       5.2  T
   7   -456.7195925 -0.148642E-06  0.759E-04    0.29       8.2  T
   8   -456.7195925 -0.279852E-07  0.526E-04    0.29      11.8  T
     SCC iter.                  ...        0 min,  0.568 sec
     gradient                   ...        0 min,  0.245 sec
 * total energy  :  -450.0219471 Eh     change       -0.9094770E-03 Eh
   gradient norm :     0.0077622 Eh/α   predicted    -0.8879110E-03 (  -2.37%)
   displ. norm   :     0.8653656 α      lambda       -0.9744878E-03
   maximum displ.:     0.3490621 α      in ANC's #16, #14, #11, ...

........................................................................
.............................. CYCLE   34 ..............................
........................................................................
   1   -456.7186899 -0.456719E+03  0.722E-02    0.31       0.0  T
   2   -456.7186970 -0.718192E-05  0.417E-02    0.31       1.0  T
   3   -456.7185889  0.108140E-03  0.182E-02    0.30       1.0  T
   4   -456.7187039 -0.114994E-03  0.415E-03    0.31       1.5  T
   5   -456.7187062 -0.229638E-05  0.265E-03    0.30       2.3  T
   6   -456.7187074 -0.119622E-05  0.118E-03    0.31       5.3  T
   7   -456.7187075 -0.121706E-06  0.759E-04    0.31       8.2  T
   8   -456.7187075 -0.296918E-07  0.518E-04    0.31      11.9  T
     SCC iter.                  ...        0 min,  0.574 sec
     gradient                   ...        0 min,  0.243 sec
 * total energy  :  -450.0228025 Eh     change       -0.8554794E-03 Eh
   gradient norm :     0.0095717 Eh/α   predicted    -0.8521303E-03 (  -0.39%)
   displ. norm   :     0.8600282 α      lambda       -0.9190736E-03
   maximum displ.:     0.3516198 α      in ANC's #16, #14, #11, ...

........................................................................
.............................. CYCLE   35 ..............................
........................................................................
   1   -456.7190189 -0.456719E+03  0.705E-02    0.31       0.0  T
   2   -456.7190259 -0.701976E-05  0.406E-02    0.31       1.0  T
   3   -456.7189075  0.118405E-03  0.192E-02    0.30       1.0  T
   4   -456.7190344 -0.126849E-03  0.411E-03    0.31       1.5  T
   5   -456.7190368 -0.243144E-05  0.258E-03    0.31       2.4  T
   6   -456.7190379 -0.107353E-05  0.114E-03    0.31       5.4  T
   7   -456.7190380 -0.123633E-06  0.713E-04    0.31       8.7  T
   8   -456.7190380 -0.245507E-07  0.501E-04    0.31      12.4  T
     SCC iter.                  ...        0 min,  0.563 sec
     gradient                   ...        0 min,  0.243 sec
 * total energy  :  -450.0236442 Eh     change       -0.8416485E-03 Eh
   gradient norm :     0.0067295 Eh/α   predicted    -0.7994403E-03 (  -5.01%)
   displ. norm   :     0.8692335 α      lambda       -0.9039482E-03
   maximum displ.:     0.3602105 α      in ANC's #16, #14, #11, ...

........................................................................
.............................. CYCLE   36 ..............................
........................................................................
   1   -456.7238087 -0.456724E+03  0.719E-02    0.31       0.0  T
   2   -456.7238177 -0.898855E-05  0.412E-02    0.32       1.0  T
   3   -456.7237096  0.108011E-03  0.179E-02    0.31       1.0  T
   4   -456.7238251 -0.115430E-03  0.421E-03    0.32       1.5  T
   5   -456.7238280 -0.294171E-05  0.253E-03    0.32       2.4  T
   6   -456.7238290 -0.989585E-06  0.121E-03    0.32       5.1  T
   7   -456.7238292 -0.152328E-06  0.735E-04    0.32       8.4  T
   8   -456.7238292 -0.298502E-07  0.523E-04    0.32      11.8  T
     SCC iter.                  ...        0 min,  0.564 sec
     gradient                   ...        0 min,  0.244 sec
 * total energy  :  -450.0244743 Eh     change       -0.8301318E-03 Eh
   gradient norm :     0.0067027 Eh/α   predicted    -0.7934729E-03 (  -4.42%)
   displ. norm   :     0.9064298 α      lambda       -0.8815113E-03
   maximum displ.:     0.3731778 α      in ANC's #16, #14, #11, ...

........................................................................
.............................. CYCLE   37 ..............................
........................................................................
   1   -456.7235547 -0.456724E+03  0.661E-02    0.32       0.0  T
   2   -456.7235609 -0.617398E-05  0.382E-02    0.33       1.0  T
   3   -456.7234608  0.100069E-03  0.174E-02    0.32       1.0  T
   4   -456.7235665 -0.105749E-03  0.407E-03    0.33       1.5  T
   5   -456.7235695 -0.297734E-05  0.236E-03    0.32       2.6  T
   6   -456.7235704 -0.911687E-06  0.108E-03    0.32       5.7  T
   7   -456.7235705 -0.103606E-06  0.668E-04    0.32       9.3  T
   8   -456.7235706 -0.264878E-07  0.481E-04    0.32      12.9  T
     SCC iter.                  ...        0 min,  0.630 sec
     gradient                   ...        0 min,  0.258 sec
 * total energy  :  -450.0252895 Eh     change       -0.8152049E-03 Eh
   gradient norm :     0.0058453 Eh/α   predicted    -0.8028915E-03 (  -1.51%)
   displ. norm   :     0.8822023 α      lambda       -0.8725301E-03
   maximum displ.:     0.3690613 α      in ANC's #16, #14, #13, ...

........................................................................
.............................. CYCLE   38 ..............................
........................................................................
   1   -456.7311056 -0.456731E+03  0.629E-02    0.33       0.0  T
   2   -456.7311129 -0.730818E-05  0.360E-02    0.33       1.0  T
   3   -456.7310502  0.626536E-04  0.139E-02    0.32       1.0  T
   4   -456.7311168 -0.666097E-04  0.367E-03    0.33       1.7  T
   5   -456.7311193 -0.244977E-05  0.219E-03    0.33       2.8  T
   6   -456.7311201 -0.844366E-06  0.995E-04    0.33       6.2  T
   7   -456.7311203 -0.109005E-06  0.564E-04    0.33      11.0  T
     SCC iter.                  ...        0 min,  0.543 sec
     gradient                   ...        0 min,  0.257 sec
 * total energy  :  -450.0260817 Eh     change       -0.7921919E-03 Eh
   gradient norm :     0.0063528 Eh/α   predicted    -0.7758062E-03 (  -2.07%)
   displ. norm   :     0.9229484 α      lambda       -0.8450420E-03
   maximum displ.:     0.3820890 α      in ANC's #16, #14, #13, ...

........................................................................
.............................. CYCLE   39 ..............................
........................................................................
   1   -456.7205812 -0.456721E+03  0.700E-02    0.33       0.0  T
   2   -456.7205887 -0.745665E-05  0.402E-02    0.34       1.0  T
   3   -456.7204900  0.987052E-04  0.177E-02    0.32       1.0  T
   4   -456.7205958 -0.105859E-03  0.384E-03    0.34       1.6  T
   5   -456.7205977 -0.183243E-05  0.241E-03    0.33       2.6  T
   6   -456.7205986 -0.923517E-06  0.116E-03    0.33       5.3  T
   7   -456.7205987 -0.127550E-06  0.769E-04    0.33       8.0  T
   8   -456.7205988 -0.418626E-07  0.547E-04    0.33      11.3  T
     SCC iter.                  ...        0 min,  0.640 sec
     gradient                   ...        0 min,  0.258 sec
 * total energy  :  -450.0268385 Eh     change       -0.7568323E-03 Eh
   gradient norm :     0.0105376 Eh/α   predicted    -0.7824434E-03 (   3.38%)
   displ. norm   :     0.8525220 α      lambda       -0.8576367E-03
   maximum displ.:     0.3570971 α      in ANC's #16, #14, #13, ...

........................................................................
.............................. CYCLE   40 ..............................
........................................................................
   1   -456.7295858 -0.456730E+03  0.494E-02    0.34       0.0  T
   2   -456.7295899 -0.408803E-05  0.285E-02    0.34       1.0  T
   3   -456.7295572  0.326916E-04  0.108E-02    0.34       1.0  T
   4   -456.7295923 -0.351018E-04  0.279E-03    0.34       2.2  T
   5   -456.7295930 -0.748432E-06  0.188E-03    0.34       3.3  T
   6   -456.7295937 -0.648446E-06  0.877E-04    0.34       7.1  T
   7   -456.7295938 -0.703512E-07  0.594E-04    0.34      10.4  T
     SCC iter.                  ...        0 min,  0.556 sec
     gradient                   ...        0 min,  0.258 sec
 * total energy  :  -450.0275885 Eh     change       -0.7500038E-03 Eh
   gradient norm :     0.0107370 Eh/α   predicted    -0.7404883E-03 (  -1.27%)
   displ. norm   :     0.8672776 α      lambda       -0.8247514E-03
   maximum displ.:     0.3598748 α      in ANC's #16, #14, #13, ...

........................................................................
.............................. CYCLE   41 ..............................
........................................................................
   1   -456.7298410 -0.456730E+03  0.547E-02    0.34       0.0  T
   2   -456.7298468 -0.578838E-05  0.313E-02    0.35       1.0  T
   3   -456.7298206  0.261518E-04  0.102E-02    0.34       1.0  T
   4   -456.7298495 -0.288989E-04  0.287E-03    0.35       2.2  T
   5   -456.7298500 -0.494223E-06  0.201E-03    0.34       3.1  T
   6   -456.7298508 -0.825743E-06  0.835E-04    0.34       7.4  T
   7   -456.7298509 -0.596196E-07  0.583E-04    0.34      10.6  T
     SCC iter.                  ...        0 min,  0.553 sec
     gradient                   ...        0 min,  0.258 sec
 * total energy  :  -450.0283341 Eh     change       -0.7455670E-03 Eh
   gradient norm :     0.0076564 Eh/α   predicted    -0.7225621E-03 (  -3.09%)
   displ. norm   :     0.8809299 α      lambda       -0.8122981E-03
   maximum displ.:     0.3620019 α      in ANC's #16, #14, #13, ...

........................................................................
.............................. CYCLE   42 ..............................
........................................................................
   1   -456.7294186 -0.456729E+03  0.547E-02    0.35       0.0  T
   2   -456.7294242 -0.559163E-05  0.312E-02    0.35       1.0  T
   3   -456.7293974  0.268224E-04  0.984E-03    0.34       1.0  T
   4   -456.7294268 -0.294183E-04  0.295E-03    0.35       2.1  T
   5   -456.7294276 -0.798968E-06  0.186E-03    0.35       3.3  T
   6   -456.7294282 -0.585947E-06  0.862E-04    0.35       7.2  T
   7   -456.7294283 -0.802014E-07  0.604E-04    0.35      10.2  T
     SCC iter.                  ...        0 min,  0.550 sec
     gradient                   ...        0 min,  0.258 sec
 * total energy  :  -450.0290761 Eh     change       -0.7419723E-03 Eh
   gradient norm :     0.0089584 Eh/α   predicted    -0.7213445E-03 (  -2.78%)
   displ. norm   :     0.8848280 α      lambda       -0.8161234E-03
   maximum displ.:     0.3577780 α      in ANC's #16, #14, #13, ...
 * RMSD in coord.:     0.9923364 α      energy gain  -0.1760501E-01 Eh

generating ANC from model Hessian ...
Using Lindh-Hessian (1995)
 Shifting diagonal of input Hessian by   1.009680851016910E-002
 Lowest  eigenvalues of input Hessian
    0.010000    0.010073    0.010091    0.010095    0.000000    0.000000
    0.000000    0.000000    0.000000    0.000000    0.010103    0.010112
    0.010118    0.010135    0.010146    0.010155    0.010160    0.010169
 Highest eigenvalues
    2.286934    2.299119    2.608658    2.613752    2.620694    2.644981
 

........................................................................
.............................. CYCLE   43 ..............................
........................................................................
   1   -456.7320780 -0.456732E+03  0.494E-02    0.35       0.0  T
   2   -456.7320825 -0.447001E-05  0.283E-02    0.35       1.0  T
   3   -456.7320667  0.158247E-04  0.823E-03    0.35       1.0  T
   4   -456.7320839 -0.172021E-04  0.288E-03    0.35       2.2  T
   5   -456.7320847 -0.806656E-06  0.176E-03    0.35       3.5  T
   6   -456.7320852 -0.502489E-06  0.818E-04    0.35       7.6  T
   7   -456.7320852 -0.571223E-07  0.590E-04    0.35      10.5  T
     SCC iter.                  ...        0 min,  0.609 sec
     gradient                   ...        0 min,  0.264 sec
 * total energy  :  -450.0298228 Eh     change       -0.7467282E-03 Eh
   gradient norm :     0.0062369 Eh/α   predicted     0.0000000E+00 (-100.00%)
   displ. norm   :     0.0973546 α      lambda       -0.1590743E-03
   maximum displ.:     0.0403470 α      in ANC's #14, #12, #16, ...

........................................................................
.............................. CYCLE   44 ..............................
........................................................................
   1   -456.7326587 -0.456733E+03  0.231E-02    0.35       0.0  T
   2   -456.7326604 -0.171355E-05  0.129E-02    0.35       1.0  T
   3   -456.7326573  0.306521E-05  0.376E-03    0.35       1.6  T
   4   -456.7326612 -0.387310E-05  0.111E-03    0.35       5.6  T
   5   -456.7326613 -0.634936E-07  0.768E-04    0.35       8.1  T
   6   -456.7326613 -0.729793E-07  0.433E-04    0.35      14.3  T
     SCC iter.                  ...        0 min,  0.472 sec
     gradient                   ...        0 min,  0.258 sec
 * total energy  :  -450.0299443 Eh     change       -0.1214655E-03 Eh
   gradient norm :     0.0037468 Eh/α   predicted    -0.8299231E-04 ( -31.67%)
   displ. norm   :     0.3488100 α      lambda       -0.4443477E-03
   maximum displ.:     0.1447617 α      in ANC's #14, #12, #10, ...

........................................................................
.............................. CYCLE   45 ..............................
........................................................................
   1   -456.7338146 -0.456734E+03  0.372E-02    0.35       0.0  T
   2   -456.7338201 -0.548876E-05  0.216E-02    0.35       1.0  T
   3   -456.7337916  0.284917E-04  0.112E-02    0.35       1.0  T
   4   -456.7338234 -0.317895E-04  0.365E-03    0.35       1.7  T
   5   -456.7338248 -0.145389E-05  0.233E-03    0.35       2.7  T
   6   -456.7338254 -0.537475E-06  0.139E-03    0.35       4.4  T
   7   -456.7338255 -0.154306E-06  0.943E-04    0.35       6.6  T
   8   -456.7338256 -0.691707E-07  0.546E-04    0.35      11.3  T
     SCC iter.                  ...        0 min,  0.624 sec
     gradient                   ...        0 min,  0.257 sec
 * total energy  :  -450.0301669 Eh     change       -0.2226140E-03 Eh
   gradient norm :     0.0094692 Eh/α   predicted    -0.2492057E-03 (  11.95%)
   displ. norm   :     0.2850809 α      lambda       -0.3093554E-03
   maximum displ.:     0.1209382 α      in ANC's #14, #10, #12, ...

........................................................................
.............................. CYCLE   46 ..............................
........................................................................
   1   -456.7326371 -0.456733E+03  0.346E-02    0.34       0.0  T
   2   -456.7326404 -0.327883E-05  0.194E-02    0.34       1.0  T
   3   -456.7326244  0.159773E-04  0.762E-03    0.34       1.0  T
   4   -456.7326424 -0.180145E-04  0.193E-03    0.34       3.2  T
   5   -456.7326429 -0.488679E-06  0.129E-03    0.34       4.8  T
   6   -456.7326431 -0.218449E-06  0.723E-04    0.34       8.6  T
   7   -456.7326431 -0.350111E-07  0.531E-04    0.34      11.7  T
     SCC iter.                  ...        0 min,  0.570 sec
     gradient                   ...        0 min,  0.258 sec
 * total energy  :  -450.0304008 Eh     change       -0.2338866E-03 Eh
   gradient norm :     0.0091403 Eh/α   predicted    -0.1672488E-03 ( -28.49%)
   displ. norm   :     0.4832325 α      lambda       -0.4868782E-03
   maximum displ.:     0.2055762 α      in ANC's #14, #10, #12, ...

........................................................................
.............................. CYCLE   47 ..............................
........................................................................
   1   -456.7308257 -0.456731E+03  0.335E-02    0.34       0.0  T
   2   -456.7308283 -0.257898E-05  0.192E-02    0.34       1.0  T
   3   -456.7308085  0.197955E-04  0.854E-03    0.34       1.0  T
   4   -456.7308306 -0.220445E-04  0.212E-03    0.34       2.9  T
   5   -456.7308309 -0.339051E-06  0.140E-03    0.34       4.4  T
   6   -456.7308311 -0.236006E-06  0.796E-04    0.34       7.8  T
   7   -456.7308312 -0.624490E-07  0.529E-04    0.34      11.7  T
     SCC iter.                  ...        0 min,  0.545 sec
     gradient                   ...        0 min,  0.258 sec
 * total energy  :  -450.0307835 Eh     change       -0.3827291E-03 Eh
   gradient norm :     0.0089817 Eh/α   predicted    -0.3002875E-03 ( -21.54%)
   displ. norm   :     0.6232252 α      lambda       -0.5489299E-03
   maximum displ.:     0.2667834 α      in ANC's #14, #10, #12, ...

........................................................................
.............................. CYCLE   48 ..............................
........................................................................
   1   -456.7307434 -0.456731E+03  0.391E-02    0.34       0.0  T
   2   -456.7307467 -0.336328E-05  0.223E-02    0.34       1.0  T
   3   -456.7307328  0.139417E-04  0.756E-03    0.34       1.0  T
   4   -456.7307485 -0.157065E-04  0.241E-03    0.34       2.6  T
   5   -456.7307488 -0.302670E-06  0.155E-03    0.34       4.0  T
   6   -456.7307491 -0.337147E-06  0.858E-04    0.34       7.2  T
   7   -456.7307492 -0.628781E-07  0.596E-04    0.34      10.4  T
     SCC iter.                  ...        0 min,  0.552 sec
     gradient                   ...        0 min,  0.258 sec
 * total energy  :  -450.0312366 Eh     change       -0.4530882E-03 Eh
   gradient norm :     0.0082452 Eh/α   predicted    -0.3810713E-03 ( -15.89%)
   displ. norm   :     0.7038675 α      lambda       -0.6126809E-03
   maximum displ.:     0.3027401 α      in ANC's #14, #10, #12, ...

........................................................................
.............................. CYCLE   49 ..............................
........................................................................
   1   -456.7307468 -0.456731E+03  0.499E-02    0.35       0.0  T
   2   -456.7307534 -0.654184E-05  0.280E-02    0.35       1.0  T
   3   -456.7307415  0.118621E-04  0.743E-03    0.35       1.0  T
   4   -456.7307561 -0.145620E-04  0.260E-03    0.35       2.4  T
   5   -456.7307564 -0.351944E-06  0.172E-03    0.35       3.6  T
   6   -456.7307569 -0.490775E-06  0.817E-04    0.35       7.6  T
   7   -456.7307570 -0.391659E-07  0.606E-04    0.35      10.2  T
     SCC iter.                  ...        0 min,  0.558 sec
     gradient                   ...        0 min,  0.257 sec
 * total energy  :  -450.0316910 Eh     change       -0.4543921E-03 Eh
   gradient norm :     0.0095723 Eh/α   predicted    -0.4581188E-03 (   0.82%)
   displ. norm   :     0.6810383 α      lambda       -0.6604393E-03
   maximum displ.:     0.2956319 α      in ANC's #14, #10, #12, ...

........................................................................
.............................. CYCLE   50 ..............................
........................................................................
   1   -456.7320609 -0.456732E+03  0.451E-02    0.35       0.0  T
   2   -456.7320661 -0.523743E-05  0.253E-02    0.35       1.0  T
   3   -456.7320559  0.102471E-04  0.715E-03    0.35       1.0  T
   4   -456.7320683 -0.124126E-04  0.238E-03    0.35       2.6  T
   5   -456.7320685 -0.198867E-06  0.157E-03    0.35       3.9  T
   6   -456.7320689 -0.439187E-06  0.807E-04    0.35       7.7  T
   7   -456.7320690 -0.517426E-07  0.596E-04    0.35      10.4  T
     SCC iter.                  ...        0 min,  0.648 sec
     gradient                   ...        0 min,  0.270 sec
 * total energy  :  -450.0322265 Eh     change       -0.5355160E-03 Eh
   gradient norm :     0.0086800 Eh/α   predicted    -0.4833829E-03 (  -9.74%)
   displ. norm   :     0.7225486 α      lambda       -0.6189165E-03
   maximum displ.:     0.3156571 α      in ANC's #14, #10, #12, ...

........................................................................
.............................. CYCLE   51 ..............................
........................................................................
   1   -456.7341787 -0.456734E+03  0.340E-02    0.35       0.0  T
   2   -456.7341812 -0.254356E-05  0.194E-02    0.35       1.0  T
   3   -456.7341711  0.101861E-04  0.655E-03    0.35       1.0  T
   4   -456.7341822 -0.111770E-04  0.237E-03    0.35       2.6  T
   5   -456.7341826 -0.325973E-06  0.153E-03    0.35       4.0  T
   6   -456.7341830 -0.473317E-06  0.735E-04    0.35       8.4  T
   7   -456.7341831 -0.356009E-07  0.560E-04    0.35      11.1  T
     SCC iter.                  ...        0 min,  0.638 sec
     gradient                   ...        0 min,  0.270 sec
 * total energy  :  -450.0327880 Eh     change       -0.5615333E-03 Eh
   gradient norm :     0.0073358 Eh/α   predicted    -0.4710231E-03 ( -16.12%)
   displ. norm   :     0.7732796 α      lambda       -0.7108751E-03
   maximum displ.:     0.3396689 α      in ANC's #14, #10, #12, ...

........................................................................
.............................. CYCLE   52 ..............................
........................................................................
   1   -456.7370365 -0.456737E+03  0.434E-02    0.35       0.0  T
   2   -456.7370413 -0.472625E-05  0.246E-02    0.35       1.0  T
   3   -456.7370192  0.220607E-04  0.883E-03    0.35       1.0  T
   4   -456.7370437 -0.245264E-04  0.270E-03    0.35       2.3  T
   5   -456.7370444 -0.711289E-06  0.170E-03    0.35       3.6  T
   6   -456.7370450 -0.517838E-06  0.838E-04    0.35       7.4  T
   7   -456.7370450 -0.528763E-07  0.620E-04    0.35      10.0  T
     SCC iter.                  ...        0 min,  0.576 sec
     gradient                   ...        0 min,  0.260 sec
 * total energy  :  -450.0334035 Eh     change       -0.6154740E-03 Eh
[...]
    26   6 C       27   6 C                                       1.3932244
    27   6 C       29   6 C                                       1.3890606
    24   6 C       30   6 C                                       1.3946481
    29   6 C       30   6 C                                       1.3815781
    23   7 N       31   6 C                                       1.4180239
    31   6 C       32   6 C                                       1.3883171
    32   6 C       33   6 C                                       1.3825640
    33   6 C       34   6 C                                       1.3879519
    34   6 C       36   6 C                                       1.3915975
    31   6 C       37   6 C                                       1.3913248
    36   6 C       37   6 C                                       1.3782428
    22   6 C       38   6 C                                       1.4169680
    38   6 C       39  16 S                                       1.7259776
    39  16 S       40   6 C                                       1.7587495
    40   6 C       41   6 C                                       1.3794611
    41   6 C       42   7 N                                       1.3802753
    42   7 N       43   6 C                                       1.3992131
    43   6 C       44   6 C                                       1.3936941
    44   6 C       45   6 C                                       1.3797337
    45   6 C       46   6 C                                       1.3907379
    46   6 C       48   6 C                                       1.3879564
    43   6 C       49   6 C                                       1.3926944
    48   6 C       49   6 C                                       1.3813429
    42   7 N       50   6 C                                       1.4071947
    50   6 C       51   6 C                                       1.3922420
    51   6 C       52   6 C                                       1.3796154
    52   6 C       53   6 C                                       1.3902661
    53   6 C       55   6 C                                       1.3891699
    50   6 C       56   6 C                                       1.3906126
    55   6 C       56   6 C                                       1.3812367
    38   6 C       57   6 C                                       1.3876666
    41   6 C       57   6 C                                       1.4205534
    57   6 C       58  16 S                                       1.7240531
    40   6 C       59   6 C                                       1.4406915
    59   6 C       60   6 C                                       1.3732930
    61   6 C       62   6 C                                       1.3900950
    62   6 C       63   6 C                                       1.3813966
    63   6 C       64   6 C                                       1.3840839
    64   6 C       65   6 C                                       1.3822880
    61   6 C       66   6 C                                       1.3949637
    65   6 C       66   6 C                                       1.3898290
    67   6 C       68   6 C                                       1.5303591
    60   6 C       69   6 C                                       1.4112442
    69   6 C       70  16 S                                       1.7495200
    70  16 S       71   6 C                                       1.7351522
    71   6 C       72   6 C                                       1.4151511
    72   6 C       73   6 C                                       1.4129430
    73   6 C       74   6 C                                       1.4429089
    74   6 C       75   7 N                                       1.3225977
    75   7 N       76  16 S                                       1.6186967
    73   6 C       77   7 N                                       1.3229062
    76  16 S       77   7 N                                       1.6179639
    74   6 C       78   6 C                                       1.4144642
    78   6 C       79   6 C                                       1.4083190
    79   6 C       80  16 S                                       1.7405659
    80  16 S       81   6 C                                       1.7568269
    81   6 C       82   6 C                                       1.4075088
    83   6 C       84   6 C                                       1.3977113
    85   6 C       86   6 C                                       1.5297988
    84   6 C       87   6 C                                       1.3891074
    87   6 C       88   6 C                                       1.3821466
    88   6 C       89   6 C                                       1.3840738
    83   6 C       90   6 C                                       1.3898630
    89   6 C       90   6 C                                       1.3826413
    82   6 C       91   6 C                                       1.3871774
    91   6 C       92  16 S                                       1.7578593
    81   6 C       93   6 C                                       1.3975357
    92  16 S       93   6 C                                       1.7222455
    79   6 C       94   6 C                                       1.3989680
    93   6 C       94   6 C                                       1.3965098
    94   6 C       95   7 N                                       1.3680564
    78   6 C       96   6 C                                       1.4239926
    95   7 N       96   6 C                                       1.3805580
    72   6 C       97   6 C                                       1.4147528
    96   6 C       97   6 C                                       1.4111121
    97   6 C       98   7 N                                       1.3973806
    71   6 C       99   6 C                                       1.3960211
    98   7 N       99   6 C                                       1.3844207
    69   6 C      100   6 C                                       1.3955449
    99   6 C      100   6 C                                       1.4009646
    59   6 C      101  16 S                                       1.7555216
   100   6 C      101  16 S                                       1.7265765
    98   7 N      102   6 C                                       1.4572109
   102   6 C      103   6 C                                       1.5233571
    95   7 N      104   6 C                                       1.4459519
   104   6 C      105   6 C                                       1.5273087
    91   6 C      106   6 C                                       1.4225057
   106   6 C      107   6 C                                       1.3680577
   107   6 C      108   6 C                                       1.4131574
   108   6 C      109   6 C                                       1.4110059
   110   6 C      111   6 C                                       1.3676765
   111   6 C      112   6 C                                       1.4033815
   112   6 C      113  16 S                                       1.7231556
   113  16 S      114   6 C                                       1.7499117
   115  14 Si     116   6 C                                       1.9127010
   116   6 C      117   6 C                                       1.5254920
   115  14 Si     118   6 C                                       1.9118017
   118   6 C      119   6 C                                       1.5252578
   115  14 Si     120   6 C                                       1.9124545
   120   6 C      121   6 C                                       1.5255902
   114   6 C      122   6 C                                       1.3648362
   112   6 C      123   6 C                                       1.3916079
   122   6 C      123   6 C                                       1.4046233
   110   6 C      124  16 S                                       1.7533721
   123   6 C      124  16 S                                       1.7287339
   109   6 C      125   6 C                                       1.3875624
   125   6 C      126   6 C                                       1.4195313
   126   6 C      127   6 C                                       1.4136069
   128   6 C      129  16 S                                       1.7550371
   129  16 S      130   6 C                                       1.7275627
   130   6 C      131   6 C                                       1.4042817
   131   6 C      132   6 C                                       1.3654072
   133  14 Si     134   6 C                                       1.9163732
   134   6 C      135   6 C                                       1.5254366
   133  14 Si     136   6 C                                       1.9112014
   136   6 C      137   6 C                                       1.5243657
   133  14 Si     138   6 C                                       1.9167436 (max)
   138   6 C      139   6 C                                       1.5247541
   132   6 C      140  16 S                                       1.7513314
   130   6 C      141   6 C                                       1.3919611
   140  16 S      141   6 C                                       1.7244932
   128   6 C      142   6 C                                       1.3684743
   141   6 C      142   6 C                                       1.4046901
   108   6 C      143   6 C                                       1.4187875
   127   6 C      143   6 C                                       1.3819478
   106   6 C      144  16 S                                       1.7587999
   143   6 C      144  16 S                                       1.7387952
   126   6 C      145   6 C                                       1.4022289
   145   6 C      146   6 C                                       1.3735409
   125   6 C      147  16 S                                       1.7429222
   146   6 C      147  16 S                                       1.7533382
   146   6 C      148   6 C                                       1.4144058
   148   6 C      149   6 C                                       1.3631778
   150   6 C      151   8 O                                       1.2057805
   152   6 C      153   6 C                                       1.3846274
   153   6 C      154  17 Cl                                      1.7056273
   153   6 C      155   6 C                                       1.4038265
   155   6 C      156  17 Cl                                      1.7080606
   155   6 C      157   6 C                                       1.3946044
   157   6 C      158  17 Cl                                      1.7070530
   157   6 C      159   6 C                                       1.4029900
   159   6 C      160  17 Cl                                      1.7105129
   152   6 C      161   6 C                                       1.4092433
   159   6 C      161   6 C                                       1.3871440
   162   6 C      163   6 C                                       1.3705323
   164   6 C      165   7 N                                       1.1479648
   166   6 C      167   7 N                                       1.1480003
     1   6 C      168   1 H                                       1.0831027
    25   6 C      169   1 H                                       1.0798453
    26   6 C      170   1 H                                       1.0804520
    28   6 C      171   1 H                                       1.0890223
    28   6 C      172   1 H                                       1.0869110
    28   6 C      173   1 H                                       1.0897276
    29   6 C      174   1 H                                       1.0805928
    30   6 C      175   1 H                                       1.0793529
    32   6 C      176   1 H                                       1.0783407
    33   6 C      177   1 H                                       1.0798516
    35   6 C      178   1 H                                       1.0862585
    35   6 C      179   1 H                                       1.0896101
    35   6 C      180   1 H                                       1.0891464
    36   6 C      181   1 H                                       1.0800862
    37   6 C      182   1 H                                       1.0804774
    44   6 C      183   1 H                                       1.0795245
    45   6 C      184   1 H                                       1.0807732
    47   6 C      185   1 H                                       1.0884335
    47   6 C      186   1 H                                       1.0905368
    47   6 C      187   1 H                                       1.0871830
    48   6 C      188   1 H                                       1.0808087
    49   6 C      189   1 H                                       1.0799856
    51   6 C      190   1 H                                       1.0803340
    52   6 C      191   1 H                                       1.0800372
    54   6 C      192   1 H                                       1.0885470
    54   6 C      193   1 H                                       1.0869593
    54   6 C      194   1 H                                       1.0898304
    55   6 C      195   1 H                                       1.0804711
    56   6 C      196   1 H                                       1.0801235
    62   6 C      197   1 H                                       1.0800779
    63   6 C      198   1 H                                       1.0796496
    64   6 C      199   1 H                                       1.0797470
    65   6 C      200   1 H                                       1.0811030
    67   6 C      201   1 H                                       1.0896876
    67   6 C      202   1 H                                       1.0927099
    68   6 C      203   1 H                                       1.0874806
    68   6 C      204   1 H                                       1.0878023
    68   6 C      205   1 H                                       1.0874971
    85   6 C      206   1 H                                       1.0927116
    85   6 C      207   1 H                                       1.0909215
    86   6 C      208   1 H                                       1.0874091
    86   6 C      209   1 H                                       1.0874972
    86   6 C      210   1 H                                       1.0873158
    87   6 C      211   1 H                                       1.0809230
    88   6 C      212   1 H                                       1.0795426
    89   6 C      213   1 H                                       1.0793854
    90   6 C      214   1 H                                       1.0804873
   102   6 C      215   1 H                                       1.0916038
   102   6 C      216   1 H                                       1.0988815
   103   6 C      217   1 H                                       1.0871014
   103   6 C      218   1 H                                       1.0856402
   103   6 C      219   1 H                                       1.0856385
   104   6 C      220   1 H                                       1.0932094
   104   6 C      221   1 H                                       1.0856816
   105   6 C      222   1 H                                       1.0863228
   105   6 C      223   1 H                                       1.0872677
   105   6 C      224   1 H                                       1.0871644
   107   6 C      225   1 H                                       1.0729470 (min)
   111   6 C      226   1 H                                       1.0746965
   116   6 C      227   1 H                                       1.0903255
   116   6 C      228   1 H                                       1.0910408
   117   6 C      229   1 H                                       1.0884389
   117   6 C      230   1 H                                       1.0869482
   117   6 C      231   1 H                                       1.0873760
   118   6 C      232   1 H                                       1.0900718
   118   6 C      233   1 H                                       1.0904390
   119   6 C      234   1 H                                       1.0885345
   119   6 C      235   1 H                                       1.0873069
   119   6 C      236   1 H                                       1.0870396
   120   6 C      237   1 H                                       1.0913605
   120   6 C      238   1 H                                       1.0912204
   121   6 C      239   1 H                                       1.0873207
   121   6 C      240   1 H                                       1.0869941
   121   6 C      241   1 H                                       1.0886023
   122   6 C      242   1 H                                       1.0742161
   131   6 C      243   1 H                                       1.0735845
   134   6 C      244   1 H                                       1.0913470
   134   6 C      245   1 H                                       1.0915643
   135   6 C      246   1 H                                       1.0875249
   135   6 C      247   1 H                                       1.0872388
   135   6 C      248   1 H                                       1.0882475
   136   6 C      249   1 H                                       1.0907813
   136   6 C      250   1 H                                       1.0907262
   137   6 C      251   1 H                                       1.0869448
   137   6 C      252   1 H                                       1.0885106
   137   6 C      253   1 H                                       1.0871989
   138   6 C      254   1 H                                       1.0913802
   138   6 C      255   1 H                                       1.0912278
   139   6 C      256   1 H                                       1.0889458
   139   6 C      257   1 H                                       1.0870923
   139   6 C      258   1 H                                       1.0867648
   142   6 C      259   1 H                                       1.0751321
   145   6 C      260   1 H                                       1.0748231
   148   6 C      261   1 H                                       1.0832649

 * 8 distinct bonds (by element types)

   Z      Z             #   av. dist./Å        max./Å        min./Å
   1 H    6 C          94     1.0855741     1.0988815     1.0729470
   6 C    6 C         110     1.4068338     1.5303591     1.3631778
   6 C    7 N          18     1.3354024     1.4572109     1.1479648
   6 C    8 O           2     1.2113431     1.2169057     1.2057805
   6 C   14 Si          6     1.9135459     1.9167436     1.9112014
   6 C   16 S          23     1.7417609     1.7587999     1.7222455
   7 N   16 S           2     1.6183303     1.6186967     1.6179639
   6 C   17 Cl          8     1.7095195     1.7156778     1.7056273


optimized geometry written to: xtbopt.mol


           -------------------------------------------------
          | TOTAL ENERGY             -450.077404586146 Eh   |
          | GRADIENT NORM               0.000415868192 Eh/α |
          | HOMO-LUMO GAP               0.366906436763 eV   |
           -------------------------------------------------

------------------------------------------------------------------------
 * finished run on 2022/02/08 at 13:50:05.225     
------------------------------------------------------------------------
 total:
 * wall-time:     0 d,  0 h,  7 min, 12.846 sec
 *  cpu-time:     0 d,  0 h, 57 min, 36.634 sec
 * ratio c/w:     7.986 speedup
 SCF:
 * wall-time:     0 d,  0 h,  0 min,  2.022 sec
 *  cpu-time:     0 d,  0 h,  0 min, 16.174 sec
 * ratio c/w:     7.999 speedup
 ANC optimizer:
 * wall-time:     0 d,  0 h,  7 min, 10.604 sec
 *  cpu-time:     0 d,  0 h, 57 min, 18.907 sec
 * ratio c/w:     7.986 speedup

