      -----------------------------------------------------------      
     |                   =====================                   |     
     |                           x T B                           |     
     |                   =====================                   |     
     |                         S. Grimme                         |     
     |          Mulliken Center for Theoretical Chemistry        |     
     |                    University of Bonn                     |     
      -----------------------------------------------------------      

   * xtb version 6.4.1 (unknown) compiled by 'oda6@login1.crc.pitt.edu' on 2021-06-25

   xtb is free software: you can redistribute it and/or modify it under
   the terms of the GNU Lesser General Public License as published by
   the Free Software Foundation, either version 3 of the License, or
   (at your option) any later version.
   
   xtb is distributed in the hope that it will be useful,
   but WITHOUT ANY WARRANTY; without even the implied warranty of
   MERCHANTABILITY or FITNESS FOR A PARTICULAR PURPOSE.  See the
   GNU Lesser General Public License for more details.
   
   Cite this work as:
   * C. Bannwarth, E. Caldeweyher, S. Ehlert, A. Hansen, P. Pracht,
     J. Seibert, S. Spicher, S. Grimme, WIREs Comput. Mol. Sci., 2020, 11,
     e01493. DOI: 10.1002/wcms.1493
   
   for GFN2-xTB:
   * C. Bannwarth, S. Ehlert and S. Grimme., J. Chem. Theory Comput., 2019,
     15, 1652-1671. DOI: 10.1021/acs.jctc.8b01176
   for GFN1-xTB:
   * S. Grimme, C. Bannwarth, P. Shushkov, J. Chem. Theory Comput., 2017,
     13, 1989-2009. DOI: 10.1021/acs.jctc.7b00118
   for GFN0-xTB:
   * P. Pracht, E. Caldeweyher, S. Ehlert, S. Grimme, ChemRxiv, 2019, preprint.
     DOI: 10.26434/chemrxiv.8326202.v1
   for GFN-FF:
   * S. Spicher and S. Grimme, Angew. Chem. Int. Ed., 2020, 59, 15665-15673.
     DOI: 10.1002/anie.202004239
   
   for DFT-D4:
   * E. Caldeweyher, C. Bannwarth and S. Grimme, J. Chem. Phys., 2017,
     147, 034112. DOI: 10.1063/1.4993215
   * E. Caldeweyher, S. Ehlert, A. Hansen, H. Neugebauer, S. Spicher,
     C. Bannwarth and S. Grimme, J. Chem. Phys., 2019, 150, 154122.
     DOI: 10.1063/1.5090222
   * E. Caldeweyher, J.-M. Mewes, S. Ehlert and S. Grimme, Phys. Chem. Chem. Phys.
     2020, 22, 8499-8512. DOI: 10.1039/D0CP00502A
   
   for sTDA-xTB:
   * S. Grimme and C. Bannwarth, J. Chem. Phys., 2016, 145, 054103.
     DOI: 10.1063/1.4959605
   
   in the mass-spec context:
   * V. Asgeirsson, C. Bauer and S. Grimme, Chem. Sci., 2017, 8, 4879.
     DOI: 10.1039/c7sc00601b
   * J. Koopman and S. Grimme, ACS Omega 2019, 4, 12, 15120-15133.
     DOI: 10.1021/acsomega.9b02011
   
   for metadynamics refer to:
   * S. Grimme, J. Chem. Theory Comput., 2019, 155, 2847-2862
     DOI: 10.1021/acs.jctc.9b00143
   
   for SPH calculations refer to:
   * S. Spicher and S. Grimme, J. Chem. Theory Comput., 2021, 17, 1701-1714
     DOI: 10.1021/acs.jctc.0c01306
   
   with help from (in alphabetical order)
   P. Atkinson, C. Bannwarth, F. Bohle, G. Brandenburg, E. Caldeweyher
   M. Checinski, S. Dohm, S. Ehlert, S. Ehrlich, I. Gerasimov, J. Koopman
   C. Lavigne, S. Lehtola, F. März, M. Müller, F. Musil, H. Neugebauer
   J. Pisarek, C. Plett, P. Pracht, J. Seibert, P. Shushkov, S. Spicher
   M. Stahn, M. Steiner, T. Strunk, J. Stückrath, T. Rose, and J. Unsleber
   
 * started run on 2022/02/07 at 08:11:34.795     

           -------------------------------------------------
          |                Calculation Setup                |
           -------------------------------------------------

          program call               : /ihome/ghutchison/oda6/xtb/xtb-641/bin/xtb ../../FF_optimized/6_28_100_28_17.mol -opt
          hostname                   : smp-n26
          coordinate file            : ../../FF_optimized/6_28_100_28_17.mol
          omp threads                :                     8
          number of atoms            :                   249
          number of electrons        :                   754
          charge                     :                     0
          spin                       :                   0.0
          first test random number   :      0.66238264800167

   ID    Z sym.   atoms
    1    6 C      1-3, 5-8, 10-14, 16, 18, 19, 21-35, 37, 38, 40-54, 56-66,
                  68-71, 75, 76, 78-88, 90, 91, 93, 94, 96, 97, 99-104,
                  106-120, 122, 123, 125-139, 141-143, 145-153, 155
    2    8 O      4, 144
    3   17 Cl     9
    4    7 N      15, 17, 20, 39, 72, 74, 92, 95, 105, 124, 154, 156
    5   16 S      36, 55, 67, 73, 77, 89, 98, 121, 140
    6    1 H      157-249
########################################################################
[WARNING] Please study the warnings concerning your input carefully
-1- prog_main_parseArguments: the use of '-opt' is discouraged, please use '--opt' next time
########################################################################

           -------------------------------------------------
          |                 G F N 2 - x T B                 |
           -------------------------------------------------

        Reference                      10.1021/acs.jctc.8b01176
      * Hamiltonian:
        H0-scaling (s, p, d)           1.850000    2.230000    2.230000
        zeta-weighting                 0.500000
      * Dispersion:
        s8                             2.700000
        a1                             0.520000
        a2                             5.000000
        s9                             5.000000
      * Repulsion:
        kExp                           1.500000    1.000000
        rExp                           1.000000
      * Coulomb:
        alpha                          2.000000
        third order                    shell-resolved
        anisotropic                    true
        a3                             3.000000
        a5                             4.000000
        cn-shift                       1.200000
        cn-exp                         4.000000
        max-rad                        5.000000


          ...................................................
          :                      SETUP                      :
          :.................................................:
          :  # basis functions                 777          :
          :  # atomic orbitals                 767          :
          :  # shells                          415          :
          :  # electrons                       754          :
          :  max. iterations                   250          :
          :  Hamiltonian                  GFN2-xTB          :
          :  restarted?                      false          :
          :  GBSA solvation                  false          :
          :  PC potential                    false          :
          :  electronic temp.          300.0000000     K    :
          :  accuracy                    1.0000000          :
          :  -> integral cutoff          0.2500000E+02      :
          :  -> integral neglect         0.1000000E-07      :
          :  -> SCF convergence          0.1000000E-05 Eh   :
          :  -> wf. convergence          0.1000000E-03 e    :
          :  Broyden damping             0.4000000          :
          ...................................................

 iter      E             dE          RMSdq      gap      omega  full diag
   1   -412.8797642 -0.412880E+03  0.454E+00    1.17       0.0  T
   2   -413.1507171 -0.270953E+00  0.273E+00    0.68       1.0  T
   3   -412.7151108  0.435606E+00  0.179E+00    0.17       1.0  T
   4   -413.2865724 -0.571462E+00  0.647E-01    0.43       1.0  T
   5   -413.3566335 -0.700612E-01  0.224E-01    0.13       1.0  T
   6   -413.3647539 -0.812040E-02  0.147E-01    0.54       1.0  T
   7   -413.3711054 -0.635145E-02  0.642E-02    0.40       1.0  T
   8   -413.3717015 -0.596111E-03  0.327E-02    0.33       1.0  T
   9   -413.3717300 -0.284725E-04  0.248E-02    0.25       1.0  T
  10   -413.3718068 -0.768697E-04  0.164E-02    0.27       1.0  T
  11   -413.3718299 -0.231111E-04  0.110E-02    0.27       1.0  T
  12   -413.3718390 -0.902792E-05  0.849E-03    0.26       1.0  T
  13   -413.3718433 -0.429198E-05  0.631E-03    0.27       1.0  T
  14   -413.3718463 -0.308294E-05  0.410E-03    0.26       1.5  T
  15   -413.3718505 -0.414716E-05  0.196E-03    0.27       3.2  T
  16   -413.3718511 -0.597473E-06  0.921E-04    0.27       6.9  T
  17   -413.3718512 -0.880761E-07  0.443E-04    0.27      14.3  T

   *** convergence criteria satisfied after 17 iterations ***

         #    Occupation            Energy/Eh            Energy/eV
      -------------------------------------------------------------
         1        2.0000           -1.0763449             -29.2888
       ...           ...                  ...                  ...
       371        2.0000           -0.3727820             -10.1439
       372        2.0000           -0.3647039              -9.9241
       373        2.0000           -0.3604331              -9.8079
       374        2.0000           -0.3591801              -9.7738
       375        2.0000           -0.3551406              -9.6639
       376        1.9994           -0.3501789              -9.5289
       377        1.9886           -0.3473992              -9.4532 (HOMO)
       378        0.0119           -0.3376262              -9.1873 (LUMO)
       379        0.0001           -0.3333291              -9.0703
       380        0.0000           -0.3283051              -8.9336
       381                         -0.3237962              -8.8109
       382                         -0.2983442              -8.1184
       ...                                ...                  ...
       767                          1.0781210              29.3372
      -------------------------------------------------------------
                  HL-Gap            0.0097730 Eh            0.2659 eV
             Fermi-level           -0.3424927 Eh           -9.3197 eV

 SCC (total)                   0 d,  0 h,  0 min,  1.198 sec
 SCC setup                      ...        0 min,  0.004 sec (  0.359%)
 Dispersion                     ...        0 min,  0.014 sec (  1.185%)
 classical contributions        ...        0 min,  0.001 sec (  0.048%)
 integral evaluation            ...        0 min,  0.052 sec (  4.365%)
 iterations                     ...        0 min,  0.905 sec ( 75.603%)
 molecular gradient             ...        0 min,  0.216 sec ( 18.017%)
 printout                       ...        0 min,  0.005 sec (  0.416%)

         :::::::::::::::::::::::::::::::::::::::::::::::::::::
         ::                     SUMMARY                     ::
         :::::::::::::::::::::::::::::::::::::::::::::::::::::
         :: total energy            -406.874404841571 Eh    ::
         :: gradient norm              0.349962290522 Eh/a0 ::
         :: HOMO-LUMO gap              0.265937185245 eV    ::
         ::.................................................::
         :: SCC energy              -413.371851176014 Eh    ::
         :: -> isotropic ES            0.142444175960 Eh    ::
         :: -> anisotropic ES          0.039207014038 Eh    ::
         :: -> anisotropic XC          0.257021363431 Eh    ::
         :: -> dispersion             -0.453959596541 Eh    ::
         :: repulsion energy           6.468655614674 Eh    ::
         :: add. restraining           0.000000000000 Eh    ::
         :: total charge               0.000000000000 e     ::
         :::::::::::::::::::::::::::::::::::::::::::::::::::::

      ----------------------------------------------------------- 
     |                   =====================                   |
     |                        A N C O P T                        |
     |                   =====================                   |
     |               Approximate Normal Coordinate               |
     |                Rational Function Optimizer                |
      ----------------------------------------------------------- 

          ...................................................
          :                      SETUP                      :
          :.................................................:
          :   optimization level            normal          :
          :   max. optcycles                   747          :
          :   ANC micro-cycles                  20          :
          :   degrees of freedom               741          :
          :.................................................:
          :   RF solver                   davidson          :
          :   write xtbopt.log                true          :
          :   linear?                        false          :
          :   energy convergence         0.5000000E-05 Eh   :
          :   grad. convergence          0.1000000E-02 Eh/α :
          :   maximium RF displ.         1.0000000          :
          :   Hlow (freq-cutoff)         0.1000000E-01      :
          :   Hmax (freq-cutoff)         5.0000000          :
          :   S6 in model hess.         20.0000000          :
          ...................................................

generating ANC from model Hessian ...
Using Lindh-Hessian (1995)
 Shifting diagonal of input Hessian by   1.005461785591512E-002
 Lowest  eigenvalues of input Hessian
    0.010000    0.010045    0.000000    0.000000    0.000000    0.000000
    0.000000    0.000000    0.010061    0.010083    0.010103    0.010123
    0.010141    0.010153    0.010162    0.010173    0.010200    0.010219
 Highest eigenvalues
    2.264385    2.285477    2.497170    2.505968    2.552556    2.559100
 

........................................................................
.............................. CYCLE    1 ..............................
........................................................................
   1   -413.3718512 -0.413372E+03  0.232E-04    0.27       0.0  T
   2   -413.3718512  0.111424E-08  0.198E-04    0.27      32.1  T
   3   -413.3718512 -0.612351E-08  0.124E-04    0.27      51.0  T
     SCC iter.                  ...        0 min,  0.171 sec
     gradient                   ...        0 min,  0.211 sec
 * total energy  :  -406.8744049 Eh     change       -0.3013474E-07 Eh
   gradient norm :     0.3499655 Eh/α   predicted     0.0000000E+00 (-100.00%)
   displ. norm   :     0.5265887 α      lambda       -0.1436957E+00
   maximum displ.:     0.0883194 α      in ANC's #524, #474, #410, ...

........................................................................
.............................. CYCLE    2 ..............................
........................................................................
   1   -413.6103216 -0.413610E+03  0.276E-01    0.26       0.0  T
   2   -413.6117681 -0.144653E-02  0.168E-01    0.35       1.0  T
   3   -413.6099413  0.182679E-02  0.102E-01    0.21       1.0  T
   4   -413.6120346 -0.209327E-02  0.515E-02    0.37       1.0  T
   5   -413.6128238 -0.789227E-03  0.221E-02    0.29       1.0  T
   6   -413.6128817 -0.578583E-04  0.935E-03    0.28       1.0  T
   7   -413.6128880 -0.637144E-05  0.560E-03    0.28       1.1  T
   8   -413.6128925 -0.448915E-05  0.327E-03    0.28       1.9  T
   9   -413.6128937 -0.115909E-05  0.226E-03    0.28       2.8  T
  10   -413.6128941 -0.438720E-06  0.160E-03    0.28       4.0  T
  11   -413.6128943 -0.205545E-06  0.115E-03    0.28       5.5  T
  12   -413.6128945 -0.131159E-06  0.780E-04    0.28       8.1  T
  13   -413.6128945 -0.751576E-07  0.425E-04    0.28      14.9  T
     SCC iter.                  ...        0 min,  0.702 sec
     gradient                   ...        0 min,  0.211 sec
 * total energy  :  -406.9814954 Eh     change       -0.1070905E+00 Eh
   gradient norm :     0.1715061 Eh/α   predicted    -0.9181036E-01 ( -14.27%)
   displ. norm   :     0.5312188 α      lambda       -0.6588753E-01
   maximum displ.:     0.0786204 α      in ANC's #262, #214, #232, ...

........................................................................
.............................. CYCLE    3 ..............................
........................................................................
   1   -413.7685007 -0.413769E+03  0.225E-01    0.24       0.0  T
   2   -413.7693958 -0.895053E-03  0.140E-01    0.37       1.0  T
   3   -413.7679194  0.147642E-02  0.952E-02    0.21       1.0  T
   4   -413.7700566 -0.213725E-02  0.477E-02    0.36       1.0  T
   5   -413.7707578 -0.701246E-03  0.188E-02    0.30       1.0  T
   6   -413.7707979 -0.400445E-04  0.810E-03    0.28       1.0  T
   7   -413.7708026 -0.473219E-05  0.498E-03    0.28       1.3  T
   8   -413.7708053 -0.265552E-05  0.322E-03    0.28       2.0  T
   9   -413.7708063 -0.106170E-05  0.234E-03    0.28       2.7  T
  10   -413.7708068 -0.445505E-06  0.170E-03    0.28       3.7  T
  11   -413.7708070 -0.240996E-06  0.119E-03    0.28       5.3  T
  12   -413.7708072 -0.166099E-06  0.731E-04    0.28       8.7  T
  13   -413.7708073 -0.685114E-07  0.386E-04    0.28      16.4  T
     SCC iter.                  ...        0 min,  0.684 sec
     gradient                   ...        0 min,  0.210 sec
 * total energy  :  -407.0245459 Eh     change       -0.4305056E-01 Eh
   gradient norm :     0.0552547 Eh/α   predicted    -0.4224028E-01 (  -1.88%)
   displ. norm   :     0.5362170 α      lambda       -0.1850926E-01
   maximum displ.:     0.1030996 α      in ANC's #99, #78, #98, ...

........................................................................
.............................. CYCLE    4 ..............................
........................................................................
   1   -413.8378429 -0.413838E+03  0.124E-01    0.26       0.0  T
   2   -413.8379495 -0.106624E-03  0.785E-02    0.33       1.0  T
   3   -413.8373647  0.584834E-03  0.559E-02    0.24       1.0  T
   4   -413.8382474 -0.882685E-03  0.220E-02    0.32       1.0  T
   5   -413.8383922 -0.144819E-03  0.866E-03    0.29       1.0  T
   6   -413.8384032 -0.109924E-04  0.350E-03    0.29       1.8  T
   7   -413.8384042 -0.101656E-05  0.216E-03    0.29       2.9  T
   8   -413.8384046 -0.434049E-06  0.148E-03    0.29       4.3  T
   9   -413.8384048 -0.136767E-06  0.117E-03    0.29       5.4  T
  10   -413.8384049 -0.124346E-06  0.800E-04    0.29       7.9  T
  11   -413.8384050 -0.690094E-07  0.501E-04    0.29      12.6  T
     SCC iter.                  ...        0 min,  0.580 sec
     gradient                   ...        0 min,  0.217 sec
 * total energy  :  -407.0378344 Eh     change       -0.1328850E-01 Eh
   gradient norm :     0.0314863 Eh/α   predicted    -0.1191568E-01 ( -10.33%)
   displ. norm   :     0.6396113 α      lambda       -0.1136817E-01
   maximum displ.:     0.1806899 α      in ANC's #72, #99, #98, ...

........................................................................
.............................. CYCLE    5 ..............................
........................................................................
   1   -413.8676524 -0.413868E+03  0.207E-01    0.26       0.0  T
   2   -413.8677803 -0.127918E-03  0.119E-01    0.33       1.0  T
   3   -413.8645008  0.327954E-02  0.856E-02    0.20       1.0  T
   4   -413.8679597 -0.345889E-02  0.228E-02    0.35       1.0  T
   5   -413.8681645 -0.204834E-03  0.880E-03    0.30       1.0  T
   6   -413.8681779 -0.134262E-04  0.364E-03    0.29       1.7  T
   7   -413.8681784 -0.514358E-06  0.216E-03    0.29       2.9  T
   8   -413.8681788 -0.380044E-06  0.135E-03    0.29       4.7  T
   9   -413.8681790 -0.192415E-06  0.949E-04    0.29       6.7  T
  10   -413.8681791 -0.887844E-07  0.702E-04    0.29       9.0  T
     SCC iter.                  ...        0 min,  0.548 sec
     gradient                   ...        0 min,  0.211 sec
 * total energy  :  -407.0433705 Eh     change       -0.5536022E-02 Eh
   gradient norm :     0.0401988 Eh/α   predicted    -0.8009460E-02 (  44.68%)
   displ. norm   :     0.6279146 α      lambda       -0.1142858E-01
   maximum displ.:     0.1807423 α      in ANC's #78, #99, #60, ...

........................................................................
.............................. CYCLE    6 ..............................
........................................................................
   1   -413.8881471 -0.413888E+03  0.240E-01    0.31       0.0  T
   2   -413.8882986 -0.151464E-03  0.135E-01    0.35       1.0  T
   3   -413.8861077  0.219093E-02  0.731E-02    0.27       1.0  T
   4   -413.8884933 -0.238568E-02  0.139E-02    0.34       1.0  T
   5   -413.8885409 -0.475690E-04  0.709E-03    0.33       1.0  T
   6   -413.8885497 -0.878749E-05  0.276E-03    0.32       2.3  T
   7   -413.8885504 -0.737387E-06  0.156E-03    0.33       4.1  T
   8   -413.8885509 -0.470372E-06  0.761E-04    0.32       8.3  T
   9   -413.8885510 -0.542358E-07  0.499E-04    0.32      12.7  T
     SCC iter.                  ...        0 min,  0.474 sec
     gradient                   ...        0 min,  0.211 sec
 * total energy  :  -407.0484447 Eh     change       -0.5074280E-02 Eh
   gradient norm :     0.0322154 Eh/α   predicted    -0.7967312E-02 (  57.01%)
   displ. norm   :     0.4170154 α      lambda       -0.4021468E-02
   maximum displ.:     0.1246286 α      in ANC's #72, #60, #93, ...

........................................................................
.............................. CYCLE    7 ..............................
........................................................................
   1   -413.8917090 -0.413892E+03  0.134E-01    0.32       0.0  T
   2   -413.8917466 -0.375736E-04  0.756E-02    0.36       1.0  T
   3   -413.8907994  0.947154E-03  0.487E-02    0.30       1.0  T
   4   -413.8918522 -0.105282E-02  0.689E-03    0.35       1.0  T
   5   -413.8918612 -0.893765E-05  0.348E-03    0.34       1.8  T
   6   -413.8918628 -0.159193E-05  0.166E-03    0.34       3.8  T
   7   -413.8918632 -0.415582E-06  0.827E-04    0.34       7.7  T
   8   -413.8918633 -0.101782E-06  0.482E-04    0.34      13.1  T
     SCC iter.                  ...        0 min,  0.425 sec
     gradient                   ...        0 min,  0.211 sec
 * total energy  :  -407.0512958 Eh     change       -0.2851039E-02 Eh
   gradient norm :     0.0300889 Eh/α   predicted    -0.2360417E-02 ( -17.21%)
   displ. norm   :     0.6745076 α      lambda       -0.6542328E-02
   maximum displ.:     0.1990842 α      in ANC's #72, #78, #43, ...

........................................................................
.............................. CYCLE    8 ..............................
........................................................................
   1   -413.8929862 -0.413893E+03  0.172E-01    0.35       0.0  T
   2   -413.8930976 -0.111357E-03  0.996E-02    0.42       1.0  T
   3   -413.8912451  0.185244E-02  0.724E-02    0.35       1.0  T
   4   -413.8933945 -0.214936E-02  0.136E-02    0.41       1.0  T
   5   -413.8934383 -0.437753E-04  0.601E-03    0.40       1.1  T
   6   -413.8934433 -0.503787E-05  0.300E-03    0.40       2.1  T
   7   -413.8934449 -0.156322E-05  0.147E-03    0.40       4.3  T
   8   -413.8934451 -0.276616E-06  0.888E-04    0.40       7.1  T
   9   -413.8934453 -0.102965E-06  0.576E-04    0.40      11.0  T
     SCC iter.                  ...        0 min,  0.472 sec
     gradient                   ...        0 min,  0.212 sec
 * total energy  :  -407.0543470 Eh     change       -0.3051170E-02 Eh
   gradient norm :     0.0358900 Eh/α   predicted    -0.4759417E-02 (  55.99%)
   displ. norm   :     0.4984017 α      lambda       -0.3155687E-02
   maximum displ.:     0.1171002 α      in ANC's #60, #72, #32, ...

........................................................................
.............................. CYCLE    9 ..............................
........................................................................
   1   -413.8898647 -0.413890E+03  0.108E-01    0.39       0.0  T
   2   -413.8898723 -0.760389E-05  0.627E-02    0.46       1.0  T
   3   -413.8888608  0.101148E-02  0.546E-02    0.39       1.0  T
   4   -413.8900895 -0.122870E-02  0.965E-03    0.44       1.0  T
   5   -413.8901088 -0.192991E-04  0.417E-03    0.44       1.5  T
   6   -413.8901117 -0.290017E-05  0.196E-03    0.44       3.2  T
   7   -413.8901124 -0.731470E-06  0.977E-04    0.44       6.5  T
   8   -413.8901126 -0.167813E-06  0.439E-04    0.44      14.4  T
     SCC iter.                  ...        0 min,  0.423 sec
     gradient                   ...        0 min,  0.211 sec
 * total energy  :  -407.0568536 Eh     change       -0.2506671E-02 Eh
   gradient norm :     0.0229830 Eh/α   predicted    -0.1969789E-02 ( -21.42%)
   displ. norm   :     0.6755635 α      lambda       -0.4178757E-02
   maximum displ.:     0.1608005 α      in ANC's #60, #43, #55, ...

........................................................................
.............................. CYCLE   10 ..............................
........................................................................
   1   -413.9022812 -0.413902E+03  0.152E-01    0.42       0.0  T
   2   -413.9023016 -0.204553E-04  0.878E-02    0.51       1.0  T
   3   -413.9003092  0.199241E-02  0.752E-02    0.42       1.0  T
   4   -413.9027074 -0.239818E-02  0.125E-02    0.49       1.0  T
   5   -413.9027431 -0.356516E-04  0.531E-03    0.48       1.2  T
   6   -413.9027469 -0.386194E-05  0.234E-03    0.48       2.7  T
   7   -413.9027477 -0.788340E-06  0.125E-03    0.48       5.1  T
   8   -413.9027479 -0.236023E-06  0.646E-04    0.48       9.8  T
   9   -413.9027480 -0.827173E-07  0.353E-04    0.48      18.0  T
     SCC iter.                  ...        0 min,  0.473 sec
     gradient                   ...        0 min,  0.211 sec
 * total energy  :  -407.0587340 Eh     change       -0.1880330E-02 Eh
   gradient norm :     0.0427849 Eh/α   predicted    -0.3042946E-02 (  61.83%)
   displ. norm   :     0.5204946 α      lambda       -0.3257477E-02
   maximum displ.:     0.1382954 α      in ANC's #32, #43, #60, ...

........................................................................
.............................. CYCLE   11 ..............................
........................................................................
   1   -413.9028443 -0.413903E+03  0.124E-01    0.49       0.0  T
   2   -413.9028572 -0.129386E-04  0.708E-02    0.55       1.0  T
   3   -413.9016138  0.124337E-02  0.596E-02    0.48       1.0  T
   4   -413.9030914 -0.147759E-02  0.980E-03    0.54       1.0  T
   5   -413.9031137 -0.222719E-04  0.396E-03    0.53       1.6  T
   6   -413.9031157 -0.200612E-05  0.195E-03    0.53       3.3  T
   7   -413.9031164 -0.722347E-06  0.968E-04    0.53       6.5  T
   8   -413.9031166 -0.170583E-06  0.455E-04    0.53      13.9  T
     SCC iter.                  ...        0 min,  0.419 sec
     gradient                   ...        0 min,  0.211 sec
 * total energy  :  -407.0612544 Eh     change       -0.2520417E-02 Eh
   gradient norm :     0.0265865 Eh/α   predicted    -0.2070002E-02 ( -17.87%)
   displ. norm   :     0.6462810 α      lambda       -0.2774869E-02
   maximum displ.:     0.1648529 α      in ANC's #32, #43, #41, ...

........................................................................
.............................. CYCLE   12 ..............................
........................................................................
   1   -413.9003004 -0.413900E+03  0.121E-01    0.54       0.0  T
   2   -413.9002819  0.185204E-04  0.718E-02    0.61       1.0  T
   3   -413.8991440  0.113795E-02  0.627E-02    0.54       1.0  T
   4   -413.9006276 -0.148367E-02  0.117E-02    0.59       1.0  T
   5   -413.9006613 -0.336274E-04  0.416E-03    0.59       1.5  T
   6   -413.9006635 -0.218480E-05  0.206E-03    0.59       3.1  T
   7   -413.9006642 -0.738687E-06  0.106E-03    0.59       6.0  T
   8   -413.9006644 -0.180777E-06  0.559E-04    0.59      11.3  T
   9   -413.9006644 -0.633780E-07  0.288E-04    0.59      22.0  T
     SCC iter.                  ...        0 min,  0.476 sec
     gradient                   ...        0 min,  0.211 sec
 * total energy  :  -407.0632956 Eh     change       -0.2041232E-02 Eh
   gradient norm :     0.0278952 Eh/α   predicted    -0.1966940E-02 (  -3.64%)
   displ. norm   :     0.6852658 α      lambda       -0.3015522E-02
   maximum displ.:     0.1583136 α      in ANC's #51, #41, #43, ...

........................................................................
.............................. CYCLE   13 ..............................
........................................................................
   1   -413.9040020 -0.413904E+03  0.153E-01    0.59       0.0  T
   2   -413.9040351 -0.331637E-04  0.876E-02    0.63       1.0  T
   3   -413.9021639  0.187121E-02  0.718E-02    0.58       1.0  T
   4   -413.9043312 -0.216729E-02  0.106E-02    0.63       1.0  T
   5   -413.9043568 -0.256270E-04  0.474E-03    0.63       1.3  T
   6   -413.9043601 -0.326599E-05  0.205E-03    0.63       3.1  T
   7   -413.9043606 -0.475988E-06  0.114E-03    0.63       5.6  T
   8   -413.9043608 -0.185501E-06  0.625E-04    0.63      10.1  T
   9   -413.9043608 -0.588038E-07  0.415E-04    0.63      15.3  T
     SCC iter.                  ...        0 min,  0.475 sec
     gradient                   ...        0 min,  0.211 sec
 * total energy  :  -407.0643250 Eh     change       -0.1029438E-02 Eh
   gradient norm :     0.0570740 Eh/α   predicted    -0.2215791E-02 ( 115.24%)
   displ. norm   :     0.4783512 α      lambda       -0.3757245E-02
   maximum displ.:     0.1053687 α      in ANC's #29, #39, #41, ...

........................................................................
.............................. CYCLE   14 ..............................
........................................................................
   1   -413.9175862 -0.413918E+03  0.115E-01    0.63       0.0  T
   2   -413.9176084 -0.222347E-04  0.655E-02    0.64       1.0  T
   3   -413.9165825  0.102593E-02  0.524E-02    0.62       1.0  T
   4   -413.9177511 -0.116864E-02  0.655E-03    0.64       1.0  T
   5   -413.9177592 -0.804347E-05  0.339E-03    0.64       1.9  T
   6   -413.9177610 -0.184556E-05  0.139E-03    0.64       4.6  T
   7   -413.9177612 -0.178429E-06  0.757E-04    0.64       8.4  T
   8   -413.9177613 -0.756889E-07  0.411E-04    0.64      15.4  T
     SCC iter.                  ...        0 min,  0.422 sec
     gradient                   ...        0 min,  0.211 sec
 * total energy  :  -407.0664024 Eh     change       -0.2077401E-02 Eh
   gradient norm :     0.0211332 Eh/α   predicted    -0.2308497E-02 (  11.12%)
   displ. norm   :     0.6226600 α      lambda       -0.2744078E-02
   maximum displ.:     0.1738114 α      in ANC's #107, #19, #41, ...

........................................................................
.............................. CYCLE   15 ..............................
........................................................................
   1   -413.8957064 -0.413896E+03  0.120E-01    0.64       0.0  T
   2   -413.8956381  0.683056E-04  0.729E-02    0.66       1.0  T
   3   -413.8943956  0.124246E-02  0.649E-02    0.64       1.0  T
   4   -413.8960059 -0.161032E-02  0.114E-02    0.66       1.0  T
   5   -413.8960360 -0.300689E-04  0.384E-03    0.65       1.6  T
   6   -413.8960376 -0.166130E-05  0.188E-03    0.66       3.4  T
   7   -413.8960381 -0.464427E-06  0.102E-03    0.65       6.2  T
   8   -413.8960383 -0.161968E-06  0.470E-04    0.65      13.5  T
   9   -413.8960383 -0.477919E-07  0.238E-04    0.65      26.6  T
     SCC iter.                  ...        0 min,  0.479 sec
     gradient                   ...        0 min,  0.213 sec
 * total energy  :  -407.0666573 Eh     change       -0.2548817E-03 Eh
   gradient norm :     0.0408205 Eh/α   predicted    -0.1903993E-02 ( 647.01%)
   displ. norm   :     0.3398575 α      lambda       -0.2950828E-02
   maximum displ.:     0.0886465 α      in ANC's #1, #32, #41, ...

........................................................................
.............................. CYCLE   16 ..............................
........................................................................
   1   -413.8969240 -0.413897E+03  0.589E-02    0.65       0.0  T
   2   -413.8969275 -0.347617E-05  0.333E-02    0.65       1.0  T
   3   -413.8967287  0.198789E-03  0.241E-02    0.65       1.0  T
   4   -413.8969492 -0.220523E-03  0.334E-03    0.66       1.9  T
   5   -413.8969504 -0.125001E-05  0.193E-03    0.65       3.3  T
   6   -413.8969510 -0.521285E-06  0.987E-04    0.65       6.4  T
   7   -413.8969512 -0.182918E-06  0.419E-04    0.65      15.1  T
     SCC iter.                  ...        0 min,  0.380 sec
     gradient                   ...        0 min,  0.211 sec
 * total energy  :  -407.0685586 Eh     change       -0.1901256E-02 Eh
   gradient norm :     0.0171592 Eh/α   predicted    -0.1645829E-02 ( -13.43%)
   displ. norm   :     0.5471449 α      lambda       -0.1516566E-02
   maximum displ.:     0.1410956 α      in ANC's #1, #12, #41, ...

........................................................................
.............................. CYCLE   17 ..............................
........................................................................
   1   -413.9108923 -0.413911E+03  0.738E-02    0.65       0.0  T
   2   -413.9108913  0.102681E-05  0.426E-02    0.66       1.0  T
   3   -413.9105135  0.377766E-03  0.314E-02    0.66       1.0  T
   4   -413.9109321 -0.418558E-03  0.413E-03    0.66       1.5  T
   5   -413.9109355 -0.344418E-05  0.203E-03    0.66       3.1  T
   6   -413.9109360 -0.460154E-06  0.967E-04    0.66       6.6  T
   7   -413.9109361 -0.112772E-06  0.497E-04    0.66      12.8  T
     SCC iter.                  ...        0 min,  0.370 sec
     gradient                   ...        0 min,  0.211 sec
 * total energy  :  -407.0697306 Eh     change       -0.1172009E-02 Eh
   gradient norm :     0.0120297 Eh/α   predicted    -0.9852907E-03 ( -15.93%)
   displ. norm   :     0.7635547 α      lambda       -0.1616318E-02
   maximum displ.:     0.1835953 α      in ANC's #12, #41, #1, ...

........................................................................
.............................. CYCLE   18 ..............................
........................................................................
   1   -413.9048954 -0.413905E+03  0.104E-01    0.66       0.0  T
   2   -413.9048594  0.359596E-04  0.617E-02    0.67       1.0  T
   3   -413.9038425  0.101690E-02  0.541E-02    0.65       1.0  T
   4   -413.9050462 -0.120361E-02  0.737E-03    0.66       1.0  T
   5   -413.9050591 -0.129200E-04  0.305E-03    0.66       2.1  T
   6   -413.9050603 -0.124913E-05  0.142E-03    0.66       4.5  T
   7   -413.9050605 -0.221222E-06  0.730E-04    0.66       8.7  T
   8   -413.9050606 -0.933843E-07  0.390E-04    0.66      16.3  T
     SCC iter.                  ...        0 min,  0.434 sec
     gradient                   ...        0 min,  0.223 sec
 * total energy  :  -407.0711014 Eh     change       -0.1370798E-02 Eh
   gradient norm :     0.0114514 Eh/α   predicted    -0.1279335E-02 (  -6.67%)
   displ. norm   :     0.7579395 α      lambda       -0.1578085E-02
   maximum displ.:     0.1991384 α      in ANC's #12, #1, #24, ...

........................................................................
.............................. CYCLE   19 ..............................
........................................................................
   1   -413.9100750 -0.413910E+03  0.100E-01    0.66       0.0  T
   2   -413.9100819 -0.688465E-05  0.580E-02    0.67       1.0  T
   3   -413.9095049  0.577007E-03  0.385E-02    0.66       1.0  T
   4   -413.9101364 -0.631550E-03  0.553E-03    0.67       1.1  T
   5   -413.9101435 -0.713652E-05  0.269E-03    0.66       2.4  T
   6   -413.9101445 -0.926397E-06  0.126E-03    0.67       5.0  T
   7   -413.9101447 -0.181564E-06  0.602E-04    0.66      10.5  T
   8   -413.9101447 -0.552890E-07  0.345E-04    0.67      18.4  T
     SCC iter.                  ...        0 min,  0.444 sec
     gradient                   ...        0 min,  0.211 sec
 * total energy  :  -407.0723208 Eh     change       -0.1219430E-02 Eh
   gradient norm :     0.0136625 Eh/α   predicted    -0.1242334E-02 (   1.88%)
   displ. norm   :     0.7623917 α      lambda       -0.1310934E-02
   maximum displ.:     0.2064778 α      in ANC's #12, #1, #27, ...

........................................................................
.............................. CYCLE   20 ..............................
........................................................................
   1   -413.9070176 -0.413907E+03  0.982E-02    0.67       0.0  T
   2   -413.9070075  0.100858E-04  0.579E-02    0.67       1.0  T
   3   -413.9062273  0.780291E-03  0.461E-02    0.67       1.0  T
   4   -413.9071109 -0.883598E-03  0.627E-03    0.67       1.0  T
   5   -413.9071213 -0.104684E-04  0.276E-03    0.67       2.3  T
   6   -413.9071224 -0.109173E-05  0.122E-03    0.67       5.2  T
   7   -413.9071226 -0.151048E-06  0.555E-04    0.67      11.4  T
   8   -413.9071226 -0.490443E-07  0.270E-04    0.67      23.5  T
     SCC iter.                  ...        0 min,  0.425 sec
     gradient                   ...        0 min,  0.211 sec
 * total energy  :  -407.0733803 Eh     change       -0.1059496E-02 Eh
   gradient norm :     0.0135609 Eh/α   predicted    -0.1036459E-02 (  -2.17%)
   displ. norm   :     0.7248667 α      lambda       -0.1308328E-02
   maximum displ.:     0.2080478 α      in ANC's #12, #49, #24, ...
 * RMSD in coord.:     0.5704000 α      energy gain  -0.1989755E+00 Eh

generating ANC from model Hessian ...
Using Lindh-Hessian (1995)
 Shifting diagonal of input Hessian by   1.007170459420187E-002
 Lowest  eigenvalues of input Hessian
    0.010000    0.010049    0.010071    0.000000    0.000000    0.000000
    0.000000    0.000000    0.000000    0.010089    0.010123    0.010136
    0.010151    0.010160    0.010178    0.010207    0.010230    0.010243
 Highest eigenvalues
    2.272041    2.282406    2.608784    2.615317    2.654257    2.670760
 

........................................................................
.............................. CYCLE   21 ..............................
........................................................................
   1   -413.9137481 -0.413914E+03  0.854E-02    0.67       0.0  T
   2   -413.9137547 -0.655980E-05  0.496E-02    0.67       1.0  T
   3   -413.9134004  0.354272E-03  0.312E-02    0.67       1.0  T
   4   -413.9137871 -0.386762E-03  0.498E-03    0.67       1.3  T
   5   -413.9137943 -0.710910E-05  0.214E-03    0.67       3.0  T
   6   -413.9137948 -0.579697E-06  0.101E-03    0.67       6.3  T
   7   -413.9137950 -0.127304E-06  0.487E-04    0.67      13.0  T
   8   -413.9137950 -0.379509E-07  0.287E-04    0.67      22.1  T
     SCC iter.                  ...        0 min,  0.424 sec
     gradient                   ...        0 min,  0.212 sec
 * total energy  :  -407.0743881 Eh     change       -0.1007794E-02 Eh
   gradient norm :     0.0165124 Eh/α   predicted     0.0000000E+00 (-100.00%)
   displ. norm   :     0.1575398 α      lambda       -0.5953115E-03
   maximum displ.:     0.0445680 α      in ANC's #11, #1, #2, ...

........................................................................
.............................. CYCLE   22 ..............................
........................................................................
   1   -413.9132811 -0.413913E+03  0.483E-02    0.67       0.0  T
   2   -413.9132881 -0.704677E-05  0.270E-02    0.67       1.0  T
   3   -413.9132676  0.204925E-04  0.874E-03    0.67       1.0  T
   4   -413.9132916 -0.239205E-04  0.187E-03    0.67       3.4  T
   5   -413.9132921 -0.586914E-06  0.120E-03    0.67       5.3  T
   6   -413.9132924 -0.275907E-06  0.540E-04    0.67      11.7  T
   7   -413.9132925 -0.408298E-07  0.298E-04    0.67      21.2  T
     SCC iter.                  ...        0 min,  0.370 sec
     gradient                   ...        0 min,  0.211 sec
 * total energy  :  -407.0747962 Eh     change       -0.4080939E-03 Eh
   gradient norm :     0.0075274 Eh/α   predicted    -0.3050809E-03 ( -25.24%)
   displ. norm   :     0.3814061 α      lambda       -0.9349282E-03
   maximum displ.:     0.1167455 α      in ANC's #11, #2, #1, ...

........................................................................
.............................. CYCLE   23 ..............................
........................................................................
   1   -413.9149956 -0.413915E+03  0.676E-02    0.67       0.0  T
   2   -413.9150058 -0.101607E-04  0.390E-02    0.67       1.0  T
   3   -413.9148925  0.113283E-03  0.179E-02    0.67       1.0  T
   4   -413.9150150 -0.122487E-03  0.384E-03    0.67       1.7  T
   5   -413.9150189 -0.396171E-05  0.192E-03    0.67       3.3  T
   6   -413.9150195 -0.521717E-06  0.902E-04    0.67       7.0  T
   7   -413.9150196 -0.991942E-07  0.504E-04    0.67      12.6  T
     SCC iter.                  ...        0 min,  0.374 sec
     gradient                   ...        0 min,  0.210 sec
 * total energy  :  -407.0750160 Eh     change       -0.2198420E-03 Eh
   gradient norm :     0.0202421 Eh/α   predicted    -0.5355054E-03 ( 143.59%)
   displ. norm   :     0.3086886 α      lambda       -0.1051822E-02
   maximum displ.:     0.0899569 α      in ANC's #11, #32, #1, ...

........................................................................
.............................. CYCLE   24 ..............................
........................................................................
   1   -413.9155599 -0.413916E+03  0.982E-02    0.67       0.0  T
   2   -413.9155856 -0.257830E-04  0.543E-02    0.67       1.0  T
   3   -413.9155601  0.255795E-04  0.104E-02    0.67       1.0  T
   4   -413.9155968 -0.367696E-04  0.263E-03    0.67       2.4  T
   5   -413.9155975 -0.663275E-06  0.176E-03    0.67       3.6  T
   6   -413.9155981 -0.615651E-06  0.573E-04    0.67      11.1  T
   7   -413.9155982 -0.551476E-07  0.326E-04    0.67      19.5  T
     SCC iter.                  ...        0 min,  0.371 sec
     gradient                   ...        0 min,  0.211 sec
 * total energy  :  -407.0754362 Eh     change       -0.4201444E-03 Eh
   gradient norm :     0.0191608 Eh/α   predicted    -0.5760246E-03 (  37.10%)
   displ. norm   :     0.2755718 α      lambda       -0.1147190E-02
   maximum displ.:     0.0802110 α      in ANC's #11, #134, #2, ...

........................................................................
.............................. CYCLE   25 ..............................
........................................................................
   1   -413.9176902 -0.413918E+03  0.975E-02    0.67       0.0  T
   2   -413.9177158 -0.255435E-04  0.541E-02    0.67       1.0  T
   3   -413.9177065  0.926196E-05  0.870E-03    0.67       1.0  T
   4   -413.9177258 -0.192862E-04  0.226E-03    0.67       2.8  T
   5   -413.9177261 -0.282718E-06  0.132E-03    0.67       4.8  T
   6   -413.9177263 -0.213923E-06  0.622E-04    0.67      10.2  T
   7   -413.9177264 -0.855022E-07  0.251E-04    0.67      25.2  T
     SCC iter.                  ...        0 min,  0.374 sec
     gradient                   ...        0 min,  0.211 sec
 * total energy  :  -407.0758786 Eh     change       -0.4424352E-03 Eh
   gradient norm :     0.0110568 Eh/α   predicted    -0.6171537E-03 (  39.49%)
   displ. norm   :     0.3284624 α      lambda       -0.6974519E-03
   maximum displ.:     0.1114832 α      in ANC's #11, #2, #1, ...

........................................................................
.............................. CYCLE   26 ..............................
........................................................................
   1   -413.9171377 -0.413917E+03  0.439E-02    0.67       0.0  T
   2   -413.9171408 -0.308067E-05  0.251E-02    0.67       1.0  T
   3   -413.9171220  0.188658E-04  0.785E-03    0.67       1.0  T
   4   -413.9171431 -0.211066E-04  0.143E-03    0.68       4.4  T
   5   -413.9171433 -0.196743E-06  0.921E-04    0.67       6.9  T
   6   -413.9171434 -0.147073E-06  0.414E-04    0.67      15.3  T
     SCC iter.                  ...        0 min,  0.321 sec
     gradient                   ...        0 min,  0.210 sec
 * total energy  :  -407.0764438 Eh     change       -0.5651666E-03 Eh
   gradient norm :     0.0083349 Eh/α   predicted    -0.3863491E-03 ( -31.64%)
   displ. norm   :     0.6870374 α      lambda       -0.1283346E-02
   maximum displ.:     0.2188665 α      in ANC's #11, #2, #1, ...

........................................................................
.............................. CYCLE   27 ..............................
........................................................................
   1   -413.9094749 -0.413909E+03  0.114E-01    0.67       0.0  T
   2   -413.9095064 -0.314649E-04  0.645E-02    0.67       1.0  T
   3   -413.9093713  0.135136E-03  0.194E-02    0.67       1.0  T
   4   -413.9095250 -0.153729E-03  0.406E-03    0.67       1.6  T
   5   -413.9095274 -0.240228E-05  0.240E-03    0.67       2.6  T
   6   -413.9095283 -0.897569E-06  0.108E-03    0.67       5.9  T
   7   -413.9095286 -0.264617E-06  0.437E-04    0.67      14.5  T
   8   -413.9095286 -0.453929E-07  0.206E-04    0.67      30.7  T
     SCC iter.                  ...        0 min,  0.421 sec
     gradient                   ...        0 min,  0.211 sec
 * total energy  :  -407.0767935 Eh     change       -0.3497324E-03 Eh
   gradient norm :     0.0192760 Eh/α   predicted    -0.9445636E-03 ( 170.08%)
   displ. norm   :     0.4450180 α      lambda       -0.1390512E-02
   maximum displ.:     0.1587877 α      in ANC's #11, #1, #2, ...

........................................................................
.............................. CYCLE   28 ..............................
........................................................................
   1   -413.9109955 -0.413911E+03  0.836E-02    0.68       0.0  T
   2   -413.9110145 -0.190379E-04  0.468E-02    0.68       1.0  T
   3   -413.9109824  0.321673E-04  0.104E-02    0.67       1.0  T
   4   -413.9110227 -0.403159E-04  0.261E-03    0.68       2.4  T
   5   -413.9110235 -0.827269E-06  0.154E-03    0.68       4.1  T
   6   -413.9110240 -0.447418E-06  0.668E-04    0.68       9.5  T
   7   -413.9110241 -0.908994E-07  0.306E-04    0.68      20.7  T
     SCC iter.                  ...        0 min,  0.381 sec
     gradient                   ...        0 min,  0.211 sec
 * total energy  :  -407.0776787 Eh     change       -0.8851358E-03 Eh
   gradient norm :     0.0096449 Eh/α   predicted    -0.8329462E-03 (  -5.90%)
   displ. norm   :     0.6130342 α      lambda       -0.7347919E-03
   maximum displ.:     0.2188212 α      in ANC's #11, #2, #1, ...

........................................................................
.............................. CYCLE   29 ..............................
........................................................................
   1   -413.9113595 -0.413911E+03  0.643E-02    0.68       0.0  T
   2   -413.9113649 -0.537442E-05  0.371E-02    0.68       1.0  T
   3   -413.9112945  0.703163E-04  0.142E-02    0.68       1.0  T
   4   -413.9113707 -0.761748E-04  0.248E-03    0.68       2.6  T
   5   -413.9113719 -0.120913E-05  0.141E-03    0.68       4.5  T
   6   -413.9113723 -0.319944E-06  0.703E-04    0.68       9.0  T
   7   -413.9113724 -0.100989E-06  0.282E-04    0.68      22.4  T
     SCC iter.                  ...        0 min,  0.372 sec
     gradient                   ...        0 min,  0.210 sec
 * total energy  :  -407.0783290 Eh     change       -0.6503883E-03 Eh
   gradient norm :     0.0070867 Eh/α   predicted    -0.5054710E-03 ( -22.28%)
   displ. norm   :     0.7200236 α      lambda       -0.9497107E-03
   maximum displ.:     0.2722934 α      in ANC's #11, #2, #1, ...

........................................................................
.............................. CYCLE   30 ..............................
........................................................................
   1   -413.9195358 -0.413920E+03  0.723E-02    0.68       0.0  T
   2   -413.9195428 -0.706842E-05  0.416E-02    0.68       1.0  T
   3   -413.9193712  0.171584E-03  0.212E-02    0.68       1.0  T
   4   -413.9195569 -0.185709E-03  0.341E-03    0.68       1.9  T
   5   -413.9195599 -0.295503E-05  0.173E-03    0.68       3.7  T
   6   -413.9195603 -0.425205E-06  0.850E-04    0.68       7.5  T
   7   -413.9195604 -0.106910E-06  0.383E-04    0.68      16.5  T
     SCC iter.                  ...        0 min,  0.375 sec
     gradient                   ...        0 min,  0.210 sec
 * total energy  :  -407.0791289 Eh     change       -0.7998145E-03 Eh
   gradient norm :     0.0054518 Eh/α   predicted    -0.7210375E-03 (  -9.85%)
   displ. norm   :     0.8367694 α      lambda       -0.8560108E-03
   maximum displ.:     0.3173383 α      in ANC's #11, #2, #1, ...

........................................................................
.............................. CYCLE   31 ..............................
........................................................................
   1   -413.9154859 -0.413915E+03  0.846E-02    0.68       0.0  T
   2   -413.9154952 -0.928967E-05  0.487E-02    0.68       1.0  T
   3   -413.9152460  0.249190E-03  0.250E-02    0.68       1.0  T
   4   -413.9155151 -0.269049E-03  0.386E-03    0.68       1.6  T
   5   -413.9155186 -0.349315E-05  0.197E-03    0.68       3.2  T
   6   -413.9155191 -0.490789E-06  0.100E-03    0.68       6.3  T
   7   -413.9155192 -0.166370E-06  0.451E-04    0.68      14.1  T
   8   -413.9155193 -0.504904E-07  0.205E-04    0.68      30.9  T
     SCC iter.                  ...        0 min,  0.432 sec
     gradient                   ...        0 min,  0.211 sec
 * total energy  :  -407.0798782 Eh     change       -0.7493120E-03 Eh
   gradient norm :     0.0084385 Eh/α   predicted    -0.7276880E-03 (  -2.89%)
   displ. norm   :     0.8120063 α      lambda       -0.8611948E-03
   maximum displ.:     0.3229672 α      in ANC's #11, #2, #10, ...

........................................................................
.............................. CYCLE   32 ..............................
........................................................................
   1   -413.9197591 -0.413920E+03  0.725E-02    0.68       0.0  T
   2   -413.9197634 -0.429134E-05  0.420E-02    0.68       1.0  T
   3   -413.9195246  0.238818E-03  0.248E-02    0.68       1.0  T
   4   -413.9197829 -0.258347E-03  0.376E-03    0.68       1.7  T
   5   -413.9197869 -0.402101E-05  0.167E-03    0.68       3.8  T
   6   -413.9197873 -0.382958E-06  0.827E-04    0.68       7.7  T
   7   -413.9197874 -0.658371E-07  0.432E-04    0.68      14.7  T
     SCC iter.                  ...        0 min,  0.389 sec
     gradient                   ...        0 min,  0.212 sec
 * total energy  :  -407.0805533 Eh     change       -0.6750960E-03 Eh
   gradient norm :     0.0088121 Eh/α   predicted    -0.7145226E-03 (   5.84%)
   displ. norm   :     0.7654279 α      lambda       -0.7618826E-03
   maximum displ.:     0.3105560 α      in ANC's #11, #2, #10, ...

........................................................................
.............................. CYCLE   33 ..............................
........................................................................
   1   -413.9210053 -0.413921E+03  0.702E-02    0.68       0.0  T
   2   -413.9210123 -0.694238E-05  0.403E-02    0.68       1.0  T
   3   -413.9208036  0.208648E-03  0.234E-02    0.68       1.0  T
   4   -413.9210311 -0.227438E-03  0.355E-03    0.68       1.8  T
   5   -413.9210342 -0.308109E-05  0.181E-03    0.68       3.5  T
   6   -413.9210346 -0.432868E-06  0.897E-04    0.68       7.1  T
   7   -413.9210347 -0.100437E-06  0.461E-04    0.68      13.8  T
     SCC iter.                  ...        0 min,  0.390 sec
     gradient                   ...        0 min,  0.210 sec
 * total energy  :  -407.0812160 Eh     change       -0.6627577E-03 Eh
   gradient norm :     0.0083992 Eh/α   predicted    -0.6041285E-03 (  -8.85%)
   displ. norm   :     0.7927765 α      lambda       -0.7547383E-03
   maximum displ.:     0.3252032 α      in ANC's #11, #2, #10, ...

........................................................................
.............................. CYCLE   34 ..............................
........................................................................
   1   -413.9177884 -0.413918E+03  0.624E-02    0.69       0.0  T
   2   -413.9177931 -0.472635E-05  0.362E-02    0.69       1.0  T
   3   -413.9176485  0.144624E-03  0.198E-02    0.68       1.0  T
   4   -413.9178046 -0.156116E-03  0.317E-03    0.69       2.0  T
   5   -413.9178074 -0.277906E-05  0.152E-03    0.69       4.2  T
   6   -413.9178077 -0.368952E-06  0.732E-04    0.69       8.7  T
   7   -413.9178078 -0.633095E-07  0.359E-04    0.69      17.6  T
     SCC iter.                  ...        0 min,  0.374 sec
     gradient                   ...        0 min,  0.210 sec
 * total energy  :  -407.0818913 Eh     change       -0.6752484E-03 Eh
   gradient norm :     0.0057401 Eh/α   predicted    -0.6145544E-03 (  -8.99%)
   displ. norm   :     0.7815702 α      lambda       -0.8143150E-03
   maximum displ.:     0.3222142 α      in ANC's #11, #10, #2, ...

........................................................................
.............................. CYCLE   35 ..............................
........................................................................
   1   -413.9276313 -0.413928E+03  0.646E-02    0.69       0.0  T
   2   -413.9276390 -0.768608E-05  0.371E-02    0.69       1.0  T
   3   -413.9275157  0.123282E-03  0.195E-02    0.68       1.0  T
   4   -413.9276506 -0.134830E-03  0.349E-03    0.69       1.8  T
   5   -413.9276536 -0.306922E-05  0.190E-03    0.69       3.3  T
   6   -413.9276542 -0.571710E-06  0.892E-04    0.69       7.1  T
   7   -413.9276543 -0.116902E-06  0.458E-04    0.69      13.8  T
     SCC iter.                  ...        0 min,  0.373 sec
     gradient                   ...        0 min,  0.210 sec
 * total energy  :  -407.0825568 Eh     change       -0.6655640E-03 Eh
   gradient norm :     0.0098528 Eh/α   predicted    -0.6558719E-03 (  -1.46%)
   displ. norm   :     0.8100858 α      lambda       -0.7553615E-03
   maximum displ.:     0.3357413 α      in ANC's #11, #10, #2, ...

........................................................................
.............................. CYCLE   36 ..............................
........................................................................
   1   -413.9219877 -0.413922E+03  0.578E-02    0.69       0.0  T
   2   -413.9219911 -0.336225E-05  0.337E-02    0.69       1.0  T
   3   -413.9218392  0.151859E-03  0.202E-02    0.68       1.0  T
   4   -413.9220026 -0.163308E-03  0.328E-03    0.69       1.9  T
   5   -413.9220056 -0.300681E-05  0.148E-03    0.69       4.3  T
   6   -413.9220059 -0.329902E-06  0.760E-04    0.69       8.3  T
   7   -413.9220060 -0.774161E-07  0.404E-04    0.69      15.7  T
     SCC iter.                  ...        0 min,  0.368 sec
     gradient                   ...        0 min,  0.211 sec
 * total energy  :  -407.0832271 Eh     change       -0.6702411E-03 Eh
   gradient norm :     0.0076363 Eh/α   predicted    -0.6255301E-03 (  -6.67%)
   displ. norm   :     0.8067288 α      lambda       -0.7554463E-03
   maximum displ.:     0.3408186 α      in ANC's #11, #10, #2, ...

........................................................................
.............................. CYCLE   37 ..............................
........................................................................
   1   -413.9189816 -0.413919E+03  0.566E-02    0.69       0.0  T
   2   -413.9189854 -0.385521E-05  0.328E-02    0.69       1.0  T
   3   -413.9188638  0.121637E-03  0.180E-02    0.68       1.0  T
   4   -413.9189925 -0.128716E-03  0.352E-03    0.69       1.8  T
   5   -413.9189962 -0.370884E-05  0.146E-03    0.69       4.3  T
   6   -413.9189965 -0.284991E-06  0.732E-04    0.69       8.7  T
   7   -413.9189966 -0.809823E-07  0.388E-04    0.69      16.3  T
     SCC iter.                  ...        0 min,  0.377 sec
     gradient                   ...        0 min,  0.210 sec
 * total energy  :  -407.0839113 Eh     change       -0.6842141E-03 Eh
   gradient norm :     0.0085840 Eh/α   predicted    -0.6235568E-03 (  -8.87%)
   displ. norm   :     0.8094559 α      lambda       -0.8055279E-03
   maximum displ.:     0.3352354 α      in ANC's #11, #10, #5, ...

........................................................................
.............................. CYCLE   38 ..............................
........................................................................
   1   -413.9169869 -0.413917E+03  0.645E-02    0.69       0.0  T
   2   -413.9169933 -0.643167E-05  0.371E-02    0.69       1.0  T
   3   -413.9168545  0.138830E-03  0.197E-02    0.68       1.0  T
   4   -413.9170017 -0.147168E-03  0.355E-03    0.69       1.8  T
   5   -413.9170049 -0.321341E-05  0.165E-03    0.69       3.8  T
   6   -413.9170052 -0.347363E-06  0.805E-04    0.69       7.9  T
   7   -413.9170053 -0.103437E-06  0.389E-04    0.69      16.3  T
     SCC iter.                  ...        0 min,  0.361 sec
     gradient                   ...        0 min,  0.210 sec
 * total energy  :  -407.0846188 Eh     change       -0.7074677E-03 Eh
   gradient norm :     0.0088038 Eh/α   predicted    -0.6666639E-03 (  -5.77%)
   displ. norm   :     0.8175977 α      lambda       -0.7938114E-03
   maximum displ.:     0.3417039 α      in ANC's #11, #10, #5, ...

........................................................................
.............................. CYCLE   39 ..............................
........................................................................
   1   -413.9241457 -0.413924E+03  0.612E-02    0.69       0.0  T
   2   -413.9241500 -0.435615E-05  0.356E-02    0.69       1.0  T
   3   -413.9240446  0.105484E-03  0.176E-02    0.68       1.0  T
   4   -413.9241546 -0.110066E-03  0.370E-03    0.69       1.7  T
   5   -413.9241589 -0.423050E-05  0.149E-03    0.69       4.3  T
   6   -413.9241591 -0.294631E-06  0.680E-04    0.69       9.3  T
   7   -413.9241592 -0.648236E-07  0.317E-04    0.69      20.0  T
     SCC iter.                  ...        0 min,  0.360 sec
     gradient                   ...        0 min,  0.210 sec
 * total energy  :  -407.0852936 Eh     change       -0.6747979E-03 Eh
   gradient norm :     0.0087145 Eh/α   predicted    -0.6622303E-03 (  -1.86%)
   displ. norm   :     0.8497288 α      lambda       -0.7592453E-03
   maximum displ.:     0.3628147 α      in ANC's #11, #10, #5, ...

........................................................................
.............................. CYCLE   40 ..............................
........................................................................
   1   -413.9175476 -0.413918E+03  0.627E-02    0.69       0.0  T
   2   -413.9175524 -0.473812E-05  0.362E-02    0.69       1.0  T
   3   -413.9174054  0.146972E-03  0.199E-02    0.68       1.0  T
   4   -413.9175620 -0.156641E-03  0.332E-03    0.69       1.9  T
   5   -413.9175647 -0.268534E-05  0.159E-03    0.69       4.0  T
   6   -413.9175650 -0.305435E-06  0.845E-04    0.69       7.5  T
   7   -413.9175652 -0.138493E-06  0.378E-04    0.69      16.8  T
     SCC iter.                  ...        0 min,  0.363 sec
     gradient                   ...        0 min,  0.210 sec
 * total energy  :  -407.0859650 Eh     change       -0.6714032E-03 Eh
   gradient norm :     0.0085916 Eh/α   predicted    -0.6537280E-03 (  -2.63%)
   displ. norm   :     0.7983640 α      lambda       -0.7503852E-03
   maximum displ.:     0.3390418 α      in ANC's #11, #10, #5, ...

........................................................................
.............................. CYCLE   41 ..............................
........................................................................
   1   -413.9236844 -0.413924E+03  0.576E-02    0.69       0.0  T
   2   -413.9236867 -0.226704E-05  0.336E-02    0.69       1.0  T
   3   -413.9235181  0.168602E-03  0.207E-02    0.69       1.0  T
   4   -413.9237008 -0.182652E-03  0.312E-03    0.69       2.0  T
   5   -413.9237033 -0.249172E-05  0.140E-03    0.69       4.5  T
   6   -413.9237035 -0.203074E-06  0.729E-04    0.69       8.7  T
   7   -413.9237035 -0.772354E-07  0.367E-04    0.69      17.3  T
     SCC iter.                  ...        0 min,  0.362 sec
     gradient                   ...        0 min,  0.210 sec
 * total energy  :  -407.0866301 Eh     change       -0.6650878E-03 Eh
   gradient norm :     0.0092243 Eh/α   predicted    -0.6143401E-03 (  -7.63%)
   displ. norm   :     0.8473323 α      lambda       -0.7470690E-03
   maximum displ.:     0.3743831 α      in ANC's #11, #10, #5, ...

........................................................................
.............................. CYCLE   42 ..............................
........................................................................
   1   -413.9235303 -0.413924E+03  0.532E-02    0.69       0.0  T
   2   -413.9235345 -0.421938E-05  0.309E-02    0.69       1.0  T
   3   -413.9234751  0.593741E-04  0.127E-02    0.69       1.0  T
   4   -413.9235380 -0.628875E-04  0.258E-03    0.69       2.5  T
   5   -413.9235399 -0.190129E-05  0.124E-03    0.69       5.1  T
   6   -413.9235401 -0.241768E-06  0.539E-04    0.69      11.8  T
   7   -413.9235402 -0.308077E-07  0.291E-04    0.69      21.8  T
     SCC iter.                  ...        0 min,  0.364 sec
     gradient                   ...        0 min,  0.210 sec
 * total energy  :  -407.0873143 Eh     change       -0.6842622E-03 Eh
   gradient norm :     0.0062042 Eh/α   predicted    -0.6417240E-03 (  -6.22%)
   displ. norm   :     0.8346904 α      lambda       -0.7473112E-03
   maximum displ.:     0.3666189 α      in ANC's #11, #10, #5, ...
 * RMSD in coord.:     0.8453349 α      energy gain  -0.1393400E-01 Eh

generating ANC from model Hessian ...
Using Lindh-Hessian (1995)
 Shifting diagonal of input Hessian by   1.008216378902533E-002
 Lowest  eigenvalues of input Hessian
    0.010000    0.010059    0.010080    0.000000    0.000000    0.000000
    0.000000    0.000000    0.000000    0.010096    0.010124    0.010137
    0.010161    0.010168    0.010179    0.010200    0.010226    0.010233
 Highest eigenvalues
    2.269552    2.276235    2.606948    2.611570    2.648097    2.657590
 

........................................................................
.............................. CYCLE   43 ..............................
........................................................................
   1   -413.9271962 -0.413927E+03  0.524E-02    0.69       0.0  T
   2   -413.9271994 -0.325641E-05  0.304E-02    0.68       1.0  T
   3   -413.9271136  0.857951E-04  0.153E-02    0.69       1.0  T
   4   -413.9272045 -0.909103E-04  0.288E-03    0.68       2.2  T
   5   -413.9272064 -0.191603E-05  0.147E-03    0.69       4.3  T
   6   -413.9272067 -0.305758E-06  0.643E-04    0.68       9.9  T
   7   -413.9272068 -0.824652E-07  0.301E-04    0.68      21.0  T
     SCC iter.                  ...        0 min,  0.366 sec
     gradient                   ...        0 min,  0.210 sec
 * total energy  :  -407.0879868 Eh     change       -0.6725009E-03 Eh
   gradient norm :     0.0068117 Eh/α   predicted     0.0000000E+00 (-100.00%)
   displ. norm   :     0.0939374 α      lambda       -0.1537334E-03
   maximum displ.:     0.0371010 α      in ANC's #6, #10, #4, ...

........................................................................
.............................. CYCLE   44 ..............................
........................................................................
   1   -413.9263004 -0.413926E+03  0.182E-02    0.68       0.0  T
   2   -413.9263011 -0.703357E-06  0.103E-02    0.68       1.0  T
   3   -413.9262843  0.168088E-04  0.660E-03    0.68       1.0  T
   4   -413.9263029 -0.185629E-04  0.109E-03    0.68       5.8  T
   5   -413.9263032 -0.295088E-06  0.497E-04    0.68      12.8  T
   6   -413.9263032 -0.331299E-07  0.246E-04    0.68      25.8  T
     SCC iter.                  ...        0 min,  0.315 sec
     gradient                   ...        0 min,  0.210 sec
 * total energy  :  -407.0881072 Eh     change       -0.1203659E-03 Eh
   gradient norm :     0.0037326 Eh/α   predicted    -0.7754549E-04 ( -35.58%)
   displ. norm   :     0.3891650 α      lambda       -0.4976744E-03
   maximum displ.:     0.1532422 α      in ANC's #6, #10, #4, ...

........................................................................
.............................. CYCLE   45 ..............................
........................................................................
   1   -413.9236366 -0.413924E+03  0.437E-02    0.68       0.0  T
   2   -413.9236355  0.114213E-05  0.256E-02    0.68       1.0  T
   3   -413.9234878  0.147634E-03  0.213E-02    0.68       1.0  T
   4   -413.9236614 -0.173539E-03  0.399E-03    0.68       1.6  T
   5   -413.9236654 -0.403300E-05  0.165E-03    0.68       3.9  T
   6   -413.9236658 -0.403076E-06  0.827E-04    0.68       7.7  T
   7   -413.9236659 -0.991548E-07  0.472E-04    0.68      13.4  T
     SCC iter.                  ...        0 min,  0.367 sec
     gradient                   ...        0 min,  0.210 sec
 * total energy  :  -407.0884026 Eh     change       -0.2953684E-03 Eh
   gradient norm :     0.0111955 Eh/α   predicted    -0.2865314E-03 (  -2.99%)
   displ. norm   :     0.3742335 α      lambda       -0.3658874E-03
   maximum displ.:     0.1478005 α      in ANC's #6, #10, #4, ...

........................................................................
.............................. CYCLE   46 ..............................
........................................................................
   1   -413.9225453 -0.413923E+03  0.598E-02    0.68       0.0  T
   2   -413.9225524 -0.710041E-05  0.337E-02    0.68       1.0  T
   3   -413.9224053  0.147145E-03  0.198E-02    0.68       1.0  T
   4   -413.9225668 -0.161567E-03  0.309E-03    0.68       2.1  T
   5   -413.9225691 -0.224220E-05  0.155E-03    0.68       4.1  T
   6   -413.9225694 -0.341884E-06  0.738E-04    0.68       8.6  T
   7   -413.9225695 -0.876676E-07  0.370E-04    0.68      17.1  T
     SCC iter.                  ...        0 min,  0.369 sec
     gradient                   ...        0 min,  0.210 sec
 * total energy  :  -407.0885786 Eh     change       -0.1760167E-03 Eh
   gradient norm :     0.0126288 Eh/α   predicted    -0.2085688E-03 (  18.49%)
   displ. norm   :     0.4308877 α      lambda       -0.5434452E-03
   maximum displ.:     0.1761156 α      in ANC's #6, #10, #4, ...

........................................................................
.............................. CYCLE   47 ..............................
........................................................................
   1   -413.9246135 -0.413925E+03  0.458E-02    0.68       0.0  T
   2   -413.9246154 -0.195456E-05  0.262E-02    0.68       1.0  T
   3   -413.9245146  0.100818E-03  0.165E-02    0.68       1.0  T
   4   -413.9246240 -0.109378E-03  0.243E-03    0.68       2.6  T
   5   -413.9246251 -0.111708E-05  0.128E-03    0.68       5.0  T
   6   -413.9246254 -0.233072E-06  0.571E-04    0.68      11.1  T
   7   -413.9246254 -0.604757E-07  0.276E-04    0.68      23.0  T
     SCC iter.                  ...        0 min,  0.366 sec
     gradient                   ...        0 min,  0.210 sec
 * total energy  :  -407.0889636 Eh     change       -0.3850028E-03 Eh
   gradient norm :     0.0118087 Eh/α   predicted    -0.3221732E-03 ( -16.32%)
   displ. norm   :     0.4959396 α      lambda       -0.5663480E-03
   maximum displ.:     0.2067671 α      in ANC's #6, #10, #4, ...

........................................................................
.............................. CYCLE   48 ..............................
........................................................................
   1   -413.9264570 -0.413926E+03  0.466E-02    0.68       0.0  T
   2   -413.9264614 -0.443578E-05  0.267E-02    0.68       1.0  T
   3   -413.9264166  0.448335E-04  0.121E-02    0.68       1.0  T
   4   -413.9264652 -0.486316E-04  0.232E-03    0.68       2.7  T
   5   -413.9264664 -0.118401E-05  0.132E-03    0.68       4.8  T
   6   -413.9264667 -0.309086E-06  0.561E-04    0.68      11.3  T
   7   -413.9264667 -0.412711E-07  0.307E-04    0.68      20.7  T
     SCC iter.                  ...        0 min,  0.388 sec
     gradient                   ...        0 min,  0.222 sec
 * total energy  :  -407.0894171 Eh     change       -0.4535412E-03 Eh
   gradient norm :     0.0084883 Eh/α   predicted    -0.3528240E-03 ( -22.21%)
   displ. norm   :     0.6613685 α      lambda       -0.7889789E-03
   maximum displ.:     0.2773753 α      in ANC's #6, #10, #4, ...

........................................................................
.............................. CYCLE   49 ..............................
........................................................................
   1   -413.9288370 -0.413929E+03  0.728E-02    0.68       0.0  T
   2   -413.9288516 -0.145960E-04  0.414E-02    0.68       1.0  T
   3   -413.9287958  0.558501E-04  0.147E-02    0.68       1.0  T
   4   -413.9288589 -0.630964E-04  0.332E-03    0.67       1.9  T
   5   -413.9288608 -0.192061E-05  0.211E-03    0.68       3.0  T
   6   -413.9288616 -0.840355E-06  0.947E-04    0.67       6.7  T
   7   -413.9288618 -0.113891E-06  0.560E-04    0.68      11.3  T
     SCC iter.                  ...        0 min,  0.376 sec
     gradient                   ...        0 min,  0.210 sec
 * total energy  :  -407.0897719 Eh     change       -0.3547679E-03 Eh
   gradient norm :     0.0117711 Eh/α   predicted    -0.5670463E-03 (  59.84%)
   displ. norm   :     0.5413148 α      lambda       -0.8321360E-03
   maximum displ.:     0.2279033 α      in ANC's #6, #10, #4, ...

........................................................................
.............................. CYCLE   50 ..............................
........................................................................
   1   -413.9284978 -0.413928E+03  0.713E-02    0.68       0.0  T
   2   -413.9285108 -0.130843E-04  0.400E-02    0.68       1.0  T
   3   -413.9284604  0.504654E-04  0.128E-02    0.68       1.0  T
   4   -413.9285182 -0.578052E-04  0.267E-03    0.68       2.4  T
   5   -413.9285196 -0.138247E-05  0.157E-03    0.68       4.0  T
   6   -413.9285200 -0.389127E-06  0.625E-04    0.68      10.1  T
   7   -413.9285200 -0.562753E-07  0.344E-04    0.68      18.4  T
     SCC iter.                  ...        0 min,  0.377 sec
     gradient                   ...        0 min,  0.211 sec
 * total energy  :  -407.0902778 Eh     change       -0.5059249E-03 Eh
   gradient norm :     0.0106410 Eh/α   predicted    -0.5379857E-03 (   6.34%)
   displ. norm   :     0.5676293 α      lambda       -0.7722805E-03
   maximum displ.:     0.2396236 α      in ANC's #6, #10, #4, ...

........................................................................
.............................. CYCLE   51 ..............................
........................................................................
   1   -413.9237304 -0.413924E+03  0.744E-02    0.68       0.0  T
   2   -413.9237438 -0.133840E-04  0.420E-02    0.68       1.0  T
   3   -413.9236283  0.115525E-03  0.172E-02    0.68       1.0  T
   4   -413.9237558 -0.127460E-03  0.295E-03    0.68       2.1  T
   5   -413.9237577 -0.189824E-05  0.153E-03    0.68       4.2  T
   6   -413.9237579 -0.260802E-06  0.702E-04    0.68       9.0  T
   7   -413.9237580 -0.752650E-07  0.308E-04    0.68      20.6  T
     SCC iter.                  ...        0 min,  0.365 sec
     gradient                   ...        0 min,  0.210 sec
 * total energy  :  -407.0906977 Eh     change       -0.4198806E-03 Eh
   gradient norm :     0.0128825 Eh/α   predicted    -0.5105565E-03 (  21.60%)
   displ. norm   :     0.6061776 α      lambda       -0.6361238E-03
   maximum displ.:     0.2633918 α      in ANC's #6, #10, #4, ...

........................................................................
.............................. CYCLE   52 ..............................
........................................................................
   1   -413.9246284 -0.413925E+03  0.452E-02    0.68       0.0  T
   2   -413.9246315 -0.309054E-05  0.262E-02    0.68       1.0  T
   3   -413.9245781  0.534186E-04  0.120E-02    0.68       1.0  T
   4   -413.9246348 -0.566974E-04  0.239E-03    0.67       2.7  T
   5   -413.9246365 -0.171549E-05  0.103E-03    0.68       6.2  T
   6   -413.9246366 -0.153579E-06  0.471E-04    0.67      13.5  T
   7   -413.9246367 -0.274953E-07  0.236E-04    0.68      26.9  T
     SCC iter.                  ...        0 min,  0.369 sec
     gradient                   ...        0 min,  0.210 sec
 * total energy  :  -407.0912568 Eh     change       -0.5591620E-03 Eh
   gradient norm :     0.0069361 Eh/α   predicted    -0.4349396E-03 ( -22.22%)
   displ. norm   :     0.6725700 α      lambda       -0.8113167E-03
   maximum displ.:     0.3019817 α      in ANC's #6, #10, #4, ...

........................................................................
.............................. CYCLE   53 ..............................
........................................................................
   1   -413.9345361 -0.413935E+03  0.530E-02    0.67       0.0  T
   2   -413.9345428 -0.674141E-05  0.304E-02    0.67       1.0  T
   3   -413.9345239  0.188706E-04  0.840E-03    0.67       1.0  T
   4   -413.9345443 -0.203935E-04  0.249E-03    0.67       2.5  T
   5   -413.9345460 -0.161813E-05  0.125E-03    0.67       5.1  T
   6   -413.9345462 -0.286007E-06  0.564E-04    0.67      11.2  T
   7   -413.9345463 -0.463149E-07  0.271E-04    0.67      23.4  T
     SCC iter.                  ...        0 min,  0.366 sec
     gradient                   ...        0 min,  0.210 sec
 * total energy  :  -407.0918754 Eh     change       -0.6185673E-03 Eh
   gradient norm :     0.0076386 Eh/α   predicted    -0.5891594E-03 (  -4.75%)
   displ. norm   :     0.8556776 α      lambda       -0.6992269E-03
   maximum displ.:     0.3786578 α      in ANC's #6, #10, #4, ...

........................................................................
.............................. CYCLE   54 ..............................
........................................................................
   1   -413.9286358 -0.413929E+03  0.559E-02    0.67       0.0  T
   2   -413.9286412 -0.538585E-05  0.326E-02    0.67       1.0  T
   3   -413.9286197  0.214743E-04  0.885E-03    0.67       1.0  T
   4   -413.9286428 -0.231350E-04  0.209E-03    0.67       3.0  T
   5   -413.9286438 -0.969594E-06  0.112E-03    0.67       5.7  T
   6   -413.9286440 -0.246062E-06  0.521E-04    0.67      12.2  T
   7   -413.9286441 -0.322646E-07  0.284E-04    0.67      22.3  T
     SCC iter.                  ...        0 min,  0.370 sec
     gradient                   ...        0 min,  0.210 sec
 * total energy  :  -407.0925077 Eh     change       -0.6322913E-03 Eh
   gradient norm :     0.0080558 Eh/α   predicted    -0.6056015E-03 (  -4.22%)
   displ. norm   :     0.8093452 α      lambda       -0.7042447E-03
   maximum displ.:     0.3647263 α      in ANC's #6, #10, #4, ...

........................................................................
.............................. CYCLE   55 ..............................
........................................................................
   1   -413.9267164 -0.413927E+03  0.528E-02    0.67       0.0  T
   2   -413.9267188 -0.237128E-05  0.310E-02    0.67       1.0  T
   3   -413.9266436  0.751393E-04  0.139E-02    0.67       1.0  T
   4   -413.9267233 -0.797268E-04  0.236E-03    0.67       2.7  T
   5   -413.9267250 -0.163953E-05  0.962E-04    0.67       6.6  T
   6   -413.9267251 -0.119242E-06  0.458E-04    0.67      13.8  T
   7   -413.9267251 -0.179393E-07  0.244E-04    0.67      26.0  T
     SCC iter.                  ...        0 min,  0.368 sec
     gradient                   ...        0 min,  0.210 sec
 * total energy  :  -407.0931498 Eh     change       -0.6421260E-03 Eh
   gradient norm :     0.0075665 Eh/α   predicted    -0.5827769E-03 (  -9.24%)
   displ. norm   :     0.7811274 α      lambda       -0.7424564E-03
   maximum displ.:     0.3533526 α      in ANC's #6, #10, #4, ...

........................................................................
.............................. CYCLE   56 ..............................
........................................................................
   1   -413.9275979 -0.413928E+03  0.523E-02    0.67       0.0  T
   2   -413.9275994 -0.142341E-05  0.307E-02    0.67       1.0  T
   3   -413.9274750  0.124310E-03  0.178E-02    0.67       1.0  T
   4   -413.9276086 -0.133599E-03  0.281E-03    0.67       2.3  T
   5   -413.9276108 -0.218171E-05  0.107E-03    0.67       5.9  T
   6   -413.9276109 -0.100378E-06  0.550E-04    0.67      11.5  T
   7   -413.9276110 -0.349181E-07  0.301E-04    0.67      21.1  T
     SCC iter.                  ...        0 min,  0.370 sec
     gradient                   ...        0 min,  0.210 sec
 * total energy  :  -407.0937914 Eh     change       -0.6415292E-03 Eh
   gradient norm :     0.0058484 Eh/α   predicted    -0.5977393E-03 (  -6.83%)
   displ. norm   :     0.8431676 α      lambda       -0.6427376E-03
   maximum displ.:     0.3865282 α      in ANC's #6, #10, #4, ...

........................................................................
.............................. CYCLE   57 ..............................
........................................................................
   1   -413.9256717 -0.413926E+03  0.514E-02    0.67       0.0  T
   2   -413.9256749 -0.319771E-05  0.300E-02    0.67       1.0  T
   3   -413.9256407  0.342156E-04  0.104E-02    0.67       1.0  T
   4   -413.9256774 -0.367498E-04  0.200E-03    0.67       3.2  T
   5   -413.9256784 -0.943154E-06  0.103E-03    0.67       6.1  T
   6   -413.9256785 -0.176827E-06  0.476E-04    0.67      13.3  T
   7   -413.9256786 -0.320335E-07  0.255E-04    0.67      24.8  T
     SCC iter.                  ...        0 min,  0.371 sec
     gradient                   ...        0 min,  0.210 sec
 * total energy  :  -407.0943788 Eh     change       -0.5874127E-03 Eh
   gradient norm :     0.0062031 Eh/α   predicted    -0.5498460E-03 (  -6.40%)
   displ. norm   :     0.8006240 α      lambda       -0.6603252E-03
   maximum displ.:     0.3693879 α      in ANC's #6, #10, #4, ...

........................................................................
.............................. CYCLE   58 ..............................
........................................................................
   1   -413.9326729 -0.413933E+03  0.463E-02    0.67       0.0  T
   2   -413.9326769 -0.406308E-05  0.269E-02    0.67       1.0  T
   3   -413.9326370  0.398750E-04  0.121E-02    0.67       1.0  T
   4   -413.9326807 -0.436659E-04  0.221E-03    0.67       2.9  T
   5   -413.9326816 -0.933362E-06  0.123E-03    0.67       5.1  T
   6   -413.9326819 -0.281827E-06  0.594E-04    0.67      10.7  T
   7   -413.9326820 -0.656342E-07  0.282E-04    0.67      22.4  T
     SCC iter.                  ...        0 min,  0.375 sec
     gradient                   ...        0 min,  0.210 sec
[...]
     8   6 C       10   6 C                                       1.3926943
     5   6 C       11   6 C                                       1.4042255
    10   6 C       11   6 C                                       1.3823475
     2   6 C       12   6 C                                       1.4320498
    12   6 C       13   6 C                                       1.3741913
    14   6 C       15   7 N                                       1.1490299
    16   6 C       17   7 N                                       1.1489848
     1   6 C       18   6 C                                       1.3910647
    18   6 C       19   6 C                                       1.4157408
    19   6 C       20   7 N                                       1.3574179
    20   7 N       21   6 C                                       1.4141865
    21   6 C       22   6 C                                       1.3908624
    22   6 C       23   6 C                                       1.3818434
    23   6 C       24   6 C                                       1.3906585
    24   6 C       26   6 C                                       1.3898356
    21   6 C       27   6 C                                       1.3906895
    26   6 C       27   6 C                                       1.3808287
    20   7 N       28   6 C                                       1.4076369
    28   6 C       29   6 C                                       1.3915146
    29   6 C       30   6 C                                       1.3798257
    30   6 C       31   6 C                                       1.3912023
    31   6 C       33   6 C                                       1.3894251
    28   6 C       34   6 C                                       1.3923669
    33   6 C       34   6 C                                       1.3807354
    19   6 C       35   6 C                                       1.4155007
    35   6 C       36  16 S                                       1.7268994
    36  16 S       37   6 C                                       1.7630614 (max)
    37   6 C       38   6 C                                       1.3830350
    38   6 C       39   7 N                                       1.3828209
    39   7 N       40   6 C                                       1.4079606
    40   6 C       41   6 C                                       1.3924224
    41   6 C       42   6 C                                       1.3797331
    42   6 C       43   6 C                                       1.3898335
    43   6 C       45   6 C                                       1.3891765
    40   6 C       46   6 C                                       1.3913438
    45   6 C       46   6 C                                       1.3809980
    39   7 N       47   6 C                                       1.3980902
    47   6 C       48   6 C                                       1.3931541
    48   6 C       49   6 C                                       1.3801209
    49   6 C       50   6 C                                       1.3897848
    50   6 C       52   6 C                                       1.3882875
    47   6 C       53   6 C                                       1.3933573
    52   6 C       53   6 C                                       1.3808681
    35   6 C       54   6 C                                       1.3882036
    38   6 C       54   6 C                                       1.4192705
    54   6 C       55  16 S                                       1.7242332
    37   6 C       56   6 C                                       1.4364887
    56   6 C       57   6 C                                       1.3797899
    58   6 C       59   6 C                                       1.3949646
    59   6 C       60   6 C                                       1.3795447
    60   6 C       61   6 C                                       1.3845790
    61   6 C       62   6 C                                       1.3804027
    58   6 C       63   6 C                                       1.3971486
    62   6 C       63   6 C                                       1.3910942
    64   6 C       65   6 C                                       1.5300125
    57   6 C       66   6 C                                       1.4163339
    66   6 C       67  16 S                                       1.7549910
    67  16 S       68   6 C                                       1.7365992
    68   6 C       69   6 C                                       1.4103244
    69   6 C       70   6 C                                       1.4169710
    70   6 C       71   6 C                                       1.4462145
    71   6 C       72   7 N                                       1.3215980
    72   7 N       73  16 S                                       1.6202182
    70   6 C       74   7 N                                       1.3213110
    73  16 S       74   7 N                                       1.6198691
    71   6 C       75   6 C                                       1.4154807
    75   6 C       76   6 C                                       1.4128238
    76   6 C       77  16 S                                       1.7452000
    77  16 S       78   6 C                                       1.7615783
    78   6 C       79   6 C                                       1.4083277
    80   6 C       81   6 C                                       1.3991910
    82   6 C       83   6 C                                       1.5283955
    81   6 C       84   6 C                                       1.3895423
    84   6 C       85   6 C                                       1.3814064
    85   6 C       86   6 C                                       1.3844451
    80   6 C       87   6 C                                       1.3937344
    86   6 C       87   6 C                                       1.3786343
    79   6 C       88   6 C                                       1.3939148
    78   6 C       90   6 C                                       1.3958213
    89  16 S       90   6 C                                       1.7218224
    76   6 C       91   6 C                                       1.3986618
    90   6 C       91   6 C                                       1.3939866
    91   6 C       92   7 N                                       1.3694567
    75   6 C       93   6 C                                       1.4210485
    92   7 N       93   6 C                                       1.3803763
    69   6 C       94   6 C                                       1.4190457
    93   6 C       94   6 C                                       1.4119963
    94   6 C       95   7 N                                       1.3800305
    68   6 C       96   6 C                                       1.3972353
    95   7 N       96   6 C                                       1.3672895
    66   6 C       97   6 C                                       1.3937307
    96   6 C       97   6 C                                       1.3988514
    56   6 C       98  16 S                                       1.7559457
    97   6 C       98  16 S                                       1.7223109
    95   7 N       99   6 C                                       1.4458746
    99   6 C      100   6 C                                       1.5264310
    92   7 N      101   6 C                                       1.4459567
   101   6 C      102   6 C                                       1.5274532
    88   6 C      103   6 C                                       1.4141035
   103   6 C      104   6 C                                       1.3975790
   104   6 C      105   7 N                                       1.3906823
   105   7 N      106   6 C                                       1.4006184
   106   6 C      107   6 C                                       1.3919654
   107   6 C      108   6 C                                       1.3808391
   108   6 C      109   6 C                                       1.3885634
   109   6 C      111   6 C                                       1.3905566
   106   6 C      112   6 C                                       1.3944022
   111   6 C      112   6 C                                       1.3794727
   105   7 N      113   6 C                                       1.4058366
   113   6 C      114   6 C                                       1.3916175
   114   6 C      115   6 C                                       1.3798697
   115   6 C      116   6 C                                       1.3908216
   116   6 C      118   6 C                                       1.3880590
   113   6 C      119   6 C                                       1.3921762
   118   6 C      119   6 C                                       1.3810324
   104   6 C      120   6 C                                       1.4030568
   120   6 C      121  16 S                                       1.7256419
   122   6 C      123   6 C                                       1.4285473
   123   6 C      124   7 N                                       1.3636548
   124   7 N      125   6 C                                       1.4091701
   125   6 C      126   6 C                                       1.3922337
   126   6 C      127   6 C                                       1.3784798
   127   6 C      128   6 C                                       1.3914785
   128   6 C      130   6 C                                       1.3878327
   125   6 C      131   6 C                                       1.3902418
   130   6 C      131   6 C                                       1.3822855
   124   7 N      132   6 C                                       1.4103359
   132   6 C      133   6 C                                       1.3915788
   133   6 C      134   6 C                                       1.3811450
   134   6 C      135   6 C                                       1.3893952
   135   6 C      137   6 C                                       1.3911162
   132   6 C      138   6 C                                       1.3929082
   137   6 C      138   6 C                                       1.3797046
   120   6 C      139   6 C                                       1.3936434
   123   6 C      139   6 C                                       1.4013951
   139   6 C      140  16 S                                       1.7473423
   122   6 C      141   6 C                                       1.3864511
   141   6 C      142   6 C                                       1.3847031
   143   6 C      144   8 O                                       1.2216869
   145   6 C      146   6 C                                       1.3793594
   146   6 C      147   6 C                                       1.3891559
   147   6 C      148   6 C                                       1.3857934
   148   6 C      149   6 C                                       1.3903607
   145   6 C      150   6 C                                       1.4046414
   149   6 C      150   6 C                                       1.3830789
   142   6 C      151   6 C                                       1.4374839
   151   6 C      152   6 C                                       1.3761457
   153   6 C      154   7 N                                       1.1504222
   155   6 C      156   7 N                                       1.1494388
     1   6 C      157   1 H                                       1.0834333
     6   6 C      158   1 H                                       1.0790270
     7   6 C      159   1 H                                       1.0789604
    10   6 C      160   1 H                                       1.0776455
    22   6 C      161   1 H                                       1.0790631
    23   6 C      162   1 H                                       1.0799080
    25   6 C      163   1 H                                       1.0883512
    25   6 C      164   1 H                                       1.0904068
    25   6 C      165   1 H                                       1.0877207
    26   6 C      166   1 H                                       1.0809514
    27   6 C      167   1 H                                       1.0801331
    29   6 C      168   1 H                                       1.0798429
    30   6 C      169   1 H                                       1.0799939
    32   6 C      170   1 H                                       1.0888470
    32   6 C      171   1 H                                       1.0896970
    32   6 C      172   1 H                                       1.0869434
    33   6 C      173   1 H                                       1.0799529
    34   6 C      174   1 H                                       1.0799723
    41   6 C      175   1 H                                       1.0792298
    42   6 C      176   1 H                                       1.0802149
    44   6 C      177   1 H                                       1.0869942
    44   6 C      178   1 H                                       1.0884003
    44   6 C      179   1 H                                       1.0900534
    45   6 C      180   1 H                                       1.0804980
    46   6 C      181   1 H                                       1.0800414
    48   6 C      182   1 H                                       1.0796769
    49   6 C      183   1 H                                       1.0810691
    51   6 C      184   1 H                                       1.0877669
    51   6 C      185   1 H                                       1.0908666
    51   6 C      186   1 H                                       1.0874015
    52   6 C      187   1 H                                       1.0808929
    53   6 C      188   1 H                                       1.0795657
    59   6 C      189   1 H                                       1.0809134
    60   6 C      190   1 H                                       1.0801487
    61   6 C      191   1 H                                       1.0797698
    62   6 C      192   1 H                                       1.0804522
    64   6 C      193   1 H                                       1.0897773
    64   6 C      194   1 H                                       1.0916063
    65   6 C      195   1 H                                       1.0870734
    65   6 C      196   1 H                                       1.0873396
    65   6 C      197   1 H                                       1.0865753
    82   6 C      198   1 H                                       1.0937115
    82   6 C      199   1 H                                       1.0910301
    83   6 C      200   1 H                                       1.0874684
    83   6 C      201   1 H                                       1.0863178
    83   6 C      202   1 H                                       1.0871024
    84   6 C      203   1 H                                       1.0806526
    85   6 C      204   1 H                                       1.0801320
    86   6 C      205   1 H                                       1.0781838
    87   6 C      206   1 H                                       1.0796101
    99   6 C      207   1 H                                       1.0877774
    99   6 C      208   1 H                                       1.0961325
   100   6 C      209   1 H                                       1.0872443
   100   6 C      210   1 H                                       1.0868841
   100   6 C      211   1 H                                       1.0862772
   101   6 C      212   1 H                                       1.0888888
   101   6 C      213   1 H                                       1.0965156
   102   6 C      214   1 H                                       1.0878875
   102   6 C      215   1 H                                       1.0868965
   102   6 C      216   1 H                                       1.0865550
   107   6 C      217   1 H                                       1.0797804
   108   6 C      218   1 H                                       1.0806446
   110   6 C      219   1 H                                       1.0873232
   110   6 C      220   1 H                                       1.0878762
   110   6 C      221   1 H                                       1.0907890
   111   6 C      222   1 H                                       1.0805985
   112   6 C      223   1 H                                       1.0796390
   114   6 C      224   1 H                                       1.0795180
   115   6 C      225   1 H                                       1.0802329
   117   6 C      226   1 H                                       1.0888694
   117   6 C      227   1 H                                       1.0903863
   117   6 C      228   1 H                                       1.0878653
   118   6 C      229   1 H                                       1.0807475
   119   6 C      230   1 H                                       1.0807931
   126   6 C      231   1 H                                       1.0800042
   127   6 C      232   1 H                                       1.0802150
   129   6 C      233   1 H                                       1.0888456
   129   6 C      234   1 H                                       1.0866590
   129   6 C      235   1 H                                       1.0894774
   130   6 C      236   1 H                                       1.0798945
   131   6 C      237   1 H                                       1.0800575
   133   6 C      238   1 H                                       1.0801415
   134   6 C      239   1 H                                       1.0803968
   136   6 C      240   1 H                                       1.0896567
   136   6 C      241   1 H                                       1.0889635
   136   6 C      242   1 H                                       1.0869409
   137   6 C      243   1 H                                       1.0798021
   138   6 C      244   1 H                                       1.0785125
   141   6 C      245   1 H                                       1.0823723
   146   6 C      246   1 H                                       1.0793890
   147   6 C      247   1 H                                       1.0798972
   148   6 C      248   1 H                                       1.0802445
   149   6 C      249   1 H                                       1.0775016 (min)

 * 7 distinct bonds (by element types)

   Z      Z             #   av. dist./Å        max./Å        min./Å
   1 H    6 C          93     1.0841557     1.0965156     1.0775016
   6 C    6 C         114     1.3984545     1.5300125     1.3741913
   6 C    7 N          24     1.3490908     1.4459567     1.1489848
   6 C    8 O           2     1.2201035     1.2216869     1.2185200
   6 C   16 S          12     1.7404688     1.7630614     1.7218224
   7 N   16 S           2     1.6200436     1.6202182     1.6198691
   6 C   17 Cl          1     1.7261465     1.7261465     1.7261465


optimized geometry written to: xtbopt.mol


           -------------------------------------------------
          | TOTAL ENERGY             -407.151581093868 Eh   |
          | GRADIENT NORM               0.000524641025 Eh/α |
          | HOMO-LUMO GAP               0.827882385860 eV   |
           -------------------------------------------------

------------------------------------------------------------------------
 * finished run on 2022/02/07 at 08:17:34.490     
------------------------------------------------------------------------
 total:
 * wall-time:     0 d,  0 h,  5 min, 59.695 sec
 *  cpu-time:     0 d,  0 h, 47 min, 57.180 sec
 * ratio c/w:     7.999 speedup
 SCF:
 * wall-time:     0 d,  0 h,  0 min,  1.200 sec
 *  cpu-time:     0 d,  0 h,  0 min,  9.583 sec
 * ratio c/w:     7.985 speedup
 ANC optimizer:
 * wall-time:     0 d,  0 h,  5 min, 58.370 sec
 *  cpu-time:     0 d,  0 h, 47 min, 46.690 sec
 * ratio c/w:     7.999 speedup

