      -----------------------------------------------------------      
     |                   =====================                   |     
     |                           x T B                           |     
     |                   =====================                   |     
     |                         S. Grimme                         |     
     |          Mulliken Center for Theoretical Chemistry        |     
     |                    University of Bonn                     |     
      -----------------------------------------------------------      

   * xtb version 6.4.1 (unknown) compiled by 'oda6@login1.crc.pitt.edu' on 2021-06-25

   xtb is free software: you can redistribute it and/or modify it under
   the terms of the GNU Lesser General Public License as published by
   the Free Software Foundation, either version 3 of the License, or
   (at your option) any later version.
   
   xtb is distributed in the hope that it will be useful,
   but WITHOUT ANY WARRANTY; without even the implied warranty of
   MERCHANTABILITY or FITNESS FOR A PARTICULAR PURPOSE.  See the
   GNU Lesser General Public License for more details.
   
   Cite this work as:
   * C. Bannwarth, E. Caldeweyher, S. Ehlert, A. Hansen, P. Pracht,
     J. Seibert, S. Spicher, S. Grimme, WIREs Comput. Mol. Sci., 2020, 11,
     e01493. DOI: 10.1002/wcms.1493
   
   for GFN2-xTB:
   * C. Bannwarth, S. Ehlert and S. Grimme., J. Chem. Theory Comput., 2019,
     15, 1652-1671. DOI: 10.1021/acs.jctc.8b01176
   for GFN1-xTB:
   * S. Grimme, C. Bannwarth, P. Shushkov, J. Chem. Theory Comput., 2017,
     13, 1989-2009. DOI: 10.1021/acs.jctc.7b00118
   for GFN0-xTB:
   * P. Pracht, E. Caldeweyher, S. Ehlert, S. Grimme, ChemRxiv, 2019, preprint.
     DOI: 10.26434/chemrxiv.8326202.v1
   for GFN-FF:
   * S. Spicher and S. Grimme, Angew. Chem. Int. Ed., 2020, 59, 15665-15673.
     DOI: 10.1002/anie.202004239
   
   for DFT-D4:
   * E. Caldeweyher, C. Bannwarth and S. Grimme, J. Chem. Phys., 2017,
     147, 034112. DOI: 10.1063/1.4993215
   * E. Caldeweyher, S. Ehlert, A. Hansen, H. Neugebauer, S. Spicher,
     C. Bannwarth and S. Grimme, J. Chem. Phys., 2019, 150, 154122.
     DOI: 10.1063/1.5090222
   * E. Caldeweyher, J.-M. Mewes, S. Ehlert and S. Grimme, Phys. Chem. Chem. Phys.
     2020, 22, 8499-8512. DOI: 10.1039/D0CP00502A
   
   for sTDA-xTB:
   * S. Grimme and C. Bannwarth, J. Chem. Phys., 2016, 145, 054103.
     DOI: 10.1063/1.4959605
   
   in the mass-spec context:
   * V. Asgeirsson, C. Bauer and S. Grimme, Chem. Sci., 2017, 8, 4879.
     DOI: 10.1039/c7sc00601b
   * J. Koopman and S. Grimme, ACS Omega 2019, 4, 12, 15120-15133.
     DOI: 10.1021/acsomega.9b02011
   
   for metadynamics refer to:
   * S. Grimme, J. Chem. Theory Comput., 2019, 155, 2847-2862
     DOI: 10.1021/acs.jctc.9b00143
   
   for SPH calculations refer to:
   * S. Spicher and S. Grimme, J. Chem. Theory Comput., 2021, 17, 1701-1714
     DOI: 10.1021/acs.jctc.0c01306
   
   with help from (in alphabetical order)
   P. Atkinson, C. Bannwarth, F. Bohle, G. Brandenburg, E. Caldeweyher
   M. Checinski, S. Dohm, S. Ehlert, S. Ehrlich, I. Gerasimov, J. Koopman
   C. Lavigne, S. Lehtola, F. März, M. Müller, F. Musil, H. Neugebauer
   J. Pisarek, C. Plett, P. Pracht, J. Seibert, P. Shushkov, S. Spicher
   M. Stahn, M. Steiner, T. Strunk, J. Stückrath, T. Rose, and J. Unsleber
   
 * started run on 2022/02/05 at 05:39:19.419     

           -------------------------------------------------
          |                Calculation Setup                |
           -------------------------------------------------

          program call               : /ihome/ghutchison/oda6/xtb/xtb-641/bin/xtb ../../FF_optimized/9_110_86_126_9.mol -opt
          hostname                   : smp-n29
          coordinate file            : ../../FF_optimized/9_110_86_126_9.mol
          omp threads                :                     8
          number of atoms            :                   182
          number of electrons        :                   584
          charge                     :                     0
          spin                       :                   0.0
          first test random number   :      0.51019735511708

   ID    Z sym.   atoms
    1    6 C      1-3, 5-10, 12-18, 20, 22-24, 28, 29, 31-33, 35-47, 49-52,
                  56, 57, 59-69, 71, 72, 74, 75, 77, 78, 80-85, 87-89, 91-95,
                  97, 98, 100-102, 104-109, 111-117, 119
    2    8 O      4, 26, 30, 34, 86, 90, 103
    3    9 F      11, 110
    4    7 N      19, 21, 25, 27, 53, 55, 73, 76, 96, 99, 118, 120
    5   16 S      48, 54, 58, 70, 79
    6    1 H      121-182
########################################################################
[WARNING] Please study the warnings concerning your input carefully
-1- prog_main_parseArguments: the use of '-opt' is discouraged, please use '--opt' next time
########################################################################

           -------------------------------------------------
          |                 G F N 2 - x T B                 |
           -------------------------------------------------

        Reference                      10.1021/acs.jctc.8b01176
      * Hamiltonian:
        H0-scaling (s, p, d)           1.850000    2.230000    2.230000
        zeta-weighting                 0.500000
      * Dispersion:
        s8                             2.700000
        a1                             0.520000
        a2                             5.000000
        s9                             5.000000
      * Repulsion:
        kExp                           1.500000    1.000000
        rExp                           1.000000
      * Coulomb:
        alpha                          2.000000
        third order                    shell-resolved
        anisotropic                    true
        a3                             3.000000
        a5                             4.000000
        cn-shift                       1.200000
        cn-exp                         4.000000
        max-rad                        5.000000


          ...................................................
          :                      SETUP                      :
          :.................................................:
          :  # basis functions                 572          :
          :  # atomic orbitals                 567          :
          :  # shells                          307          :
          :  # electrons                       584          :
          :  max. iterations                   250          :
          :  Hamiltonian                  GFN2-xTB          :
          :  restarted?                      false          :
          :  GBSA solvation                  false          :
          :  PC potential                    false          :
          :  electronic temp.          300.0000000     K    :
          :  accuracy                    1.0000000          :
          :  -> integral cutoff          0.2500000E+02      :
          :  -> integral neglect         0.1000000E-07      :
          :  -> SCF convergence          0.1000000E-05 Eh   :
          :  -> wf. convergence          0.1000000E-03 e    :
          :  Broyden damping             0.4000000          :
          ...................................................

 iter      E             dE          RMSdq      gap      omega  full diag
   1   -325.9823797 -0.325982E+03  0.479E+00    1.23       0.0  T
   2   -326.2874938 -0.305114E+00  0.294E+00    0.45       1.0  T
   3   -326.0587687  0.228725E+00  0.194E+00    0.41       1.0  T
   4   -326.4541233 -0.395355E+00  0.740E-01    0.38       1.0  T
   5   -326.5311740 -0.770507E-01  0.225E-01    0.20       1.0  T
   6   -326.5367096 -0.553566E-02  0.109E-01    0.38       1.0  T
   7   -326.5380829 -0.137326E-02  0.471E-02    0.31       1.0  T
   8   -326.5382919 -0.209018E-03  0.211E-02    0.31       1.0  T
   9   -326.5383219 -0.299963E-04  0.110E-02    0.30       1.0  T
  10   -326.5383331 -0.112163E-04  0.506E-03    0.30       1.5  T
  11   -326.5383345 -0.137440E-05  0.276E-03    0.30       2.7  T
  12   -326.5383353 -0.796246E-06  0.156E-03    0.31       4.8  T
  13   -326.5383357 -0.399509E-06  0.643E-04    0.31      11.5  T
  14   -326.5383357 -0.245468E-07  0.365E-04    0.31      20.3  T

   *** convergence criteria satisfied after 14 iterations ***

         #    Occupation            Energy/Eh            Energy/eV
      -------------------------------------------------------------
         1        2.0000           -0.8381442             -22.8071
       ...           ...                  ...                  ...
       286        2.0000           -0.3883375             -10.5672
       287        2.0000           -0.3852316             -10.4827
       288        2.0000           -0.3751236             -10.2076
       289        2.0000           -0.3686509             -10.0315
       290        2.0000           -0.3684641             -10.0264
       291        2.0000           -0.3621433              -9.8544
       292        1.9942           -0.3540904              -9.6353 (HOMO)
       293        0.0051           -0.3428743              -9.3301 (LUMO)
       294        0.0007           -0.3409158              -9.2768
       295                         -0.3306343              -8.9970
       296                         -0.3289739              -8.9518
       297                         -0.3183344              -8.6623
       ...                                ...                  ...
       567                          1.0729432              29.1963
      -------------------------------------------------------------
                  HL-Gap            0.0112161 Eh            0.3052 eV
             Fermi-level           -0.3485394 Eh           -9.4842 eV

 SCC (total)                   0 d,  0 h,  0 min,  0.592 sec
 SCC setup                      ...        0 min,  0.003 sec (  0.428%)
 Dispersion                     ...        0 min,  0.007 sec (  1.266%)
 classical contributions        ...        0 min,  0.000 sec (  0.052%)
 integral evaluation            ...        0 min,  0.028 sec (  4.711%)
 iterations                     ...        0 min,  0.449 sec ( 75.850%)
 molecular gradient             ...        0 min,  0.102 sec ( 17.242%)
 printout                       ...        0 min,  0.003 sec (  0.436%)

         :::::::::::::::::::::::::::::::::::::::::::::::::::::
         ::                     SUMMARY                     ::
         :::::::::::::::::::::::::::::::::::::::::::::::::::::
         :: total energy            -321.853782823224 Eh    ::
         :: gradient norm              0.337936187806 Eh/a0 ::
         :: HOMO-LUMO gap              0.305205961040 eV    ::
         ::.................................................::
         :: SCC energy              -326.538335727467 Eh    ::
         :: -> isotropic ES            0.227586956651 Eh    ::
         :: -> anisotropic ES          0.026574659916 Eh    ::
         :: -> anisotropic XC          0.193614142954 Eh    ::
         :: -> dispersion             -0.295485922804 Eh    ::
         :: repulsion energy           4.675120125387 Eh    ::
         :: add. restraining           0.000000000000 Eh    ::
         :: total charge               0.000000000000 e     ::
         :::::::::::::::::::::::::::::::::::::::::::::::::::::

      ----------------------------------------------------------- 
     |                   =====================                   |
     |                        A N C O P T                        |
     |                   =====================                   |
     |               Approximate Normal Coordinate               |
     |                Rational Function Optimizer                |
      ----------------------------------------------------------- 

          ...................................................
          :                      SETUP                      :
          :.................................................:
          :   optimization level            normal          :
          :   max. optcycles                   546          :
          :   ANC micro-cycles                  20          :
          :   degrees of freedom               540          :
          :.................................................:
          :   RF solver                   davidson          :
          :   write xtbopt.log                true          :
          :   linear?                        false          :
          :   energy convergence         0.5000000E-05 Eh   :
          :   grad. convergence          0.1000000E-02 Eh/α :
          :   maximium RF displ.         1.0000000          :
          :   Hlow (freq-cutoff)         0.1000000E-01      :
          :   Hmax (freq-cutoff)         5.0000000          :
          :   S6 in model hess.         20.0000000          :
          ...................................................

generating ANC from model Hessian ...
Using Lindh-Hessian (1995)
 Shifting diagonal of input Hessian by   1.000120638375754E-002
 Lowest  eigenvalues of input Hessian
    0.010000    0.000000    0.000000    0.000000    0.000000    0.000000
    0.000000    0.010004    0.010018    0.010024    0.010043    0.010065
    0.010100    0.010111    0.010126    0.010164    0.010198    0.010241
 Highest eigenvalues
    2.265832    2.292556    2.499278    2.500711    2.553343    2.558408
 

........................................................................
.............................. CYCLE    1 ..............................
........................................................................
   1   -326.5383357 -0.326538E+03  0.186E-04    0.31       0.0  T
   2   -326.5383357  0.283853E-08  0.192E-04    0.31      38.6  T
   3   -326.5383357 -0.758996E-08  0.743E-05    0.31      99.8  T
     SCC iter.                  ...        0 min,  0.098 sec
     gradient                   ...        0 min,  0.101 sec
 * total energy  :  -321.8537828 Eh     change       -0.1099329E-07 Eh
   gradient norm :     0.3379356 Eh/α   predicted     0.0000000E+00 (-100.00%)
   displ. norm   :     0.5046169 α      lambda       -0.1237008E+00
   maximum displ.:     0.0902467 α      in ANC's #312, #368, #326, ...

........................................................................
.............................. CYCLE    2 ..............................
........................................................................
   1   -326.7268371 -0.326727E+03  0.277E-01    0.30       0.0  T
   2   -326.7280635 -0.122640E-02  0.163E-01    0.30       1.0  T
   3   -326.7272254  0.838064E-03  0.945E-02    0.31       1.0  T
   4   -326.7283468 -0.112141E-02  0.417E-02    0.28       1.0  T
   5   -326.7285560 -0.209194E-03  0.177E-02    0.30       1.0  T
   6   -326.7285933 -0.373180E-04  0.720E-03    0.29       1.0  T
   7   -326.7285972 -0.385915E-05  0.331E-03    0.29       2.2  T
   8   -326.7285982 -0.103453E-05  0.170E-03    0.29       4.4  T
   9   -326.7285984 -0.162114E-06  0.865E-04    0.29       8.6  T
  10   -326.7285984 -0.690624E-07  0.350E-04    0.29      21.2  T
     SCC iter.                  ...        0 min,  0.308 sec
     gradient                   ...        0 min,  0.100 sec
 * total energy  :  -321.9451568 Eh     change       -0.9137399E-01 Eh
   gradient norm :     0.1606454 Eh/α   predicted    -0.7766485E-01 ( -15.00%)
   displ. norm   :     0.5189499 α      lambda       -0.5430507E-01
   maximum displ.:     0.1062319 α      in ANC's #121, #111, #116, ...

........................................................................
.............................. CYCLE    3 ..............................
........................................................................
   1   -326.8410438 -0.326841E+03  0.221E-01    0.27       0.0  T
   2   -326.8418429 -0.799070E-03  0.130E-01    0.29       1.0  T
   3   -326.8412466  0.596302E-03  0.785E-02    0.27       1.0  T
   4   -326.8420937 -0.847156E-03  0.325E-02    0.27       1.0  T
   5   -326.8422184 -0.124712E-03  0.142E-02    0.28       1.0  T
   6   -326.8422455 -0.270372E-04  0.583E-03    0.28       1.3  T
   7   -326.8422472 -0.176516E-05  0.309E-03    0.28       2.4  T
   8   -326.8422487 -0.146220E-05  0.163E-03    0.28       4.5  T
   9   -326.8422491 -0.412874E-06  0.783E-04    0.28       9.5  T
  10   -326.8422492 -0.610353E-07  0.368E-04    0.28      20.2  T
     SCC iter.                  ...        0 min,  0.298 sec
     gradient                   ...        0 min,  0.100 sec
 * total energy  :  -321.9799933 Eh     change       -0.3483651E-01 Eh
   gradient norm :     0.0476891 Eh/α   predicted    -0.3446495E-01 (  -1.07%)
   displ. norm   :     0.5284073 α      lambda       -0.1527147E-01
   maximum displ.:     0.1265474 α      in ANC's #121, #111, #117, ...

........................................................................
.............................. CYCLE    4 ..............................
........................................................................
   1   -326.8818501 -0.326882E+03  0.137E-01    0.29       0.0  T
   2   -326.8819445 -0.944773E-04  0.821E-02    0.29       1.0  T
   3   -326.8814154  0.529135E-03  0.542E-02    0.28       1.0  T
   4   -326.8820386 -0.623205E-03  0.135E-02    0.28       1.0  T
   5   -326.8820676 -0.290141E-04  0.674E-03    0.28       1.1  T
   6   -326.8820752 -0.758370E-05  0.277E-03    0.28       2.7  T
   7   -326.8820763 -0.109471E-05  0.151E-03    0.28       4.9  T
   8   -326.8820767 -0.370881E-06  0.637E-04    0.28      11.6  T
   9   -326.8820767 -0.397913E-07  0.337E-04    0.28      22.0  T
     SCC iter.                  ...        0 min,  0.276 sec
     gradient                   ...        0 min,  0.106 sec
 * total energy  :  -321.9906859 Eh     change       -0.1069261E-01 Eh
   gradient norm :     0.0290380 Eh/α   predicted    -0.9767774E-02 (  -8.65%)
   displ. norm   :     0.6266042 α      lambda       -0.9797771E-02
   maximum displ.:     0.1653867 α      in ANC's #43, #45, #95, ...

........................................................................
.............................. CYCLE    5 ..............................
........................................................................
   1   -326.8933024 -0.326893E+03  0.231E-01    0.27       0.0  T
   2   -326.8934708 -0.168371E-03  0.130E-01    0.28       1.0  T
   3   -326.8923766  0.109425E-02  0.688E-02    0.26       1.0  T
   4   -326.8935682 -0.119168E-02  0.152E-02    0.29       1.0  T
   5   -326.8936205 -0.522345E-04  0.817E-03    0.27       1.0  T
   6   -326.8936327 -0.122012E-04  0.284E-03    0.28       2.6  T
   7   -326.8936332 -0.559735E-06  0.157E-03    0.28       4.7  T
   8   -326.8936336 -0.322210E-06  0.658E-04    0.28      11.3  T
   9   -326.8936336 -0.501583E-07  0.332E-04    0.28      22.3  T
     SCC iter.                  ...        0 min,  0.295 sec
     gradient                   ...        0 min,  0.107 sec
 * total energy  :  -321.9944947 Eh     change       -0.3808793E-02 Eh
   gradient norm :     0.0382342 Eh/α   predicted    -0.6822409E-02 (  79.12%)
   displ. norm   :     0.4821860 α      lambda       -0.7495982E-02
   maximum displ.:     0.1260055 α      in ANC's #51, #42, #41, ...

........................................................................
.............................. CYCLE    6 ..............................
........................................................................
   1   -326.9087991 -0.326909E+03  0.189E-01    0.31       0.0  T
   2   -326.9088932 -0.940692E-04  0.105E-01    0.32       1.0  T
   3   -326.9082929  0.600247E-03  0.464E-02    0.28       1.0  T
   4   -326.9089444 -0.651476E-03  0.951E-03    0.31       1.0  T
   5   -326.9089646 -0.202288E-04  0.498E-03    0.30       1.5  T
   6   -326.9089684 -0.383023E-05  0.172E-03    0.31       4.3  T
   7   -326.9089686 -0.165760E-06  0.938E-04    0.31       7.9  T
   8   -326.9089687 -0.110145E-06  0.389E-04    0.31      19.0  T
     SCC iter.                  ...        0 min,  0.256 sec
     gradient                   ...        0 min,  0.106 sec
 * total energy  :  -321.9984237 Eh     change       -0.3928984E-02 Eh
   gradient norm :     0.0259578 Eh/α   predicted    -0.4619418E-02 (  17.57%)
   displ. norm   :     0.4290323 α      lambda       -0.2943592E-02
   maximum displ.:     0.1067535 α      in ANC's #52, #45, #25, ...

........................................................................
.............................. CYCLE    7 ..............................
........................................................................
   1   -326.8988279 -0.326899E+03  0.139E-01    0.30       0.0  T
   2   -326.8988585 -0.306013E-04  0.777E-02    0.32       1.0  T
   3   -326.8982433  0.615183E-03  0.492E-02    0.28       1.0  T
   4   -326.8989149 -0.671634E-03  0.702E-03    0.32       1.1  T
   5   -326.8989254 -0.104689E-04  0.364E-03    0.31       2.0  T
   6   -326.8989270 -0.163653E-05  0.160E-03    0.31       4.6  T
   7   -326.8989274 -0.410805E-06  0.596E-04    0.31      12.4  T
   8   -326.8989275 -0.325014E-07  0.281E-04    0.31      26.3  T
     SCC iter.                  ...        0 min,  0.257 sec
     gradient                   ...        0 min,  0.106 sec
 * total energy  :  -322.0001753 Eh     change       -0.1751607E-02 Eh
   gradient norm :     0.0199082 Eh/α   predicted    -0.1742735E-02 (  -0.51%)
   displ. norm   :     0.5991005 α      lambda       -0.3982716E-02
   maximum displ.:     0.1570592 α      in ANC's #45, #43, #44, ...

........................................................................
.............................. CYCLE    8 ..............................
........................................................................
   1   -326.8960633 -0.326896E+03  0.131E-01    0.32       0.0  T
   2   -326.8960874 -0.240710E-04  0.744E-02    0.33       1.0  T
   3   -326.8952480  0.839338E-03  0.499E-02    0.30       1.0  T
   4   -326.8961438 -0.895816E-03  0.945E-03    0.33       1.0  T
   5   -326.8961643 -0.204516E-04  0.403E-03    0.33       1.8  T
   6   -326.8961658 -0.156077E-05  0.172E-03    0.33       4.3  T
   7   -326.8961662 -0.320589E-06  0.711E-04    0.33      10.4  T
   8   -326.8961662 -0.368477E-07  0.343E-04    0.33      21.6  T
     SCC iter.                  ...        0 min,  0.260 sec
     gradient                   ...        0 min,  0.106 sec
 * total energy  :  -322.0027175 Eh     change       -0.2542219E-02 Eh
   gradient norm :     0.0199176 Eh/α   predicted    -0.2706110E-02 (   6.45%)
   displ. norm   :     0.5734731 α      lambda       -0.2201323E-02
   maximum displ.:     0.1402243 α      in ANC's #45, #43, #32, ...

........................................................................
.............................. CYCLE    9 ..............................
........................................................................
   1   -326.8947787 -0.326895E+03  0.899E-02    0.33       0.0  T
   2   -326.8947784  0.296709E-06  0.515E-02    0.34       1.0  T
   3   -326.8941598  0.618614E-03  0.432E-02    0.32       1.0  T
   4   -326.8948305 -0.670708E-03  0.647E-03    0.34       1.1  T
   5   -326.8948367 -0.617694E-05  0.333E-03    0.34       2.2  T
   6   -326.8948379 -0.123692E-05  0.128E-03    0.34       5.8  T
   7   -326.8948381 -0.154789E-06  0.564E-04    0.34      13.1  T
   8   -326.8948381 -0.294779E-07  0.260E-04    0.34      28.5  T
     SCC iter.                  ...        0 min,  0.263 sec
     gradient                   ...        0 min,  0.106 sec
 * total energy  :  -322.0044420 Eh     change       -0.1724402E-02 Eh
   gradient norm :     0.0123908 Eh/α   predicted    -0.1462640E-02 ( -15.18%)
   displ. norm   :     0.6595569 α      lambda       -0.1978824E-02
   maximum displ.:     0.1680068 α      in ANC's #32, #14, #45, ...

........................................................................
.............................. CYCLE   10 ..............................
........................................................................
   1   -326.8949035 -0.326895E+03  0.891E-02    0.34       0.0  T
   2   -326.8949148 -0.112816E-04  0.514E-02    0.35       1.0  T
   3   -326.8944419  0.472895E-03  0.375E-02    0.32       1.0  T
   4   -326.8949431 -0.501184E-03  0.876E-03    0.35       1.0  T
   5   -326.8949612 -0.180560E-04  0.332E-03    0.34       2.2  T
   6   -326.8949623 -0.115525E-05  0.127E-03    0.34       5.8  T
   7   -326.8949624 -0.118541E-06  0.535E-04    0.34      13.9  T
   8   -326.8949625 -0.283769E-07  0.269E-04    0.34      27.6  T
     SCC iter.                  ...        0 min,  0.259 sec
     gradient                   ...        0 min,  0.106 sec
 * total energy  :  -322.0059980 Eh     change       -0.1556080E-02 Eh
   gradient norm :     0.0117778 Eh/α   predicted    -0.1419823E-02 (  -8.76%)
   displ. norm   :     0.7128098 α      lambda       -0.1955912E-02
   maximum displ.:     0.1934331 α      in ANC's #14, #32, #27, ...

........................................................................
.............................. CYCLE   11 ..............................
........................................................................
   1   -326.8858791 -0.326886E+03  0.151E-01    0.35       0.0  T
   2   -326.8858924 -0.132531E-04  0.853E-02    0.36       1.0  T
   3   -326.8844448  0.144760E-02  0.628E-02    0.32       1.0  T
   4   -326.8859842 -0.153940E-02  0.843E-03    0.35       1.0  T
   5   -326.8859971 -0.128833E-04  0.450E-03    0.35       1.6  T
   6   -326.8859994 -0.236803E-05  0.190E-03    0.35       3.9  T
   7   -326.8859997 -0.273405E-06  0.908E-04    0.35       8.2  T
   8   -326.8859998 -0.100867E-06  0.361E-04    0.35      20.5  T
     SCC iter.                  ...        0 min,  0.256 sec
     gradient                   ...        0 min,  0.100 sec
 * total energy  :  -322.0071229 Eh     change       -0.1124837E-02 Eh
   gradient norm :     0.0318111 Eh/α   predicted    -0.1474861E-02 (  31.12%)
   displ. norm   :     0.5334804 α      lambda       -0.1644017E-02
   maximum displ.:     0.1691168 α      in ANC's #14, #3, #32, ...

........................................................................
.............................. CYCLE   12 ..............................
........................................................................
   1   -326.8969530 -0.326897E+03  0.798E-02    0.35       0.0  T
   2   -326.8969661 -0.131280E-04  0.458E-02    0.36       1.0  T
   3   -326.8967574  0.208774E-03  0.278E-02    0.34       1.0  T
   4   -326.8969730 -0.215650E-03  0.781E-03    0.36       1.0  T
   5   -326.8969908 -0.177456E-04  0.262E-03    0.36       2.8  T
   6   -326.8969916 -0.798986E-06  0.114E-03    0.36       6.5  T
   7   -326.8969917 -0.101040E-06  0.550E-04    0.36      13.5  T
   8   -326.8969917 -0.443902E-07  0.231E-04    0.36      32.1  T
     SCC iter.                  ...        0 min,  0.242 sec
     gradient                   ...        0 min,  0.100 sec
 * total energy  :  -322.0082738 Eh     change       -0.1150950E-02 Eh
   gradient norm :     0.0141374 Eh/α   predicted    -0.1055961E-02 (  -8.25%)
   displ. norm   :     0.5924651 α      lambda       -0.1289338E-02
   maximum displ.:     0.1934443 α      in ANC's #14, #3, #32, ...

........................................................................
.............................. CYCLE   13 ..............................
........................................................................
   1   -326.9018679 -0.326902E+03  0.993E-02    0.36       0.0  T
   2   -326.9018922 -0.242297E-04  0.565E-02    0.37       1.0  T
   3   -326.9015928  0.299357E-03  0.321E-02    0.35       1.0  T
   4   -326.9019059 -0.313130E-03  0.803E-03    0.36       1.0  T
   5   -326.9019231 -0.171995E-04  0.314E-03    0.36       2.4  T
   6   -326.9019246 -0.146860E-05  0.121E-03    0.36       6.1  T
   7   -326.9019247 -0.766555E-07  0.566E-04    0.36      13.1  T
   8   -326.9019247 -0.296686E-07  0.250E-04    0.36      29.6  T
     SCC iter.                  ...        0 min,  0.243 sec
     gradient                   ...        0 min,  0.100 sec
 * total energy  :  -322.0090234 Eh     change       -0.7495538E-03 Eh
   gradient norm :     0.0285495 Eh/α   predicted    -0.8709576E-03 (  16.20%)
   displ. norm   :     0.6093369 α      lambda       -0.1597763E-02
   maximum displ.:     0.2101839 α      in ANC's #14, #27, #3, ...

........................................................................
.............................. CYCLE   14 ..............................
........................................................................
   1   -326.8994277 -0.326899E+03  0.112E-01    0.36       0.0  T
   2   -326.8994407 -0.129938E-04  0.638E-02    0.37       1.0  T
   3   -326.8987793  0.661346E-03  0.443E-02    0.34       1.0  T
   4   -326.8994830 -0.703690E-03  0.742E-03    0.37       1.0  T
   5   -326.8994953 -0.122925E-04  0.330E-03    0.37       2.2  T
   6   -326.8994965 -0.116034E-05  0.142E-03    0.37       5.2  T
   7   -326.8994966 -0.170132E-06  0.702E-04    0.37      10.6  T
   8   -326.8994967 -0.554077E-07  0.269E-04    0.37      27.6  T
     SCC iter.                  ...        0 min,  0.242 sec
     gradient                   ...        0 min,  0.100 sec
 * total energy  :  -322.0101413 Eh     change       -0.1117952E-02 Eh
   gradient norm :     0.0131981 Eh/α   predicted    -0.1095510E-02 (  -2.01%)
   displ. norm   :     0.6198495 α      lambda       -0.1034752E-02
   maximum displ.:     0.2243376 α      in ANC's #14, #3, #27, ...

........................................................................
.............................. CYCLE   15 ..............................
........................................................................
   1   -326.9012190 -0.326901E+03  0.826E-02    0.37       0.0  T
   2   -326.9012193 -0.359626E-06  0.478E-02    0.38       1.0  T
   3   -326.9007392  0.480138E-03  0.370E-02    0.35       1.0  T
   4   -326.9012510 -0.511743E-03  0.583E-03    0.37       1.3  T
   5   -326.9012579 -0.693040E-05  0.258E-03    0.37       2.9  T
   6   -326.9012586 -0.753035E-06  0.107E-03    0.37       6.9  T
   7   -326.9012587 -0.927437E-07  0.516E-04    0.37      14.4  T
   8   -326.9012588 -0.256595E-07  0.226E-04    0.37      32.8  T
     SCC iter.                  ...        0 min,  0.244 sec
     gradient                   ...        0 min,  0.101 sec
 * total energy  :  -322.0109818 Eh     change       -0.8405112E-03 Eh
   gradient norm :     0.0120142 Eh/α   predicted    -0.7161630E-03 ( -14.79%)
   displ. norm   :     0.6824706 α      lambda       -0.1019999E-02
   maximum displ.:     0.2550658 α      in ANC's #14, #3, #27, ...

........................................................................
.............................. CYCLE   16 ..............................
........................................................................
   1   -326.9001679 -0.326900E+03  0.866E-02    0.37       0.0  T
   2   -326.9001712 -0.327388E-05  0.501E-02    0.38       1.0  T
   3   -326.8997195  0.451747E-03  0.365E-02    0.36       1.0  T
   4   -326.9001988 -0.479350E-03  0.640E-03    0.38       1.2  T
   5   -326.9002081 -0.929173E-05  0.268E-03    0.37       2.8  T
   6   -326.9002090 -0.882296E-06  0.115E-03    0.37       6.5  T
   7   -326.9002091 -0.120254E-06  0.509E-04    0.37      14.6  T
   8   -326.9002091 -0.279875E-07  0.220E-04    0.37      33.7  T
     SCC iter.                  ...        0 min,  0.243 sec
     gradient                   ...        0 min,  0.100 sec
 * total energy  :  -322.0118365 Eh     change       -0.8546966E-03 Eh
   gradient norm :     0.0104889 Eh/α   predicted    -0.7475434E-03 ( -12.54%)
   displ. norm   :     0.6965995 α      lambda       -0.9654232E-03
   maximum displ.:     0.2677308 α      in ANC's #14, #3, #11, ...

........................................................................
.............................. CYCLE   17 ..............................
........................................................................
   1   -326.9039906 -0.326904E+03  0.756E-02    0.38       0.0  T
   2   -326.9039916 -0.932817E-06  0.440E-02    0.38       1.0  T
   3   -326.9036296  0.361937E-03  0.330E-02    0.37       1.0  T
   4   -326.9040136 -0.383987E-03  0.581E-03    0.38       1.3  T
   5   -326.9040215 -0.789363E-05  0.246E-03    0.38       3.0  T
   6   -326.9040224 -0.870792E-06  0.995E-04    0.38       7.4  T
   7   -326.9040225 -0.843044E-07  0.471E-04    0.38      15.7  T
     SCC iter.                  ...        0 min,  0.220 sec
     gradient                   ...        0 min,  0.100 sec
 * total energy  :  -322.0126209 Eh     change       -0.7843800E-03 Eh
   gradient norm :     0.0104740 Eh/α   predicted    -0.7169494E-03 (  -8.60%)
   displ. norm   :     0.7605155 α      lambda       -0.9931744E-03
   maximum displ.:     0.2910389 α      in ANC's #14, #3, #11, ...

........................................................................
.............................. CYCLE   18 ..............................
........................................................................
   1   -326.8964260 -0.326896E+03  0.900E-02    0.38       0.0  T
   2   -326.8964123  0.136622E-04  0.532E-02    0.39       1.0  T
   3   -326.8956128  0.799506E-03  0.480E-02    0.36       1.0  T
   4   -326.8964724 -0.859582E-03  0.751E-03    0.39       1.0  T
   5   -326.8964846 -0.121813E-04  0.272E-03    0.38       2.7  T
   6   -326.8964855 -0.921997E-06  0.133E-03    0.38       5.6  T
   7   -326.8964857 -0.180249E-06  0.575E-04    0.38      12.9  T
   8   -326.8964857 -0.299545E-07  0.251E-04    0.38      29.6  T
     SCC iter.                  ...        0 min,  0.239 sec
     gradient                   ...        0 min,  0.099 sec
 * total energy  :  -322.0134013 Eh     change       -0.7803431E-03 Eh
   gradient norm :     0.0121036 Eh/α   predicted    -0.7838106E-03 (   0.44%)
   displ. norm   :     0.6899514 α      lambda       -0.9609085E-03
   maximum displ.:     0.2727174 α      in ANC's #3, #14, #11, ...

........................................................................
.............................. CYCLE   19 ..............................
........................................................................
   1   -326.8987655 -0.326899E+03  0.779E-02    0.38       0.0  T
   2   -326.8987672 -0.175888E-05  0.451E-02    0.39       1.0  T
   3   -326.8984119  0.355387E-03  0.319E-02    0.37       1.0  T
   4   -326.8987879 -0.376011E-03  0.552E-03    0.39       1.3  T
   5   -326.8987947 -0.687775E-05  0.227E-03    0.38       3.3  T
   6   -326.8987952 -0.479500E-06  0.101E-03    0.38       7.3  T
   7   -326.8987953 -0.112710E-06  0.437E-04    0.38      17.0  T
   8   -326.8987954 -0.252597E-07  0.184E-04    0.38      40.4  T
     SCC iter.                  ...        0 min,  0.240 sec
     gradient                   ...        0 min,  0.099 sec
 * total energy  :  -322.0142324 Eh     change       -0.8311461E-03 Eh
   gradient norm :     0.0099976 Eh/α   predicted    -0.7091677E-03 ( -14.68%)
   displ. norm   :     0.7396377 α      lambda       -0.1050753E-02
   maximum displ.:     0.3020098 α      in ANC's #3, #14, #11, ...

........................................................................
.............................. CYCLE   20 ..............................
........................................................................
   1   -326.9044768 -0.326904E+03  0.748E-02    0.38       0.0  T
   2   -326.9044770 -0.261349E-06  0.437E-02    0.39       1.0  T
   3   -326.9041226  0.354447E-03  0.332E-02    0.37       1.0  T
   4   -326.9044932 -0.370583E-03  0.766E-03    0.39       1.0  T
   5   -326.9045107 -0.175501E-04  0.218E-03    0.39       3.4  T
   6   -326.9045112 -0.476504E-06  0.989E-04    0.39       7.5  T
   7   -326.9045113 -0.481178E-07  0.476E-04    0.39      15.6  T
     SCC iter.                  ...        0 min,  0.214 sec
     gradient                   ...        0 min,  0.100 sec
 * total energy  :  -322.0151041 Eh     change       -0.8717415E-03 Eh
   gradient norm :     0.0113393 Eh/α   predicted    -0.8127971E-03 (  -6.76%)
   displ. norm   :     0.7821422 α      lambda       -0.1038544E-02
   maximum displ.:     0.3203138 α      in ANC's #3, #14, #11, ...
 * RMSD in coord.:     0.6940900 α      energy gain  -0.1613213E+00 Eh

generating ANC from model Hessian ...
Using Lindh-Hessian (1995)
 Shifting diagonal of input Hessian by   1.002397136874923E-002
 Lowest  eigenvalues of input Hessian
    0.010000    0.010017    0.000000    0.000000    0.000000    0.000000
    0.000000    0.000000    0.010028    0.010037    0.010061    0.010066
    0.010099    0.010122    0.010153    0.010189    0.010238    0.010271
 Highest eigenvalues
    2.271570    2.285879    2.599164    2.612101    2.644728    2.655491
 

........................................................................
.............................. CYCLE   21 ..............................
........................................................................
   1   -326.9007158 -0.326901E+03  0.895E-02    0.38       0.0  T
   2   -326.9007205 -0.465573E-05  0.522E-02    0.39       1.0  T
   3   -326.9002571  0.463351E-03  0.384E-02    0.37       1.0  T
   4   -326.9007458 -0.488633E-03  0.781E-03    0.39       1.0  T
   5   -326.9007638 -0.180070E-04  0.276E-03    0.38       2.7  T
   6   -326.9007646 -0.838123E-06  0.137E-03    0.39       5.4  T
   7   -326.9007648 -0.174119E-06  0.681E-04    0.38      10.9  T
   8   -326.9007648 -0.701782E-07  0.214E-04    0.38      34.6  T
     SCC iter.                  ...        0 min,  0.245 sec
     gradient                   ...        0 min,  0.100 sec
 * total energy  :  -322.0159364 Eh     change       -0.8322361E-03 Eh
   gradient norm :     0.0138161 Eh/α   predicted     0.0000000E+00 (-100.00%)
   displ. norm   :     0.1409470 α      lambda       -0.4425333E-03
   maximum displ.:     0.0554437 α      in ANC's #11, #4, #1, ...

........................................................................
.............................. CYCLE   22 ..............................
........................................................................
   1   -326.9028847 -0.326903E+03  0.551E-02    0.39       0.0  T
   2   -326.9028922 -0.745614E-05  0.306E-02    0.38       1.0  T
   3   -326.9028764  0.157829E-04  0.895E-03    0.39       1.0  T
   4   -326.9028954 -0.190106E-04  0.205E-03    0.38       3.6  T
   5   -326.9028960 -0.662506E-06  0.129E-03    0.38       5.8  T
   6   -326.9028964 -0.337256E-06  0.465E-04    0.38      15.9  T
   7   -326.9028964 -0.425728E-07  0.166E-04    0.38      44.7  T
     SCC iter.                  ...        0 min,  0.213 sec
     gradient                   ...        0 min,  0.100 sec
 * total energy  :  -322.0161561 Eh     change       -0.2196927E-03 Eh
   gradient norm :     0.0075149 Eh/α   predicted    -0.2256702E-03 (   2.72%)
   displ. norm   :     0.3215362 α      lambda       -0.7932424E-03
   maximum displ.:     0.1502085 α      in ANC's #11, #10, #4, ...

........................................................................
.............................. CYCLE   23 ..............................
........................................................................
   1   -326.9084994 -0.326908E+03  0.743E-02    0.39       0.0  T
   2   -326.9085099 -0.104993E-04  0.420E-02    0.38       1.0  T
   3   -326.9083737  0.136240E-03  0.246E-02    0.39       1.0  T
   4   -326.9085206 -0.146904E-03  0.503E-03    0.38       1.5  T
   5   -326.9085273 -0.666459E-05  0.213E-03    0.38       3.5  T
   6   -326.9085279 -0.648738E-06  0.966E-04    0.38       7.7  T
   7   -326.9085281 -0.166115E-06  0.417E-04    0.38      17.8  T
     SCC iter.                  ...        0 min,  0.213 sec
     gradient                   ...        0 min,  0.099 sec
 * total energy  :  -322.0163588 Eh     change       -0.2027603E-03 Eh
   gradient norm :     0.0234253 Eh/α   predicted    -0.4376267E-03 ( 115.83%)
   displ. norm   :     0.2249402 α      lambda       -0.7189488E-03
   maximum displ.:     0.0891678 α      in ANC's #11, #1, #4, ...

........................................................................
.............................. CYCLE   24 ..............................
........................................................................
   1   -326.9081377 -0.326908E+03  0.874E-02    0.38       0.0  T
   2   -326.9081536 -0.159118E-04  0.483E-02    0.38       1.0  T
   3   -326.9081395  0.141036E-04  0.100E-02    0.39       1.0  T
   4   -326.9081607 -0.211662E-04  0.219E-03    0.38       3.4  T
   5   -326.9081608 -0.152935E-06  0.147E-03    0.38       5.0  T
   6   -326.9081611 -0.310783E-06  0.528E-04    0.38      14.0  T
   7   -326.9081612 -0.480708E-07  0.302E-04    0.38      24.5  T
     SCC iter.                  ...        0 min,  0.211 sec
     gradient                   ...        0 min,  0.100 sec
 * total energy  :  -322.0166358 Eh     change       -0.2769860E-03 Eh
   gradient norm :     0.0155309 Eh/α   predicted    -0.3776719E-03 (  36.35%)
   displ. norm   :     0.2640232 α      lambda       -0.9420196E-03
   maximum displ.:     0.1248910 α      in ANC's #11, #4, #10, ...

........................................................................
.............................. CYCLE   25 ..............................
........................................................................
   1   -326.9034087 -0.326903E+03  0.771E-02    0.38       0.0  T
   2   -326.9034190 -0.103155E-04  0.433E-02    0.39       1.0  T
   3   -326.9032817  0.137327E-03  0.249E-02    0.38       1.0  T
   4   -326.9034312 -0.149512E-03  0.382E-03    0.39       1.9  T
   5   -326.9034347 -0.346998E-05  0.196E-03    0.38       3.8  T
   6   -326.9034353 -0.652900E-06  0.869E-04    0.39       8.5  T
   7   -326.9034355 -0.113528E-06  0.413E-04    0.38      17.9  T
     SCC iter.                  ...        0 min,  0.219 sec
     gradient                   ...        0 min,  0.099 sec
 * total energy  :  -322.0169548 Eh     change       -0.3189690E-03 Eh
   gradient norm :     0.0197789 Eh/α   predicted    -0.5038434E-03 (  57.96%)
   displ. norm   :     0.3236553 α      lambda       -0.8637941E-03
   maximum displ.:     0.1463239 α      in ANC's #11, #10, #4, ...

........................................................................
.............................. CYCLE   26 ..............................
........................................................................
   1   -326.9026748 -0.326903E+03  0.994E-02    0.38       0.0  T
   2   -326.9026971 -0.223867E-04  0.552E-02    0.38       1.0  T
   3   -326.9026472  0.498964E-04  0.156E-02    0.38       1.0  T
   4   -326.9027072 -0.599357E-04  0.354E-03    0.38       2.1  T
   5   -326.9027093 -0.209955E-05  0.214E-03    0.38       3.5  T
   6   -326.9027102 -0.923851E-06  0.705E-04    0.38      10.5  T
   7   -326.9027103 -0.722075E-07  0.325E-04    0.38      22.8  T
     SCC iter.                  ...        0 min,  0.213 sec
     gradient                   ...        0 min,  0.099 sec
 * total energy  :  -322.0173015 Eh     change       -0.3466675E-03 Eh
   gradient norm :     0.0210892 Eh/α   predicted    -0.4771403E-03 (  37.64%)
   displ. norm   :     0.4005417 α      lambda       -0.9022217E-03
   maximum displ.:     0.1936982 α      in ANC's #11, #4, #10, ...

........................................................................
.............................. CYCLE   27 ..............................
........................................................................
   1   -326.9076949 -0.326908E+03  0.523E-02    0.38       0.0  T
   2   -326.9077024 -0.743070E-05  0.299E-02    0.38       1.0  T
   3   -326.9076675  0.349013E-04  0.141E-02    0.38       1.0  T
   4   -326.9077079 -0.404819E-04  0.236E-03    0.38       3.1  T
   5   -326.9077082 -0.266559E-06  0.175E-03    0.38       4.2  T
   6   -326.9077089 -0.727441E-06  0.700E-04    0.38      10.6  T
   7   -326.9077090 -0.714823E-07  0.375E-04    0.38      19.7  T
     SCC iter.                  ...        0 min,  0.211 sec
     gradient                   ...        0 min,  0.100 sec
 * total energy  :  -322.0179391 Eh     change       -0.6376862E-03 Eh
   gradient norm :     0.0078652 Eh/α   predicted    -0.5234932E-03 ( -17.91%)
   displ. norm   :     0.6214892 α      lambda       -0.8022601E-03
   maximum displ.:     0.2981243 α      in ANC's #11, #4, #10, ...

........................................................................
.............................. CYCLE   28 ..............................
........................................................................
   1   -326.9067735 -0.326907E+03  0.718E-02    0.38       0.0  T
   2   -326.9067883 -0.147858E-04  0.410E-02    0.38       1.0  T
   3   -326.9067157  0.725699E-04  0.196E-02    0.38       1.0  T
   4   -326.9067987 -0.829993E-04  0.374E-03    0.38       2.0  T
   5   -326.9068005 -0.179112E-05  0.252E-03    0.38       2.9  T
   6   -326.9068019 -0.137664E-05  0.960E-04    0.38       7.7  T
   7   -326.9068020 -0.100580E-06  0.546E-04    0.38      13.6  T
   8   -326.9068020 -0.612450E-07  0.180E-04    0.38      41.2  T
     SCC iter.                  ...        0 min,  0.245 sec
     gradient                   ...        0 min,  0.100 sec
 * total energy  :  -322.0186158 Eh     change       -0.6766511E-03 Eh
   gradient norm :     0.0110140 Eh/α   predicted    -0.5560690E-03 ( -17.82%)
   displ. norm   :     0.7877591 α      lambda       -0.9580813E-03
   maximum displ.:     0.3804894 α      in ANC's #11, #4, #10, ...

........................................................................
.............................. CYCLE   29 ..............................
........................................................................
   1   -326.9049558 -0.326905E+03  0.695E-02    0.38       0.0  T
   2   -326.9049620 -0.613756E-05  0.409E-02    0.39       1.0  T
   3   -326.9047439  0.218082E-03  0.297E-02    0.38       1.0  T
   4   -326.9049758 -0.231904E-03  0.725E-03    0.39       1.0  T
   5   -326.9049920 -0.162049E-04  0.230E-03    0.38       3.2  T
   6   -326.9049927 -0.731925E-06  0.117E-03    0.38       6.4  T
   7   -326.9049929 -0.165488E-06  0.620E-04    0.38      12.0  T
   8   -326.9049929 -0.490509E-07  0.221E-04    0.38      33.6  T
     SCC iter.                  ...        0 min,  0.234 sec
     gradient                   ...        0 min,  0.099 sec
 * total energy  :  -322.0194883 Eh     change       -0.8725400E-03 Eh
   gradient norm :     0.0100162 Eh/α   predicted    -0.7763153E-03 ( -11.03%)
   displ. norm   :     0.8363146 α      lambda       -0.1040729E-02
   maximum displ.:     0.4099329 α      in ANC's #11, #4, #10, ...

........................................................................
.............................. CYCLE   30 ..............................
........................................................................
   1   -326.9049902 -0.326905E+03  0.772E-02    0.38       0.0  T
   2   -326.9050019 -0.117029E-04  0.451E-02    0.39       1.0  T
   3   -326.9047751  0.226766E-03  0.315E-02    0.38       1.0  T
   4   -326.9050189 -0.243804E-03  0.765E-03    0.39       1.0  T
   5   -326.9050364 -0.174263E-04  0.267E-03    0.39       2.8  T
   6   -326.9050375 -0.108583E-05  0.131E-03    0.39       5.7  T
   7   -326.9050377 -0.230182E-06  0.681E-04    0.39      10.9  T
   8   -326.9050377 -0.595361E-07  0.240E-04    0.39      30.9  T
     SCC iter.                  ...        0 min,  0.233 sec
     gradient                   ...        0 min,  0.106 sec
 * total energy  :  -322.0204525 Eh     change       -0.9642015E-03 Eh
   gradient norm :     0.0073119 Eh/α   predicted    -0.8843206E-03 (  -8.28%)
   displ. norm   :     0.8624094 α      lambda       -0.1059871E-02
   maximum displ.:     0.4281519 α      in ANC's #11, #4, #10, ...

........................................................................
.............................. CYCLE   31 ..............................
........................................................................
   1   -326.9070001 -0.326907E+03  0.800E-02    0.39       0.0  T
   2   -326.9070167 -0.165384E-04  0.467E-02    0.39       1.0  T
   3   -326.9068142  0.202498E-03  0.315E-02    0.39       1.0  T
   4   -326.9070370 -0.222819E-03  0.745E-03    0.39       1.0  T
   5   -326.9070528 -0.157862E-04  0.279E-03    0.39       2.7  T
   6   -326.9070542 -0.139432E-05  0.131E-03    0.39       5.6  T
   7   -326.9070544 -0.246277E-06  0.701E-04    0.39      10.6  T
   8   -326.9070545 -0.633959E-07  0.245E-04    0.39      30.3  T
     SCC iter.                  ...        0 min,  0.250 sec
     gradient                   ...        0 min,  0.106 sec
 * total energy  :  -322.0214297 Eh     change       -0.9771426E-03 Eh
   gradient norm :     0.0072971 Eh/α   predicted    -0.9240772E-03 (  -5.43%)
   displ. norm   :     0.8870823 α      lambda       -0.1023061E-02
   maximum displ.:     0.4443986 α      in ANC's #11, #4, #10, ...

........................................................................
.............................. CYCLE   32 ..............................
........................................................................
   1   -326.9076772 -0.326908E+03  0.805E-02    0.39       0.0  T
   2   -326.9076988 -0.216569E-04  0.471E-02    0.40       1.0  T
   3   -326.9075447  0.154156E-03  0.297E-02    0.39       1.0  T
   4   -326.9077248 -0.180179E-03  0.578E-03    0.40       1.3  T
   5   -326.9077320 -0.714743E-05  0.281E-03    0.40       2.6  T
   6   -326.9077334 -0.142287E-05  0.119E-03    0.40       6.2  T
   7   -326.9077336 -0.159140E-06  0.751E-04    0.40       9.9  T
   8   -326.9077337 -0.101517E-06  0.248E-04    0.40      29.8  T
     SCC iter.                  ...        0 min,  0.250 sec
     gradient                   ...        0 min,  0.106 sec
 * total energy  :  -322.0223939 Eh     change       -0.9642267E-03 Eh
   gradient norm :     0.0090730 Eh/α   predicted    -0.9140701E-03 (  -5.20%)
   displ. norm   :     0.8684396 α      lambda       -0.1035470E-02
   maximum displ.:     0.4367767 α      in ANC's #11, #4, #10, ...

........................................................................
.............................. CYCLE   33 ..............................
........................................................................
   1   -326.9136311 -0.326914E+03  0.787E-02    0.40       0.0  T
   2   -326.9136562 -0.251947E-04  0.463E-02    0.41       1.0  T
   3   -326.9135162  0.140070E-03  0.293E-02    0.41       1.0  T
   4   -326.9136880 -0.171820E-03  0.523E-03    0.40       1.4  T
   5   -326.9136930 -0.504869E-05  0.250E-03    0.41       3.0  T
   6   -326.9136941 -0.102130E-05  0.930E-04    0.41       8.0  T
   7   -326.9136940  0.347245E-07  0.648E-04    0.41      11.4  T
   8   -326.9136941 -0.931049E-07  0.289E-04    0.41      25.6  T
     SCC iter.                  ...        0 min,  0.254 sec
     gradient                   ...        0 min,  0.106 sec
 * total energy  :  -322.0233502 Eh     change       -0.9562598E-03 Eh
   gradient norm :     0.0072536 Eh/α   predicted    -0.9082056E-03 (  -5.03%)
   displ. norm   :     0.9057648 α      lambda       -0.1020729E-02
   maximum displ.:     0.4500995 α      in ANC's #11, #4, #10, ...

........................................................................
.............................. CYCLE   34 ..............................
........................................................................
   1   -326.9081282 -0.326908E+03  0.829E-02    0.41       0.0  T
   2   -326.9081497 -0.214911E-04  0.485E-02    0.41       1.0  T
   3   -326.9079845  0.165178E-03  0.292E-02    0.41       1.0  T
   4   -326.9081765 -0.191937E-03  0.519E-03    0.41       1.4  T
   5   -326.9081815 -0.498697E-05  0.259E-03    0.41       2.9  T
   6   -326.9081826 -0.113867E-05  0.112E-03    0.41       6.6  T
   7   -326.9081826 -0.312510E-07  0.799E-04    0.41       9.3  T
   8   -326.9081828 -0.155488E-06  0.247E-04    0.41      30.1  T
     SCC iter.                  ...        0 min,  0.255 sec
     gradient                   ...        0 min,  0.106 sec
 * total energy  :  -322.0242854 Eh     change       -0.9352613E-03 Eh
   gradient norm :     0.0080513 Eh/α   predicted    -0.9290739E-03 (  -0.66%)
   displ. norm   :     0.8438009 α      lambda       -0.1027977E-02
   maximum displ.:     0.4087936 α      in ANC's #11, #4, #10, ...

........................................................................
.............................. CYCLE   35 ..............................
........................................................................
   1   -326.9169273 -0.326917E+03  0.851E-02    0.41       0.0  T
   2   -326.9169498 -0.225011E-04  0.504E-02    0.41       1.0  T
   3   -326.9166507  0.299108E-03  0.364E-02    0.42       1.0  T
   4   -326.9169937 -0.343011E-03  0.880E-03    0.41       1.0  T
   5   -326.9170144 -0.206472E-04  0.300E-03    0.42       2.5  T
   6   -326.9170162 -0.183295E-05  0.139E-03    0.41       5.3  T
   7   -326.9170164 -0.215405E-06  0.821E-04    0.42       9.0  T
   8   -326.9170165 -0.959667E-07  0.263E-04    0.42      28.2  T
     SCC iter.                  ...        0 min,  0.240 sec
     gradient                   ...        0 min,  0.099 sec
 * total energy  :  -322.0251357 Eh     change       -0.8502462E-03 Eh
   gradient norm :     0.0090992 Eh/α   predicted    -0.8799516E-03 (   3.49%)
   displ. norm   :     0.8761116 α      lambda       -0.8879060E-03
   maximum displ.:     0.4295808 α      in ANC's #11, #4, #10, ...

........................................................................
.............................. CYCLE   36 ..............................
........................................................................
   1   -326.9092269 -0.326909E+03  0.763E-02    0.41       0.0  T
   2   -326.9092413 -0.144940E-04  0.447E-02    0.42       1.0  T
   3   -326.9091032  0.138182E-03  0.256E-02    0.42       1.0  T
   4   -326.9092599 -0.156732E-03  0.440E-03    0.42       1.7  T
   5   -326.9092633 -0.340739E-05  0.218E-03    0.42       3.4  T
   6   -326.9092640 -0.689370E-06  0.982E-04    0.42       7.5  T
   7   -326.9092640 -0.255500E-08  0.672E-04    0.42      11.0  T
     SCC iter.                  ...        0 min,  0.212 sec
     gradient                   ...        0 min,  0.099 sec
 * total energy  :  -322.0258759 Eh     change       -0.7402758E-03 Eh
   gradient norm :     0.0104624 Eh/α   predicted    -0.7847248E-03 (   6.00%)
   displ. norm   :     0.7960101 α      lambda       -0.7387300E-03
   maximum displ.:     0.3783588 α      in ANC's #11, #4, #10, ...

........................................................................
.............................. CYCLE   37 ..............................
........................................................................
   1   -326.9062843 -0.326906E+03  0.763E-02    0.42       0.0  T
   2   -326.9062990 -0.147149E-04  0.445E-02    0.42       1.0  T
   3   -326.9061195  0.179560E-03  0.272E-02    0.43       1.0  T
   4   -326.9063174 -0.197942E-03  0.571E-03    0.42       1.3  T
   5   -326.9063253 -0.790676E-05  0.229E-03    0.42       3.2  T
   6   -326.9063261 -0.828152E-06  0.110E-03    0.42       6.8  T
   7   -326.9063262 -0.908294E-07  0.684E-04    0.42      10.8  T
   8   -326.9063263 -0.850741E-07  0.206E-04    0.42      36.1  T
     SCC iter.                  ...        0 min,  0.238 sec
     gradient                   ...        0 min,  0.100 sec
 * total energy  :  -322.0265082 Eh     change       -0.6322644E-03 Eh
   gradient norm :     0.0066784 Eh/α   predicted    -0.6034152E-03 (  -4.56%)
   displ. norm   :     0.7411879 α      lambda       -0.7307331E-03
   maximum displ.:     0.3154518 α      in ANC's #11, #4, #1, ...

........................................................................
.............................. CYCLE   38 ..............................
........................................................................
   1   -326.9160506 -0.326916E+03  0.623E-02    0.42       0.0  T
   2   -326.9160617 -0.111178E-04  0.375E-02    0.42       1.0  T
   3   -326.9158926  0.169131E-03  0.266E-02    0.44       1.0  T
   4   -326.9160825 -0.189934E-03  0.640E-03    0.42       1.2  T
   5   -326.9160930 -0.105067E-04  0.209E-03    0.43       3.5  T
   6   -326.9160938 -0.836623E-06  0.913E-04    0.43       8.1  T
   7   -326.9160939 -0.441296E-07  0.570E-04    0.43      13.0  T
     SCC iter.                  ...        0 min,  0.211 sec
     gradient                   ...        0 min,  0.099 sec
 * total energy  :  -322.0270810 Eh     change       -0.5727921E-03 Eh
   gradient norm :     0.0102674 Eh/α   predicted    -0.5660865E-03 (  -1.17%)
   displ. norm   :     0.7692546 α      lambda       -0.6207936E-03
   maximum displ.:     0.3299201 α      in ANC's #11, #4, #1, ...

........................................................................
.............................. CYCLE   39 ..............................
........................................................................
   1   -326.9125146 -0.326913E+03  0.694E-02    0.43       0.0  T
   2   -326.9125273 -0.127363E-04  0.404E-02    0.43       1.0  T
   3   -326.9124474  0.799789E-04  0.188E-02    0.44       1.0  T
   4   -326.9125341 -0.866995E-04  0.437E-03    0.43       1.7  T
   5   -326.9125383 -0.425257E-05  0.202E-03    0.43       3.7  T
   6   -326.9125390 -0.692879E-06  0.912E-04    0.43       8.1  T
   7   -326.9125391 -0.541446E-07  0.483E-04    0.43      15.3  T
     SCC iter.                  ...        0 min,  0.211 sec
     gradient                   ...        0 min,  0.099 sec
 * total energy  :  -322.0276112 Eh     change       -0.5301808E-03 Eh
   gradient norm :     0.0068494 Eh/α   predicted    -0.4940790E-03 (  -6.81%)
   displ. norm   :     0.7432623 α      lambda       -0.6186397E-03
   maximum displ.:     0.3031213 α      in ANC's #4, #11, #1, ...

........................................................................
.............................. CYCLE   40 ..............................
........................................................................
   1   -326.9132545 -0.326913E+03  0.610E-02    0.43       0.0  T
   2   -326.9132633 -0.881645E-05  0.357E-02    0.44       1.0  T
   3   -326.9132026  0.606980E-04  0.158E-02    0.44       1.0  T
   4   -326.9132674 -0.647422E-04  0.384E-03    0.44       1.9  T
   5   -326.9132708 -0.339096E-05  0.176E-03    0.44       4.2  T
   6   -326.9132713 -0.525762E-06  0.784E-04    0.44       9.4  T
   7   -326.9132713 -0.394941E-07  0.387E-04    0.44      19.2  T
     SCC iter.                  ...        0 min,  0.216 sec
     gradient                   ...        0 min,  0.099 sec
 * total energy  :  -322.0281592 Eh     change       -0.5479866E-03 Eh
   gradient norm :     0.0085208 Eh/α   predicted    -0.4802057E-03 ( -12.37%)
   displ. norm   :     0.7578865 α      lambda       -0.6782121E-03
   maximum displ.:     0.3072356 α      in ANC's #4, #1, #11, ...

........................................................................
.............................. CYCLE   41 ..............................
........................................................................
   1   -326.9157029 -0.326916E+03  0.663E-02    0.44       0.0  T
   2   -326.9157151 -0.121303E-04  0.386E-02    0.44       1.0  T
   3   -326.9156716  0.434227E-04  0.149E-02    0.44       1.0  T
   4   -326.9157199 -0.482678E-04  0.347E-03    0.44       2.1  T
   5   -326.9157217 -0.180787E-05  0.194E-03    0.44       3.8  T
   6   -326.9157223 -0.622707E-06  0.895E-04    0.44       8.3  T
   7   -326.9157224 -0.809454E-07  0.433E-04    0.44      17.1  T
     SCC iter.                  ...        0 min,  0.216 sec
     gradient                   ...        0 min,  0.099 sec
 * total energy  :  -322.0287475 Eh     change       -0.5883178E-03 Eh
   gradient norm :     0.0077533 Eh/α   predicted    -0.5338868E-03 (  -9.25%)
   displ. norm   :     0.7722171 α      lambda       -0.6780788E-03
   maximum displ.:     0.3141070 α      in ANC's #4, #1, #9, ...

........................................................................
.............................. CYCLE   42 ..............................
........................................................................
   1   -326.9150693 -0.326915E+03  0.652E-02    0.44       0.0  T
   2   -326.9150822 -0.128634E-04  0.379E-02    0.44       1.0  T
   3   -326.9150506  0.316026E-04  0.119E-02    0.44       1.0  T
   4   -326.9150838 -0.331765E-04  0.385E-03    0.44       1.9  T
   5   -326.9150869 -0.313798E-05  0.172E-03    0.44       4.3  T
   6   -326.9150873 -0.385641E-06  0.931E-04    0.44       8.0  T
   7   -326.9150874 -0.105578E-06  0.395E-04    0.44      18.8  T
     SCC iter.                  ...        0 min,  0.218 sec
     gradient                   ...        0 min,  0.099 sec
 * total energy  :  -322.0293181 Eh     change       -0.5706626E-03 Eh
   gradient norm :     0.0092858 Eh/α   predicted    -0.5412198E-03 (  -5.16%)
   displ. norm   :     0.7804601 α      lambda       -0.6557191E-03
   maximum displ.:     0.3203856 α      in ANC's #4, #1, #9, ...
 * RMSD in coord.:     1.0015001 α      energy gain  -0.1421401E-01 Eh

generating ANC from model Hessian ...
Using Lindh-Hessian (1995)
 Shifting diagonal of input Hessian by   1.000901631267263E-002
 Lowest  eigenvalues of input Hessian
    0.010000    0.010007    0.000000    0.000000    0.000000    0.000000
    0.000000    0.000000    0.010017    0.010021    0.010042    0.010059
    0.010089    0.010104    0.010142    0.010195    0.010216    0.010266
 Highest eigenvalues
    2.266201    2.283630    2.601915    2.610362    2.651994    2.657000
 

........................................................................
.............................. CYCLE   43 ..............................
........................................................................
   1   -326.9122601 -0.326912E+03  0.633E-02    0.44       0.0  T
   2   -326.9122709 -0.107736E-04  0.371E-02    0.44       1.0  T
   3   -326.9122232  0.476540E-04  0.151E-02    0.44       1.0  T
   4   -326.9122742 -0.509977E-04  0.375E-03    0.44       2.0  T
   5   -326.9122771 -0.283819E-05  0.174E-03    0.44       4.3  T
   6   -326.9122775 -0.415263E-06  0.864E-04    0.44       8.6  T
   7   -326.9122776 -0.670257E-07  0.414E-04    0.44      17.9  T
     SCC iter.                  ...        0 min,  0.227 sec
     gradient                   ...        0 min,  0.099 sec
 * total energy  :  -322.0298670 Eh     change       -0.5488407E-03 Eh
   gradient norm :     0.0077831 Eh/α   predicted     0.0000000E+00 (-100.00%)
   displ. norm   :     0.0966969 α      lambda       -0.2057711E-03
   maximum displ.:     0.0430921 α      in ANC's #3, #13, #8, ...

........................................................................
.............................. CYCLE   44 ..............................
........................................................................
   1   -326.9157066 -0.326916E+03  0.208E-02    0.44       0.0  T
   2   -326.9157082 -0.154793E-05  0.118E-02    0.44       1.0  T
   3   -326.9157007  0.753452E-05  0.597E-03    0.44       1.2  T
   4   -326.9157088 -0.818226E-05  0.146E-03    0.44       5.1  T
   5   -326.9157093 -0.449225E-06  0.668E-04    0.44      11.1  T
   6   -326.9157094 -0.707092E-07  0.303E-04    0.44      24.4  T
     SCC iter.                  ...        0 min,  0.177 sec
     gradient                   ...        0 min,  0.099 sec
 * total energy  :  -322.0300302 Eh     change       -0.1631947E-03 Eh
   gradient norm :     0.0037698 Eh/α   predicted    -0.1038479E-03 ( -36.37%)
   displ. norm   :     0.2867658 α      lambda       -0.3883704E-03
   maximum displ.:     0.1308847 α      in ANC's #3, #13, #8, ...

........................................................................
.............................. CYCLE   45 ..............................
........................................................................
   1   -326.9215656 -0.326922E+03  0.447E-02    0.43       0.0  T
   2   -326.9215734 -0.785906E-05  0.254E-02    0.43       1.0  T
   3   -326.9215560  0.174496E-04  0.112E-02    0.43       1.0  T
   4   -326.9215766 -0.206043E-04  0.271E-03    0.43       2.7  T
   5   -326.9215774 -0.833891E-06  0.136E-03    0.43       5.4  T
   6   -326.9215776 -0.205120E-06  0.573E-04    0.43      12.9  T
   7   -326.9215777 -0.246284E-07  0.289E-04    0.43      25.7  T
     SCC iter.                  ...        0 min,  0.203 sec
     gradient                   ...        0 min,  0.099 sec
 * total energy  :  -322.0302638 Eh     change       -0.2336254E-03 Eh
   gradient norm :     0.0066256 Eh/α   predicted    -0.2101796E-03 ( -10.04%)
   displ. norm   :     0.3182013 α      lambda       -0.3125255E-03
   maximum displ.:     0.1434233 α      in ANC's #3, #8, #13, ...

........................................................................
.............................. CYCLE   46 ..............................
........................................................................
   1   -326.9223685 -0.326922E+03  0.595E-02    0.43       0.0  T
   2   -326.9223760 -0.750130E-05  0.333E-02    0.43       1.0  T
   3   -326.9223624  0.136131E-04  0.926E-03    0.43       1.0  T
   4   -326.9223788 -0.163475E-04  0.245E-03    0.43       3.0  T
   5   -326.9223794 -0.647081E-06  0.150E-03    0.43       4.9  T
   6   -326.9223798 -0.425282E-06  0.548E-04    0.43      13.5  T
   7   -326.9223799 -0.396643E-07  0.269E-04    0.43      27.6  T
     SCC iter.                  ...        0 min,  0.201 sec
     gradient                   ...        0 min,  0.099 sec
 * total energy  :  -322.0303385 Eh     change       -0.7470697E-04 Eh
   gradient norm :     0.0101793 Eh/α   predicted    -0.1720968E-03 ( 130.36%)
   displ. norm   :     0.2763389 α      lambda       -0.4299597E-03
   maximum displ.:     0.1342204 α      in ANC's #3, #13, #2, ...

........................................................................
.............................. CYCLE   47 ..............................
........................................................................
   1   -326.9194023 -0.326919E+03  0.641E-02    0.42       0.0  T
   2   -326.9194111 -0.882868E-05  0.356E-02    0.42       1.0  T
   3   -326.9193928  0.183293E-04  0.107E-02    0.43       1.0  T
   4   -326.9194157 -0.228626E-04  0.199E-03    0.42       3.7  T
   5   -326.9194159 -0.232735E-06  0.129E-03    0.42       5.8  T
   6   -326.9194162 -0.292337E-06  0.480E-04    0.42      15.5  T
   7   -326.9194162 -0.380626E-07  0.214E-04    0.42      34.6  T
     SCC iter.                  ...        0 min,  0.202 sec
     gradient                   ...        0 min,  0.099 sec
 * total energy  :  -322.0305597 Eh     change       -0.2211880E-03 Eh
   gradient norm :     0.0085766 Eh/α   predicted    -0.2313964E-03 (   4.62%)
   displ. norm   :     0.2350591 α      lambda       -0.3851964E-03
   maximum displ.:     0.1119710 α      in ANC's #3, #13, #8, ...

........................................................................
.............................. CYCLE   48 ..............................
........................................................................
   1   -326.9165942 -0.326917E+03  0.713E-02    0.42       0.0  T
   2   -326.9166054 -0.112129E-04  0.395E-02    0.43       1.0  T
   3   -326.9165904  0.150353E-04  0.102E-02    0.42       1.0  T
   4   -326.9166107 -0.203721E-04  0.191E-03    0.43       3.9  T
   5   -326.9166109 -0.182464E-06  0.125E-03    0.42       5.9  T
   6   -326.9166112 -0.240283E-06  0.464E-04    0.42      16.0  T
   7   -326.9166112 -0.360203E-07  0.182E-04    0.42      40.6  T
     SCC iter.                  ...        0 min,  0.202 sec
     gradient                   ...        0 min,  0.099 sec
 * total energy  :  -322.0306458 Eh     change       -0.8608048E-04 Eh
   gradient norm :     0.0099170 Eh/α   predicted    -0.2032398E-03 ( 136.10%)
   displ. norm   :     0.2363107 α      lambda       -0.5063735E-03
   maximum displ.:     0.1164261 α      in ANC's #3, #13, #8, ...

........................................................................
.............................. CYCLE   49 ..............................
........................................................................
   1   -326.9179384 -0.326918E+03  0.658E-02    0.43       0.0  T
   2   -326.9179489 -0.105286E-04  0.365E-02    0.43       1.0  T
   3   -326.9179302  0.187068E-04  0.919E-03    0.42       1.0  T
   4   -326.9179533 -0.230582E-04  0.213E-03    0.43       3.5  T
   5   -326.9179538 -0.572191E-06  0.129E-03    0.43       5.8  T
   6   -326.9179541 -0.287216E-06  0.498E-04    0.43      14.9  T
   7   -326.9179541 -0.320950E-07  0.196E-04    0.43      37.9  T
     SCC iter.                  ...        0 min,  0.201 sec
     gradient                   ...        0 min,  0.099 sec
 * total energy  :  -322.0308969 Eh     change       -0.2510729E-03 Eh
   gradient norm :     0.0064582 Eh/α   predicted    -0.2673343E-03 (   6.48%)
   displ. norm   :     0.3284170 α      lambda       -0.3386413E-03
   maximum displ.:     0.1648218 α      in ANC's #3, #13, #8, ...

........................................................................
.............................. CYCLE   50 ..............................
........................................................................
   1   -326.9174435 -0.326917E+03  0.569E-02    0.42       0.0  T
   2   -326.9174494 -0.591471E-05  0.317E-02    0.42       1.0  T
   3   -326.9174408  0.862508E-05  0.774E-03    0.43       1.0  T
   4   -326.9174524 -0.115772E-04  0.154E-03    0.42       4.8  T
   5   -326.9174524  0.124778E-07  0.107E-03    0.42       6.9  T
   6   -326.9174526 -0.216114E-06  0.342E-04    0.42      21.7  T
   7   -326.9174526 -0.183235E-07  0.152E-04    0.42      48.8  T
     SCC iter.                  ...        0 min,  0.203 sec
     gradient                   ...        0 min,  0.099 sec
 * total energy  :  -322.0311006 Eh     change       -0.2037436E-03 Eh
   gradient norm :     0.0057847 Eh/α   predicted    -0.1875843E-03 (  -7.93%)
   displ. norm   :     0.4737735 α      lambda       -0.3936666E-03
   maximum displ.:     0.2425719 α      in ANC's #3, #13, #8, ...

........................................................................
.............................. CYCLE   51 ..............................
........................................................................
   1   -326.9178584 -0.326918E+03  0.485E-02    0.43       0.0  T
   2   -326.9178617 -0.331997E-05  0.277E-02    0.43       1.0  T
   3   -326.9178446  0.171413E-04  0.841E-03    0.43       1.0  T
   4   -326.9178637 -0.190475E-04  0.185E-03    0.42       4.0  T
   5   -326.9178640 -0.355099E-06  0.112E-03    0.43       6.6  T
   6   -326.9178642 -0.188960E-06  0.431E-04    0.43      17.2  T
   7   -326.9178642 -0.213594E-07  0.189E-04    0.43      39.2  T
     SCC iter.                  ...        0 min,  0.205 sec
     gradient                   ...        0 min,  0.099 sec
 * total energy  :  -322.0313712 Eh     change       -0.2706219E-03 Eh
   gradient norm :     0.0055067 Eh/α   predicted    -0.2410174E-03 ( -10.94%)
   displ. norm   :     0.5496078 α      lambda       -0.3838702E-03
   maximum displ.:     0.2878879 α      in ANC's #3, #13, #8, ...

........................................................................
.............................. CYCLE   52 ..............................
........................................................................
   1   -326.9177765 -0.326918E+03  0.463E-02    0.43       0.0  T
   2   -326.9177798 -0.332315E-05  0.266E-02    0.43       1.0  T
   3   -326.9177708  0.900854E-05  0.701E-03    0.43       1.1  T
   4   -326.9177814 -0.106093E-04  0.169E-03    0.43       4.4  T
   5   -326.9177816 -0.195083E-06  0.990E-04    0.43       7.5  T
   6   -326.9177817 -0.100844E-06  0.399E-04    0.43      18.6  T
     SCC iter.                  ...        0 min,  0.179 sec
     gradient                   ...        0 min,  0.099 sec
 * total energy  :  -322.0317173 Eh     change       -0.3460288E-03 Eh
   gradient norm :     0.0055771 Eh/α   predicted    -0.2499140E-03 ( -27.78%)
   displ. norm   :     0.6632807 α      lambda       -0.4825105E-03
   maximum displ.:     0.3502931 α      in ANC's #3, #13, #8, ...

........................................................................
.............................. CYCLE   53 ..............................
........................................................................
   1   -326.9193498 -0.326919E+03  0.596E-02    0.43       0.0  T
   2   -326.9193556 -0.588784E-05  0.341E-02    0.43       1.0  T
   3   -326.9193381  0.175634E-04  0.101E-02    0.43       1.0  T
   4   -326.9193587 -0.205925E-04  0.223E-03    0.43       3.3  T
   5   -326.9193590 -0.295939E-06  0.139E-03    0.43       5.4  T
   6   -326.9193592 -0.256746E-06  0.567E-04    0.43      13.1  T
   7   -326.9193593 -0.467129E-07  0.278E-04    0.43      26.6  T
     SCC iter.                  ...        0 min,  0.210 sec
     gradient                   ...        0 min,  0.099 sec
 * total energy  :  -322.0321388 Eh     change       -0.4215955E-03 Eh
   gradient norm :     0.0048603 Eh/α   predicted    -0.3473977E-03 ( -17.60%)
   displ. norm   :     0.7515932 α      lambda       -0.4587773E-03
   maximum displ.:     0.3975704 α      in ANC's #3, #13, #8, ...

........................................................................
.............................. CYCLE   54 ..............................
........................................................................
   1   -326.9187322 -0.326919E+03  0.617E-02    0.43       0.0  T
   2   -326.9187378 -0.556777E-05  0.356E-02    0.43       1.0  T
   3   -326.9187194  0.183441E-04  0.102E-02    0.43       1.0  T
   4   -326.9187408 -0.213264E-04  0.220E-03    0.43       3.4  T
   5   -326.9187411 -0.289374E-06  0.131E-03    0.43       5.6  T
   6   -326.9187413 -0.192826E-06  0.530E-04    0.43      14.0  T
   7   -326.9187413 -0.290432E-07  0.226E-04    0.43      32.8  T
     SCC iter.                  ...        0 min,  0.210 sec
     gradient                   ...        0 min,  0.100 sec
 * total energy  :  -322.0325606 Eh     change       -0.4217033E-03 Eh
   gradient norm :     0.0046191 Eh/α   predicted    -0.3589726E-03 ( -14.88%)
   displ. norm   :     0.7858163 α      lambda       -0.4681962E-03
   maximum displ.:     0.4193261 α      in ANC's #3, #13, #8, ...

........................................................................
.............................. CYCLE   55 ..............................
........................................................................
   1   -326.9185161 -0.326919E+03  0.622E-02    0.43       0.0  T
   2   -326.9185215 -0.541926E-05  0.360E-02    0.43       1.0  T
   3   -326.9184949  0.266335E-04  0.113E-02    0.43       1.0  T
   4   -326.9185245 -0.296425E-04  0.245E-03    0.43       3.0  T
   5   -326.9185251 -0.592912E-06  0.149E-03    0.43       5.0  T
   6   -326.9185254 -0.317246E-06  0.639E-04    0.43      11.6  T
   7   -326.9185255 -0.530744E-07  0.294E-04    0.43      25.2  T
     SCC iter.                  ...        0 min,  0.216 sec
     gradient                   ...        0 min,  0.099 sec
 * total energy  :  -322.0329974 Eh     change       -0.4368499E-03 Eh
   gradient norm :     0.0041931 Eh/α   predicted    -0.3786626E-03 ( -13.32%)
   displ. norm   :     0.8063872 α      lambda       -0.4824157E-03
   maximum displ.:     0.4368236 α      in ANC's #3, #13, #8, ...

........................................................................
.............................. CYCLE   56 ..............................
........................................................................
   1   -326.9183434 -0.326918E+03  0.642E-02    0.43       0.0  T
   2   -326.9183489 -0.558492E-05  0.371E-02    0.43       1.0  T
   3   -326.9183006  0.483565E-04  0.139E-02    0.44       1.0  T
   4   -326.9183530 -0.523705E-04  0.289E-03    0.43       2.6  T
   5   -326.9183542 -0.123937E-05  0.163E-03    0.43       4.5  T
   6   -326.9183546 -0.389591E-06  0.677E-04    0.43      10.9  T
   7   -326.9183546 -0.501175E-07  0.331E-04    0.43      22.4  T
     SCC iter.                  ...        0 min,  0.214 sec
     gradient                   ...        0 min,  0.099 sec
 * total energy  :  -322.0334481 Eh     change       -0.4507205E-03 Eh
   gradient norm :     0.0042864 Eh/α   predicted    -0.3980569E-03 ( -11.68%)
   displ. norm   :     0.8129768 α      lambda       -0.4879157E-03
   maximum displ.:     0.4480689 α      in ANC's #3, #8, #13, ...

........................................................................
.............................. CYCLE   57 ..............................
........................................................................
   1   -326.9195387 -0.326920E+03  0.638E-02    0.43       0.0  T
   2   -326.9195437 -0.504318E-05  0.370E-02    0.43       1.0  T
   3   -326.9194712  0.725555E-04  0.165E-02    0.44       1.0  T
   4   -326.9195493 -0.781099E-04  0.311E-03    0.43       2.4  T
   5   -326.9195509 -0.157812E-05  0.164E-03    0.43       4.5  T
   6   -326.9195512 -0.356629E-06  0.681E-04    0.43      10.9  T
   7   -326.9195513 -0.454127E-07  0.339E-04    0.43      21.9  T
     SCC iter.                  ...        0 min,  0.214 sec
     gradient                   ...        0 min,  0.099 sec
 * total energy  :  -322.0339025 Eh     change       -0.4543449E-03 Eh
   gradient norm :     0.0043447 Eh/α   predicted    -0.4052014E-03 ( -10.82%)
   displ. norm   :     0.8241169 α      lambda       -0.4856354E-03
   maximum displ.:     0.4610310 α      in ANC's #3, #8, #2, ...

........................................................................
.............................. CYCLE   58 ..............................
........................................................................
   1   -326.9193956 -0.326919E+03  0.670E-02    0.43       0.0  T
   2   -326.9194011 -0.549505E-05  0.387E-02    0.43       1.0  T
   3   -326.9193160  0.851647E-04  0.176E-02    0.44       1.0  T
   4   -326.9194081 -0.920882E-04  0.315E-03    0.43       2.4  T
   5   -326.9194094 -0.136774E-05  0.171E-03    0.43       4.3  T
   6   -326.9194098 -0.347645E-06  0.695E-04    0.43      10.7  T
   7   -326.9194098 -0.524769E-07  0.327E-04    0.43      22.7  T
     SCC iter.                  ...        0 min,  0.217 sec
     gradient                   ...        0 min,  0.105 sec
 * total energy  :  -322.0343547 Eh     change       -0.4522268E-03 Eh
   gradient norm :     0.0047424 Eh/α   predicted    -0.4077359E-03 (  -9.84%)
   displ. norm   :     0.8123032 α      lambda       -0.4811648E-03
   maximum displ.:     0.4608535 α      in ANC's #3, #8, #2, ...

........................................................................
.............................. CYCLE   59 ..............................
........................................................................
   1   -326.9228512 -0.326923E+03  0.599E-02    0.43       0.0  T
   2   -326.9228546 -0.338884E-05  0.349E-02    0.43       1.0  T
   3   -326.9227730  0.815802E-04  0.173E-02    0.44       1.0  T
[...]
   110   9 F    1.097 --   109 C    0.966
   111   6 C    3.978 --   109 C    1.495   112 C    1.286   181 H    0.963
                           107 C    0.112
   112   6 C    3.984 --   111 C    1.286   113 C    1.279   106 C    1.240
   113   6 C    3.972 --   114 C    1.495   112 C    1.279   182 H    0.959
   114   6 C    3.985 --   113 C    1.495   104 C    1.202   115 C    1.089
   115   6 C    3.972 --   116 C    1.493   101 C    1.117   114 C    1.089
   116   6 C    3.940 --   115 C    1.493   119 C    1.098   117 C    1.098
   117   6 C    3.946 --   118 N    2.769   116 C    1.098
   118   7 N    2.975 --   117 C    2.769
   119   6 C    3.946 --   120 N    2.762   116 C    1.098
   120   7 N    2.976 --   119 C    2.762
   121   1 H    0.993 --     1 C    0.949
   122   1 H    0.995 --     6 C    0.963
   123   1 H    0.997 --     8 C    0.967
   124   1 H    0.995 --     9 C    0.966
   125   1 H    0.994 --    12 C    0.963
   126   1 H    0.995 --    14 C    0.959
   127   1 H    0.995 --    31 C    0.968
   128   1 H    0.996 --    31 C    0.968
   129   1 H    0.996 --    32 C    0.983
   130   1 H    0.997 --    32 C    0.986
   131   1 H    0.997 --    32 C    0.984
   132   1 H    0.995 --    35 C    0.964
   133   1 H    0.998 --    35 C    0.959
   134   1 H    0.997 --    36 C    0.983
   135   1 H    0.996 --    36 C    0.984
   136   1 H    0.998 --    36 C    0.980
   137   1 H    0.998 --    40 C    0.968
   138   1 H    0.997 --    41 C    0.970
   139   1 H    0.998 --    42 C    0.969
   140   1 H    0.998 --    44 C    0.967
   141   1 H    0.998 --    44 C    0.977
   142   1 H    0.999 --    45 C    0.986
   143   1 H    0.999 --    45 C    0.988
   144   1 H    0.998 --    45 C    0.987
   145   1 H    0.999 --    46 C    0.966
   146   1 H    0.998 --    62 C    0.966
   147   1 H    0.998 --    63 C    0.970
   148   1 H    0.998 --    64 C    0.969
   149   1 H    0.998 --    66 C    0.976
   150   1 H    0.998 --    66 C    0.972
   151   1 H    0.999 --    67 C    0.987
   152   1 H    0.998 --    67 C    0.986
   153   1 H    0.999 --    67 C    0.987
   154   1 H    0.999 --    68 C    0.966
   155   1 H    0.995 --    80 C    0.968
   156   1 H    0.996 --    80 C    0.963
   157   1 H    0.998 --    81 C    0.987
   158   1 H    0.996 --    81 C    0.982
   159   1 H    0.997 --    81 C    0.983
   160   1 H    0.995 --    82 C    0.957
   161   1 H    0.994 --    82 C    0.963
   162   1 H    0.997 --    83 C    0.987
   163   1 H    0.997 --    83 C    0.983
   164   1 H    0.997 --    83 C    0.983
   165   1 H    0.996 --    87 C    0.968
   166   1 H    0.996 --    87 C    0.967
   167   1 H    0.997 --    88 C    0.981
   168   1 H    0.996 --    88 C    0.980
   169   1 H    0.997 --    88 C    0.984
   170   1 H    0.994 --    91 C    0.966
   171   1 H    0.997 --    91 C    0.960
   172   1 H    0.995 --    92 C    0.984
   173   1 H    0.997 --    92 C    0.986
   174   1 H    0.996 --    92 C    0.982
   175   1 H    0.996 --    97 C    0.961
   176   1 H    0.997 --    98 C    0.961
   177   1 H    0.994 --   100 C    0.946
   178   1 H    0.996 --   105 C    0.964
   179   1 H    0.997 --   107 C    0.967
   180   1 H    0.995 --   108 C    0.966
   181   1 H    0.995 --   111 C    0.963
   182   1 H    0.995 --   113 C    0.959
 ---------------------------------------------------------------------------

Topologies differ in bond orders
Writing corrected topology to xtbtopo.mol

molecular dipole:
                 x           y           z       tot (Debye)
 q only:       -2.122      -0.304       0.947
   full:       -2.293      -1.115      -0.029       6.482
molecular quadrupole (traceless):
                xx          xy          yy          xz          yz          zz
 q only:      -88.637    -130.309      21.560      62.529      39.732      67.078
  q+dip:      -87.777    -144.054      31.890      62.920      44.522      55.887
   full:      -84.150    -152.571      31.692      71.932      39.977      52.458

           -------------------------------------------------
          |                Geometry Summary                 |
           -------------------------------------------------

      molecular mass/u    :     1669.8985174
   center of mass at/Å    :        0.7213095       0.1688304       0.1567080
  moments of inertia/u·Å² :        0.3497344E+05   0.1424084E+06   0.1661422E+06
rotational constants/cm⁻¹ :        0.4820124E-03   0.1183753E-03   0.1014651E-03

 * 181 selected distances

     #   Z          #   Z                                           value/Å
     1   6 C        2   6 C                                       1.3694196
     3   6 C        4   8 O                                       1.2172284
     5   6 C        6   6 C                                       1.3646122
     6   6 C        7   6 C                                       1.4131907
     7   6 C        8   6 C                                       1.4095683
     8   6 C        9   6 C                                       1.3673156
     9   6 C       10   6 C                                       1.4011912
    10   6 C       12   6 C                                       1.3675043
     7   6 C       13   6 C                                       1.4253153
    12   6 C       13   6 C                                       1.4080010
    13   6 C       14   6 C                                       1.4152340
     5   6 C       15   6 C                                       1.4245759
    14   6 C       15   6 C                                       1.3681854
    16   6 C       17   6 C                                       1.3705600
    18   6 C       19   7 N                                       1.1481829
    20   6 C       21   7 N                                       1.1481663
     1   6 C       22   6 C                                       1.4241571
    22   6 C       23   6 C                                       1.4210963
    23   6 C       24   6 C                                       1.4373335
    24   6 C       25   7 N                                       1.3135263
    25   7 N       26   8 O                                       1.3303979
    23   6 C       27   7 N                                       1.3149914
    26   8 O       27   7 N                                       1.3394535
    24   6 C       28   6 C                                       1.4238814
    28   6 C       29   6 C                                       1.3919136
    29   6 C       30   8 O                                       1.3561735
    30   8 O       31   6 C                                       1.4298166
    31   6 C       32   6 C                                       1.5205040
    22   6 C       33   6 C                                       1.4031676
    29   6 C       33   6 C                                       1.4348993
    33   6 C       34   8 O                                       1.3415366
    34   8 O       35   6 C                                       1.4215449
    35   6 C       36   6 C                                       1.5221160
    28   6 C       37   6 C                                       1.4284837
    37   6 C       38   6 C                                       1.3895025
    39   6 C       40   6 C                                       1.3897240
    40   6 C       41   6 C                                       1.3818326
    41   6 C       42   6 C                                       1.3843428
    42   6 C       43   6 C                                       1.3893290
    44   6 C       45   6 C                                       1.5296161
    39   6 C       46   6 C                                       1.3920078
    43   6 C       46   6 C                                       1.3858064
    38   6 C       47   6 C                                       1.4027550
    47   6 C       48  16 S                                       1.7479676
    48  16 S       49   6 C                                       1.7317580
    49   6 C       50   6 C                                       1.4061542
    50   6 C       51   6 C                                       1.4126843
    51   6 C       52   6 C                                       1.4392073
    52   6 C       53   7 N                                       1.3233719
    53   7 N       54  16 S                                       1.6188933
    51   6 C       55   7 N                                       1.3232539
    54  16 S       55   7 N                                       1.6191525
    52   6 C       56   6 C                                       1.4136874
    56   6 C       57   6 C                                       1.4051317
    57   6 C       58  16 S                                       1.7321379
    58  16 S       59   6 C                                       1.7487421 (max)
    59   6 C       60   6 C                                       1.4108750
    61   6 C       62   6 C                                       1.3919415
    62   6 C       63   6 C                                       1.3821851
    63   6 C       64   6 C                                       1.3853149
    64   6 C       65   6 C                                       1.3893582
    66   6 C       67   6 C                                       1.5300211
    61   6 C       68   6 C                                       1.3914123
    65   6 C       68   6 C                                       1.3858407
    60   6 C       69   6 C                                       1.3813898
    69   6 C       70  16 S                                       1.7478384
    59   6 C       71   6 C                                       1.3955600
    70  16 S       71   6 C                                       1.7270699
    57   6 C       72   6 C                                       1.3972949
    71   6 C       72   6 C                                       1.4017873
    72   6 C       73   7 N                                       1.3705246
    56   6 C       74   6 C                                       1.4212707
    73   7 N       74   6 C                                       1.3861950
    50   6 C       75   6 C                                       1.4205980
    74   6 C       75   6 C                                       1.4138092
    75   6 C       76   7 N                                       1.3831694
    49   6 C       77   6 C                                       1.4001381
    76   7 N       77   6 C                                       1.3734512
    47   6 C       78   6 C                                       1.4004712
    77   6 C       78   6 C                                       1.3982342
    37   6 C       79  16 S                                       1.7484138
    78   6 C       79  16 S                                       1.7288351
    76   7 N       80   6 C                                       1.4470364
    80   6 C       81   6 C                                       1.5279525
    73   7 N       82   6 C                                       1.4493537
    82   6 C       83   6 C                                       1.5255390
    84   6 C       85   6 C                                       1.3997993
    85   6 C       86   8 O                                       1.3466237
    86   8 O       87   6 C                                       1.4201964
    87   6 C       88   6 C                                       1.5228217
    85   6 C       89   6 C                                       1.4292084
    89   6 C       90   8 O                                       1.3531169
    90   8 O       91   6 C                                       1.4246789
    91   6 C       92   6 C                                       1.5230449
    89   6 C       93   6 C                                       1.3930071
    93   6 C       94   6 C                                       1.4235366
    84   6 C       95   6 C                                       1.4179659
    94   6 C       95   6 C                                       1.4188033
    95   6 C       96   7 N                                       1.3415084
    96   7 N       97   6 C                                       1.3067268
    97   6 C       98   6 C                                       1.4031636
    94   6 C       99   7 N                                       1.3417618
    98   6 C       99   7 N                                       1.3076722
   100   6 C      101   6 C                                       1.3505166
   102   6 C      103   8 O                                       1.2134724
   104   6 C      105   6 C                                       1.3631768
   105   6 C      106   6 C                                       1.4135245
   106   6 C      107   6 C                                       1.4098629
   107   6 C      108   6 C                                       1.3670166
   108   6 C      109   6 C                                       1.4016968
   109   6 C      111   6 C                                       1.3665094
   106   6 C      112   6 C                                       1.4254090
   111   6 C      112   6 C                                       1.4093254
   112   6 C      113   6 C                                       1.4132377
   104   6 C      114   6 C                                       1.4250639
   113   6 C      114   6 C                                       1.3703972
   115   6 C      116   6 C                                       1.3688874
   117   6 C      118   7 N                                       1.1477918
   119   6 C      120   7 N                                       1.1485106
     1   6 C      121   1 H                                       1.0835286
     6   6 C      122   1 H                                       1.0798731
     8   6 C      123   1 H                                       1.0797275
     9   6 C      124   1 H                                       1.0784425 (min)
    12   6 C      125   1 H                                       1.0787739
    14   6 C      126   1 H                                       1.0785095
    31   6 C      127   1 H                                       1.0910693
    31   6 C      128   1 H                                       1.0974284
    32   6 C      129   1 H                                       1.0857281
    32   6 C      130   1 H                                       1.0869975
    32   6 C      131   1 H                                       1.0864828
    35   6 C      132   1 H                                       1.0982602
    35   6 C      133   1 H                                       1.0931671
    36   6 C      134   1 H                                       1.0862671
    36   6 C      135   1 H                                       1.0868273
    36   6 C      136   1 H                                       1.0865615
    40   6 C      137   1 H                                       1.0788318
    41   6 C      138   1 H                                       1.0797067
    42   6 C      139   1 H                                       1.0805366
    44   6 C      140   1 H                                       1.0935493
    44   6 C      141   1 H                                       1.0914771
    45   6 C      142   1 H                                       1.0884674
    45   6 C      143   1 H                                       1.0882147
    45   6 C      144   1 H                                       1.0885071
    46   6 C      145   1 H                                       1.0818046
    62   6 C      146   1 H                                       1.0790568
    63   6 C      147   1 H                                       1.0802731
    64   6 C      148   1 H                                       1.0807148
    66   6 C      149   1 H                                       1.0913865
    66   6 C      150   1 H                                       1.0924655
    67   6 C      151   1 H                                       1.0887308
    67   6 C      152   1 H                                       1.0876823
    67   6 C      153   1 H                                       1.0876862
    68   6 C      154   1 H                                       1.0810854
    80   6 C      155   1 H                                       1.0950516
    80   6 C      156   1 H                                       1.0879597
    81   6 C      157   1 H                                       1.0879256
    81   6 C      158   1 H                                       1.0855829
    81   6 C      159   1 H                                       1.0866626
    82   6 C      160   1 H                                       1.0914603
    82   6 C      161   1 H                                       1.0926897
    83   6 C      162   1 H                                       1.0875077
    83   6 C      163   1 H                                       1.0866299
    83   6 C      164   1 H                                       1.0864477
    87   6 C      165   1 H                                       1.0950636
    87   6 C      166   1 H                                       1.0915042
    88   6 C      167   1 H                                       1.0866016
    88   6 C      168   1 H                                       1.0852190
    88   6 C      169   1 H                                       1.0865912
    91   6 C      170   1 H                                       1.0955192
    91   6 C      171   1 H                                       1.0943011
    92   6 C      172   1 H                                       1.0866708
    92   6 C      173   1 H                                       1.0874712
    92   6 C      174   1 H                                       1.0859221
    97   6 C      175   1 H                                       1.0807075
    98   6 C      176   1 H                                       1.0814907
   100   6 C      177   1 H                                       1.0813663
   105   6 C      178   1 H                                       1.0799041
   107   6 C      179   1 H                                       1.0798229
   108   6 C      180   1 H                                       1.0785038
   111   6 C      181   1 H                                       1.0788018
   113   6 C      182   1 H                                       1.0787553

 * 7 distinct bonds (by element types)

   Z      Z             #   av. dist./Å        max./Å        min./Å
   1 H    6 C          62     1.0861283     1.0982602     1.0784425
   6 C    6 C          79     1.4126706     1.5300211     1.3505166
   6 C    7 N          18     1.3097330     1.4493537     1.1477918
   6 C    8 O          10     1.3524388     1.4298166     1.2134724
   7 N    8 O           2     1.3349257     1.3394535     1.3303979
   6 C   16 S           8     1.7390953     1.7487421     1.7270699
   7 N   16 S           2     1.6190229     1.6191525     1.6188933


optimized geometry written to: xtbopt.mol


           -------------------------------------------------
          | TOTAL ENERGY             -322.064847291573 Eh   |
          | GRADIENT NORM               0.000373675860 Eh/α |
          | HOMO-LUMO GAP               0.655615428281 eV   |
           -------------------------------------------------

------------------------------------------------------------------------
 * finished run on 2022/02/05 at 05:41:37.675     
------------------------------------------------------------------------
 total:
 * wall-time:     0 d,  0 h,  2 min, 18.256 sec
 *  cpu-time:     0 d,  0 h, 18 min, 25.878 sec
 * ratio c/w:     7.999 speedup
 SCF:
 * wall-time:     0 d,  0 h,  0 min,  0.594 sec
 *  cpu-time:     0 d,  0 h,  0 min,  4.732 sec
 * ratio c/w:     7.969 speedup
 ANC optimizer:
 * wall-time:     0 d,  0 h,  2 min, 17.566 sec
 *  cpu-time:     0 d,  0 h, 18 min, 20.480 sec
 * ratio c/w:     8.000 speedup

