      -----------------------------------------------------------      
     |                   =====================                   |     
     |                           x T B                           |     
     |                   =====================                   |     
     |                         S. Grimme                         |     
     |          Mulliken Center for Theoretical Chemistry        |     
     |                    University of Bonn                     |     
      -----------------------------------------------------------      

   * xtb version 6.4.1 (unknown) compiled by 'oda6@login1.crc.pitt.edu' on 2021-06-25

   xtb is free software: you can redistribute it and/or modify it under
   the terms of the GNU Lesser General Public License as published by
   the Free Software Foundation, either version 3 of the License, or
   (at your option) any later version.
   
   xtb is distributed in the hope that it will be useful,
   but WITHOUT ANY WARRANTY; without even the implied warranty of
   MERCHANTABILITY or FITNESS FOR A PARTICULAR PURPOSE.  See the
   GNU Lesser General Public License for more details.
   
   Cite this work as:
   * C. Bannwarth, E. Caldeweyher, S. Ehlert, A. Hansen, P. Pracht,
     J. Seibert, S. Spicher, S. Grimme, WIREs Comput. Mol. Sci., 2020, 11,
     e01493. DOI: 10.1002/wcms.1493
   
   for GFN2-xTB:
   * C. Bannwarth, S. Ehlert and S. Grimme., J. Chem. Theory Comput., 2019,
     15, 1652-1671. DOI: 10.1021/acs.jctc.8b01176
   for GFN1-xTB:
   * S. Grimme, C. Bannwarth, P. Shushkov, J. Chem. Theory Comput., 2017,
     13, 1989-2009. DOI: 10.1021/acs.jctc.7b00118
   for GFN0-xTB:
   * P. Pracht, E. Caldeweyher, S. Ehlert, S. Grimme, ChemRxiv, 2019, preprint.
     DOI: 10.26434/chemrxiv.8326202.v1
   for GFN-FF:
   * S. Spicher and S. Grimme, Angew. Chem. Int. Ed., 2020, 59, 15665-15673.
     DOI: 10.1002/anie.202004239
   
   for DFT-D4:
   * E. Caldeweyher, C. Bannwarth and S. Grimme, J. Chem. Phys., 2017,
     147, 034112. DOI: 10.1063/1.4993215
   * E. Caldeweyher, S. Ehlert, A. Hansen, H. Neugebauer, S. Spicher,
     C. Bannwarth and S. Grimme, J. Chem. Phys., 2019, 150, 154122.
     DOI: 10.1063/1.5090222
   * E. Caldeweyher, J.-M. Mewes, S. Ehlert and S. Grimme, Phys. Chem. Chem. Phys.
     2020, 22, 8499-8512. DOI: 10.1039/D0CP00502A
   
   for sTDA-xTB:
   * S. Grimme and C. Bannwarth, J. Chem. Phys., 2016, 145, 054103.
     DOI: 10.1063/1.4959605
   
   in the mass-spec context:
   * V. Asgeirsson, C. Bauer and S. Grimme, Chem. Sci., 2017, 8, 4879.
     DOI: 10.1039/c7sc00601b
   * J. Koopman and S. Grimme, ACS Omega 2019, 4, 12, 15120-15133.
     DOI: 10.1021/acsomega.9b02011
   
   for metadynamics refer to:
   * S. Grimme, J. Chem. Theory Comput., 2019, 155, 2847-2862
     DOI: 10.1021/acs.jctc.9b00143
   
   for SPH calculations refer to:
   * S. Spicher and S. Grimme, J. Chem. Theory Comput., 2021, 17, 1701-1714
     DOI: 10.1021/acs.jctc.0c01306
   
   with help from (in alphabetical order)
   P. Atkinson, C. Bannwarth, F. Bohle, G. Brandenburg, E. Caldeweyher
   M. Checinski, S. Dohm, S. Ehlert, S. Ehrlich, I. Gerasimov, J. Koopman
   C. Lavigne, S. Lehtola, F. März, M. Müller, F. Musil, H. Neugebauer
   J. Pisarek, C. Plett, P. Pracht, J. Seibert, P. Shushkov, S. Spicher
   M. Stahn, M. Steiner, T. Strunk, J. Stückrath, T. Rose, and J. Unsleber
   
 * started run on 2022/02/05 at 16:17:21.544     

           -------------------------------------------------
          |                Calculation Setup                |
           -------------------------------------------------

          program call               : /ihome/ghutchison/oda6/xtb/xtb-641/bin/xtb ../../FF_optimized/9_127_86_127_62.mol -opt
          hostname                   : smp-n29
          coordinate file            : ../../FF_optimized/9_127_86_127_62.mol
          omp threads                :                     8
          number of atoms            :                   175
          number of electrons        :                   576
          charge                     :                     0
          spin                       :                   0.0
          first test random number   :      0.38635778466259

   ID    Z sym.   atoms
    1    6 C      1-3, 5-10, 12-18, 20, 22, 23, 25, 27, 28, 30-33, 35-48,
                  50-53, 57, 58, 60-70, 72, 73, 75, 76, 78, 79, 81-86, 88,
                  90, 91, 93-96, 98-103, 105-109, 111, 113-115, 117
    2    8 O      4, 104
    3    9 F      11, 24, 26, 87, 89
    4    7 N      19, 21, 29, 34, 54, 56, 74, 77, 92, 97, 116, 118
    5   16 S      49, 55, 59, 71, 80
    6   35 Br     110
    7   17 Cl     112
    8    1 H      119-175
########################################################################
[WARNING] Please study the warnings concerning your input carefully
-1- prog_main_parseArguments: the use of '-opt' is discouraged, please use '--opt' next time
########################################################################

           -------------------------------------------------
          |                 G F N 2 - x T B                 |
           -------------------------------------------------

        Reference                      10.1021/acs.jctc.8b01176
      * Hamiltonian:
        H0-scaling (s, p, d)           1.850000    2.230000    2.230000
        zeta-weighting                 0.500000
      * Dispersion:
        s8                             2.700000
        a1                             0.520000
        a2                             5.000000
        s9                             5.000000
      * Repulsion:
        kExp                           1.500000    1.000000
        rExp                           1.000000
      * Coulomb:
        alpha                          2.000000
        third order                    shell-resolved
        anisotropic                    true
        a3                             3.000000
        a5                             4.000000
        cn-shift                       1.200000
        cn-exp                         4.000000
        max-rad                        5.000000


          ...................................................
          :                      SETUP                      :
          :.................................................:
          :  # basis functions                 571          :
          :  # atomic orbitals                 564          :
          :  # shells                          300          :
          :  # electrons                       576          :
          :  max. iterations                   250          :
          :  Hamiltonian                  GFN2-xTB          :
          :  restarted?                      false          :
          :  GBSA solvation                  false          :
          :  PC potential                    false          :
          :  electronic temp.          300.0000000     K    :
          :  accuracy                    1.0000000          :
          :  -> integral cutoff          0.2500000E+02      :
          :  -> integral neglect         0.1000000E-07      :
          :  -> SCF convergence          0.1000000E-05 Eh   :
          :  -> wf. convergence          0.1000000E-03 e    :
          :  Broyden damping             0.4000000          :
          ...................................................

 iter      E             dE          RMSdq      gap      omega  full diag
   1   -321.6406429 -0.321641E+03  0.467E+00    1.28       0.0  T
   2   -321.9126240 -0.271981E+00  0.294E+00    0.59       1.0  T
   3   -321.7715504  0.141074E+00  0.188E+00    0.74       1.0  T
   4   -322.1063032 -0.334753E+00  0.728E-01    0.68       1.0  T
   5   -322.1796669 -0.733637E-01  0.233E-01    0.49       1.0  T
   6   -322.1845225 -0.485560E-02  0.127E-01    0.62       1.0  T
   7   -322.1856789 -0.115640E-02  0.711E-02    0.58       1.0  T
   8   -322.1860107 -0.331732E-03  0.509E-02    0.60       1.0  T
   9   -322.1861166 -0.105975E-03  0.392E-02    0.58       1.0  T
  10   -322.1861759 -0.592554E-04  0.292E-02    0.59       1.0  T
  11   -322.1862333 -0.574165E-04  0.174E-02    0.59       1.0  T
  12   -322.1862556 -0.223055E-04  0.975E-03    0.59       1.0  T
  13   -322.1862629 -0.724745E-05  0.413E-03    0.59       1.8  T
  14   -322.1862641 -0.123812E-05  0.192E-03    0.59       3.9  T
  15   -322.1862644 -0.278703E-06  0.105E-03    0.59       7.2  T
  16   -322.1862644 -0.484459E-07  0.644E-04    0.59      11.7  T
  17   -322.1862644 -0.233592E-07  0.349E-04    0.59      21.7  T

   *** convergence criteria satisfied after 17 iterations ***

         #    Occupation            Energy/Eh            Energy/eV
      -------------------------------------------------------------
         1        2.0000           -1.0709480             -29.1420
       ...           ...                  ...                  ...
       282        2.0000           -0.3931497             -10.6981
       283        2.0000           -0.3840590             -10.4508
       284        2.0000           -0.3781505             -10.2900
       285        2.0000           -0.3728716             -10.1464
       286        2.0000           -0.3725461             -10.1375
       287        2.0000           -0.3689486             -10.0396
       288        2.0000           -0.3640570              -9.9065 (HOMO)
       289        0.0000           -0.3424661              -9.3190 (LUMO)
       290        0.0000           -0.3394144              -9.2359
       291                         -0.3369213              -9.1681
       292                         -0.3279014              -8.9227
       293                         -0.3212994              -8.7430
       ...                                ...                  ...
       564                          1.0688844              29.0858
      -------------------------------------------------------------
                  HL-Gap            0.0215908 Eh            0.5875 eV
             Fermi-level           -0.3532788 Eh           -9.6132 eV

 SCC (total)                   0 d,  0 h,  0 min,  0.642 sec
 SCC setup                      ...        0 min,  0.003 sec (  0.398%)
 Dispersion                     ...        0 min,  0.007 sec (  1.026%)
 classical contributions        ...        0 min,  0.000 sec (  0.041%)
 integral evaluation            ...        0 min,  0.028 sec (  4.384%)
 iterations                     ...        0 min,  0.515 sec ( 80.139%)
 molecular gradient             ...        0 min,  0.087 sec ( 13.601%)
 printout                       ...        0 min,  0.003 sec (  0.398%)

         :::::::::::::::::::::::::::::::::::::::::::::::::::::
         ::                     SUMMARY                     ::
         :::::::::::::::::::::::::::::::::::::::::::::::::::::
         :: total energy            -317.676314958337 Eh    ::
         :: gradient norm              0.327983093788 Eh/a0 ::
         :: HOMO-LUMO gap              0.587516327669 eV    ::
         ::.................................................::
         :: SCC energy              -322.186264442057 Eh    ::
         :: -> isotropic ES            0.209704089104 Eh    ::
         :: -> anisotropic ES          0.016358756586 Eh    ::
         :: -> anisotropic XC          0.181061884370 Eh    ::
         :: -> dispersion             -0.283988002918 Eh    ::
         :: repulsion energy           4.506105687509 Eh    ::
         :: add. restraining           0.000000000000 Eh    ::
         :: total charge              -0.000000000098 e     ::
         :::::::::::::::::::::::::::::::::::::::::::::::::::::

      ----------------------------------------------------------- 
     |                   =====================                   |
     |                        A N C O P T                        |
     |                   =====================                   |
     |               Approximate Normal Coordinate               |
     |                Rational Function Optimizer                |
      ----------------------------------------------------------- 

          ...................................................
          :                      SETUP                      :
          :.................................................:
          :   optimization level            normal          :
          :   max. optcycles                   525          :
          :   ANC micro-cycles                  20          :
          :   degrees of freedom               519          :
          :.................................................:
          :   RF solver                   davidson          :
          :   write xtbopt.log                true          :
          :   linear?                        false          :
          :   energy convergence         0.5000000E-05 Eh   :
          :   grad. convergence          0.1000000E-02 Eh/α :
          :   maximium RF displ.         1.0000000          :
          :   Hlow (freq-cutoff)         0.1000000E-01      :
          :   Hmax (freq-cutoff)         5.0000000          :
          :   S6 in model hess.         20.0000000          :
          ...................................................

generating ANC from model Hessian ...
Using Lindh-Hessian (1995)
 Shifting diagonal of input Hessian by   1.005492530865487E-002
 Lowest  eigenvalues of input Hessian
    0.010000    0.010054    0.000000    0.000000    0.000000    0.000000
    0.000000    0.000000    0.010064    0.010079    0.010086    0.010105
    0.010121    0.010158    0.010183    0.010207    0.010261    0.010285
 Highest eigenvalues
    2.264386    2.333067    2.497534    2.501021    2.553020    2.559160
 

........................................................................
.............................. CYCLE    1 ..............................
........................................................................
   1   -322.1862644 -0.322186E+03  0.185E-04    0.59       0.0  T
   2   -322.1862644 -0.128750E-09  0.154E-04    0.59      49.2  T
   3   -322.1862645 -0.192750E-08  0.111E-04    0.59      68.1  T
     SCC iter.                  ...        0 min,  0.089 sec
     gradient                   ...        0 min,  0.085 sec
 * total energy  :  -317.6763150 Eh     change       -0.9784685E-08 Eh
   gradient norm :     0.3279844 Eh/α   predicted     0.0000000E+00 (-100.00%)
   displ. norm   :     0.4938327 α      lambda       -0.1177072E+00
   maximum displ.:     0.1260796 α      in ANC's #131, #302, #351, ...

........................................................................
.............................. CYCLE    2 ..............................
........................................................................
   1   -322.3878954 -0.322388E+03  0.278E-01    0.59       0.0  T
   2   -322.3893219 -0.142652E-02  0.166E-01    0.59       1.0  T
   3   -322.3888591  0.462787E-03  0.897E-02    0.59       1.0  T
   4   -322.3896183 -0.759165E-03  0.410E-02    0.58       1.0  T
   5   -322.3897983 -0.180036E-03  0.181E-02    0.59       1.0  T
   6   -322.3898250 -0.267251E-04  0.925E-03    0.59       1.0  T
   7   -322.3898319 -0.689528E-05  0.499E-03    0.59       1.5  T
   8   -322.3898330 -0.102959E-05  0.352E-03    0.59       2.1  T
   9   -322.3898333 -0.325650E-06  0.231E-03    0.59       3.3  T
  10   -322.3898336 -0.350132E-06  0.134E-03    0.59       5.6  T
  11   -322.3898337 -0.782315E-07  0.847E-04    0.59       8.9  T
  12   -322.3898338 -0.401465E-07  0.410E-04    0.59      18.4  T
     SCC iter.                  ...        0 min,  0.335 sec
     gradient                   ...        0 min,  0.087 sec
 * total energy  :  -317.7624578 Eh     change       -0.8614280E-01 Eh
   gradient norm :     0.1523290 Eh/α   predicted    -0.7325486E-01 ( -14.96%)
   displ. norm   :     0.4846052 α      lambda       -0.4810468E-01
   maximum displ.:     0.1747743 α      in ANC's #131, #302, #210, ...

........................................................................
.............................. CYCLE    3 ..............................
........................................................................
   1   -322.5127676 -0.322513E+03  0.219E-01    0.56       0.0  T
   2   -322.5135958 -0.828170E-03  0.130E-01    0.58       1.0  T
   3   -322.5132226  0.373228E-03  0.700E-02    0.57       1.0  T
   4   -322.5137668 -0.544176E-03  0.323E-02    0.57       1.0  T
   5   -322.5138871 -0.120305E-03  0.139E-02    0.58       1.0  T
   6   -322.5139028 -0.157237E-04  0.755E-03    0.58       1.0  T
   7   -322.5139061 -0.328901E-05  0.469E-03    0.57       1.6  T
   8   -322.5139070 -0.906148E-06  0.339E-03    0.57       2.2  T
   9   -322.5139074 -0.436596E-06  0.220E-03    0.57       3.4  T
  10   -322.5139078 -0.344895E-06  0.127E-03    0.57       6.0  T
  11   -322.5139079 -0.817608E-07  0.810E-04    0.57       9.3  T
  12   -322.5139079 -0.433387E-07  0.469E-04    0.57      16.1  T
     SCC iter.                  ...        0 min,  0.360 sec
     gradient                   ...        0 min,  0.087 sec
 * total energy  :  -317.7921077 Eh     change       -0.2964994E-01 Eh
   gradient norm :     0.0406847 Eh/α   predicted    -0.2970086E-01 (   0.17%)
   displ. norm   :     0.4585351 α      lambda       -0.1033464E-01
   maximum displ.:     0.1537431 α      in ANC's #131, #89, #58, ...

........................................................................
.............................. CYCLE    4 ..............................
........................................................................
   1   -322.5563206 -0.322556E+03  0.125E-01    0.58       0.0  T
   2   -322.5563719 -0.512839E-04  0.744E-02    0.58       1.0  T
   3   -322.5560730  0.298842E-03  0.420E-02    0.59       1.0  T
   4   -322.5564205 -0.347475E-03  0.962E-03    0.58       1.0  T
   5   -322.5564293 -0.882200E-05  0.531E-03    0.58       1.4  T
   6   -322.5564314 -0.205800E-05  0.277E-03    0.58       2.7  T
   7   -322.5564317 -0.314739E-06  0.196E-03    0.58       3.9  T
   8   -322.5564318 -0.153387E-06  0.133E-03    0.58       5.7  T
   9   -322.5564319 -0.715593E-07  0.833E-04    0.58       9.1  T
  10   -322.5564319 -0.438067E-07  0.487E-04    0.58      15.5  T
     SCC iter.                  ...        0 min,  0.293 sec
     gradient                   ...        0 min,  0.086 sec
 * total energy  :  -317.7989978 Eh     change       -0.6890100E-02 Eh
   gradient norm :     0.0246156 Eh/α   predicted    -0.6253832E-02 (  -9.23%)
   displ. norm   :     0.6238081 α      lambda       -0.7624803E-02
   maximum displ.:     0.1850614 α      in ANC's #91, #1, #27, ...

........................................................................
.............................. CYCLE    5 ..............................
........................................................................
   1   -322.5630436 -0.322563E+03  0.300E-01    0.57       0.0  T
   2   -322.5632599 -0.216364E-03  0.167E-01    0.58       1.0  T
   3   -322.5626488  0.611117E-03  0.566E-02    0.56       1.0  T
   4   -322.5633855 -0.736681E-03  0.107E-02    0.57       1.0  T
   5   -322.5633928 -0.726360E-05  0.671E-03    0.57       1.1  T
   6   -322.5633972 -0.441481E-05  0.298E-03    0.57       2.5  T
   7   -322.5633981 -0.874419E-06  0.159E-03    0.57       4.7  T
   8   -322.5633982 -0.135925E-06  0.108E-03    0.57       7.0  T
   9   -322.5633982 -0.428807E-07  0.748E-04    0.57      10.1  T
  10   -322.5633983 -0.320400E-07  0.476E-04    0.57      15.9  T
     SCC iter.                  ...        0 min,  0.296 sec
     gradient                   ...        0 min,  0.086 sec
 * total energy  :  -317.7996557 Eh     change       -0.6579005E-03 Eh
   gradient norm :     0.0604743 Eh/α   predicted    -0.5295992E-02 ( 704.98%)
   displ. norm   :     0.3996802 α      lambda       -0.9357992E-02
   maximum displ.:     0.1527869 α      in ANC's #1, #66, #58, ...

........................................................................
.............................. CYCLE    6 ..............................
........................................................................
   1   -322.5799410 -0.322580E+03  0.242E-01    0.58       0.0  T
   2   -322.5800933 -0.152294E-03  0.134E-01    0.59       1.0  T
   3   -322.5800091  0.841601E-04  0.248E-02    0.58       1.0  T
   4   -322.5801481 -0.139002E-03  0.677E-03    0.59       1.1  T
   5   -322.5801522 -0.411207E-05  0.402E-03    0.59       1.9  T
   6   -322.5801544 -0.216997E-05  0.167E-03    0.59       4.5  T
   7   -322.5801547 -0.347572E-06  0.653E-04    0.59      11.6  T
   8   -322.5801548 -0.400889E-07  0.337E-04    0.59      22.4  T
     SCC iter.                  ...        0 min,  0.232 sec
     gradient                   ...        0 min,  0.087 sec
 * total energy  :  -317.8034256 Eh     change       -0.3769852E-02 Eh
   gradient norm :     0.0379168 Eh/α   predicted    -0.5426446E-02 (  43.94%)
   displ. norm   :     0.3938345 α      lambda       -0.4601988E-02
   maximum displ.:     0.1412088 α      in ANC's #48, #51, #72, ...

........................................................................
.............................. CYCLE    7 ..............................
........................................................................
   1   -322.5762051 -0.322576E+03  0.250E-01    0.59       0.0  T
   2   -322.5763242 -0.119094E-03  0.139E-01    0.60       1.0  T
   3   -322.5761643  0.159925E-03  0.324E-02    0.59       1.0  T
   4   -322.5763831 -0.218743E-03  0.632E-03    0.60       1.2  T
   5   -322.5763843 -0.122544E-05  0.412E-03    0.60       1.8  T
   6   -322.5763866 -0.230549E-05  0.134E-03    0.60       5.6  T
   7   -322.5763868 -0.221984E-06  0.617E-04    0.60      12.2  T
   8   -322.5763868 -0.223703E-07  0.348E-04    0.60      21.7  T
     SCC iter.                  ...        0 min,  0.235 sec
     gradient                   ...        0 min,  0.085 sec
 * total energy  :  -317.8034752 Eh     change       -0.4966593E-04 Eh
   gradient norm :     0.0318288 Eh/α   predicted    -0.2657892E-02 (5251.54%)
   displ. norm   :     0.2783926 α      lambda       -0.3650839E-02
   maximum displ.:     0.0868286 α      in ANC's #27, #45, #28, ...

........................................................................
.............................. CYCLE    8 ..............................
........................................................................
   1   -322.5805649 -0.322581E+03  0.146E-01    0.59       0.0  T
   2   -322.5806035 -0.386230E-04  0.810E-02    0.60       1.0  T
   3   -322.5803884  0.215155E-03  0.296E-02    0.58       1.0  T
   4   -322.5806372 -0.248860E-03  0.391E-03    0.60       1.9  T
   5   -322.5806377 -0.506799E-06  0.251E-03    0.60       3.0  T
   6   -322.5806384 -0.630899E-06  0.103E-03    0.60       7.3  T
   7   -322.5806385 -0.151965E-06  0.359E-04    0.60      21.1  T
   8   -322.5806385 -0.842431E-08  0.229E-04    0.60      33.0  T
     SCC iter.                  ...        0 min,  0.236 sec
     gradient                   ...        0 min,  0.086 sec
 * total energy  :  -317.8058779 Eh     change       -0.2402649E-02 Eh
   gradient norm :     0.0197308 Eh/α   predicted    -0.1966900E-02 ( -18.14%)
   displ. norm   :     0.4217968 α      lambda       -0.1851156E-02
   maximum displ.:     0.1586600 α      in ANC's #27, #10, #28, ...

........................................................................
.............................. CYCLE    9 ..............................
........................................................................
   1   -322.5689792 -0.322569E+03  0.134E-01    0.57       0.0  T
   2   -322.5690241 -0.449608E-04  0.742E-02    0.59       1.0  T
   3   -322.5687316  0.292535E-03  0.342E-02    0.57       1.0  T
   4   -322.5690645 -0.332944E-03  0.515E-03    0.59       1.5  T
   5   -322.5690666 -0.205073E-05  0.321E-03    0.59       2.4  T
   6   -322.5690677 -0.115926E-05  0.134E-03    0.59       5.6  T
   7   -322.5690679 -0.207175E-06  0.470E-04    0.59      16.1  T
   8   -322.5690680 -0.114073E-07  0.297E-04    0.59      25.4  T
     SCC iter.                  ...        0 min,  0.227 sec
     gradient                   ...        0 min,  0.086 sec
 * total energy  :  -317.8067657 Eh     change       -0.8878387E-03 Eh
   gradient norm :     0.0347541 Eh/α   predicted    -0.1090253E-02 (  22.80%)
   displ. norm   :     0.4456883 α      lambda       -0.1914529E-02
   maximum displ.:     0.1199967 α      in ANC's #30, #10, #27, ...

........................................................................
.............................. CYCLE   10 ..............................
........................................................................
   1   -322.5716789 -0.322572E+03  0.123E-01    0.59       0.0  T
   2   -322.5717322 -0.532957E-04  0.684E-02    0.59       1.0  T
   3   -322.5716070  0.125213E-03  0.275E-02    0.59       1.0  T
   4   -322.5717552 -0.148228E-03  0.473E-03    0.59       1.6  T
   5   -322.5717558 -0.578672E-06  0.321E-03    0.59       2.4  T
   6   -322.5717574 -0.159888E-05  0.132E-03    0.59       5.7  T
   7   -322.5717576 -0.183384E-06  0.663E-04    0.59      11.4  T
   8   -322.5717576 -0.364254E-07  0.357E-04    0.59      21.2  T
     SCC iter.                  ...        0 min,  0.227 sec
     gradient                   ...        0 min,  0.087 sec
 * total energy  :  -317.8072149 Eh     change       -0.4491820E-03 Eh
   gradient norm :     0.0383151 Eh/α   predicted    -0.1147418E-02 ( 155.45%)
   displ. norm   :     0.2799924 α      lambda       -0.1901939E-02
   maximum displ.:     0.0907449 α      in ANC's #10, #25, #27, ...

........................................................................
.............................. CYCLE   11 ..............................
........................................................................
   1   -322.5832656 -0.322583E+03  0.111E-01    0.59       0.0  T
   2   -322.5832987 -0.330215E-04  0.617E-02    0.59       1.0  T
   3   -322.5832041  0.945204E-04  0.251E-02    0.59       1.0  T
   4   -322.5833169 -0.112742E-03  0.340E-03    0.59       2.2  T
   5   -322.5833173 -0.395581E-06  0.219E-03    0.59       3.5  T
   6   -322.5833180 -0.745929E-06  0.893E-04    0.59       8.5  T
   7   -322.5833181 -0.561870E-07  0.481E-04    0.59      15.7  T
     SCC iter.                  ...        0 min,  0.198 sec
     gradient                   ...        0 min,  0.085 sec
 * total energy  :  -317.8081909 Eh     change       -0.9759777E-03 Eh
   gradient norm :     0.0191907 Eh/α   predicted    -0.1025529E-02 (   5.08%)
   displ. norm   :     0.3680517 α      lambda       -0.9772070E-03
   maximum displ.:     0.1362660 α      in ANC's #10, #27, #30, ...

........................................................................
.............................. CYCLE   12 ..............................
........................................................................
   1   -322.5750490 -0.322575E+03  0.916E-02    0.59       0.0  T
   2   -322.5750718 -0.228228E-04  0.511E-02    0.59       1.0  T
   3   -322.5749896  0.822442E-04  0.201E-02    0.58       1.0  T
   4   -322.5750852 -0.956856E-04  0.370E-03    0.59       2.0  T
   5   -322.5750861 -0.834386E-06  0.230E-03    0.59       3.3  T
   6   -322.5750868 -0.714930E-06  0.867E-04    0.59       8.7  T
   7   -322.5750869 -0.602172E-07  0.449E-04    0.59      16.8  T
     SCC iter.                  ...        0 min,  0.197 sec
     gradient                   ...        0 min,  0.085 sec
 * total energy  :  -317.8087663 Eh     change       -0.5754566E-03 Eh
   gradient norm :     0.0224807 Eh/α   predicted    -0.5547912E-03 (  -3.59%)
   displ. norm   :     0.4638116 α      lambda       -0.9363656E-03
   maximum displ.:     0.1793800 α      in ANC's #10, #30, #27, ...

........................................................................
.............................. CYCLE   13 ..............................
........................................................................
   1   -322.5778385 -0.322578E+03  0.814E-02    0.58       0.0  T
   2   -322.5778559 -0.173802E-04  0.456E-02    0.59       1.0  T
   3   -322.5777760  0.798736E-04  0.206E-02    0.58       1.0  T
   4   -322.5778675 -0.914363E-04  0.358E-03    0.58       2.1  T
   5   -322.5778681 -0.685472E-06  0.231E-03    0.58       3.3  T
   6   -322.5778689 -0.751885E-06  0.982E-04    0.58       7.7  T
   7   -322.5778690 -0.914097E-07  0.501E-04    0.58      15.1  T
     SCC iter.                  ...        0 min,  0.199 sec
     gradient                   ...        0 min,  0.085 sec
 * total energy  :  -317.8091841 Eh     change       -0.4177582E-03 Eh
   gradient norm :     0.0336250 Eh/α   predicted    -0.5689066E-03 (  36.18%)
   displ. norm   :     0.4326250 α      lambda       -0.1137785E-02
   maximum displ.:     0.1759911 α      in ANC's #10, #15, #21, ...

........................................................................
.............................. CYCLE   14 ..............................
........................................................................
   1   -322.5842708 -0.322584E+03  0.643E-02    0.58       0.0  T
   2   -322.5842811 -0.103224E-04  0.368E-02    0.58       1.0  T
   3   -322.5842274  0.537207E-04  0.182E-02    0.59       1.0  T
   4   -322.5842889 -0.615270E-04  0.297E-03    0.58       2.5  T
   5   -322.5842891 -0.228727E-06  0.204E-03    0.58       3.7  T
   6   -322.5842898 -0.649502E-06  0.814E-04    0.58       9.3  T
   7   -322.5842898 -0.460664E-07  0.477E-04    0.58      15.9  T
     SCC iter.                  ...        0 min,  0.199 sec
     gradient                   ...        0 min,  0.086 sec
 * total energy  :  -317.8098868 Eh     change       -0.7027222E-03 Eh
   gradient norm :     0.0140480 Eh/α   predicted    -0.6753763E-03 (  -3.89%)
   displ. norm   :     0.5032870 α      lambda       -0.6531229E-03
   maximum displ.:     0.2263159 α      in ANC's #10, #15, #21, ...

........................................................................
.............................. CYCLE   15 ..............................
........................................................................
   1   -322.5806228 -0.322581E+03  0.649E-02    0.58       0.0  T
   2   -322.5806308 -0.801401E-05  0.368E-02    0.58       1.0  T
   3   -322.5805843  0.465353E-04  0.151E-02    0.58       1.0  T
   4   -322.5806370 -0.527352E-04  0.301E-03    0.58       2.5  T
   5   -322.5806376 -0.531662E-06  0.175E-03    0.58       4.3  T
   6   -322.5806379 -0.321089E-06  0.744E-04    0.58      10.2  T
   7   -322.5806379 -0.696343E-07  0.376E-04    0.58      20.1  T
     SCC iter.                  ...        0 min,  0.205 sec
     gradient                   ...        0 min,  0.085 sec
 * total energy  :  -317.8104011 Eh     change       -0.5143315E-03 Eh
   gradient norm :     0.0110499 Eh/α   predicted    -0.4092805E-03 ( -20.42%)
   displ. norm   :     0.5650799 α      lambda       -0.6657337E-03
   maximum displ.:     0.2699948 α      in ANC's #10, #15, #21, ...

........................................................................
.............................. CYCLE   16 ..............................
........................................................................
   1   -322.5814028 -0.322581E+03  0.666E-02    0.58       0.0  T
   2   -322.5814103 -0.751373E-05  0.380E-02    0.57       1.0  T
   3   -322.5813690  0.412364E-04  0.142E-02    0.58       1.0  T
   4   -322.5814159 -0.468917E-04  0.280E-03    0.57       2.7  T
   5   -322.5814163 -0.363557E-06  0.162E-03    0.57       4.7  T
   6   -322.5814165 -0.242116E-06  0.686E-04    0.57      11.0  T
   7   -322.5814166 -0.374828E-07  0.419E-04    0.57      18.0  T
     SCC iter.                  ...        0 min,  0.203 sec
     gradient                   ...        0 min,  0.087 sec
 * total energy  :  -317.8109462 Eh     change       -0.5450301E-03 Eh
   gradient norm :     0.0073613 Eh/α   predicted    -0.4391594E-03 ( -19.42%)
   displ. norm   :     0.6184130 α      lambda       -0.6042035E-03
   maximum displ.:     0.3031999 α      in ANC's #10, #15, #21, ...

........................................................................
.............................. CYCLE   17 ..............................
........................................................................
   1   -322.5798663 -0.322580E+03  0.676E-02    0.57       0.0  T
   2   -322.5798731 -0.683071E-05  0.388E-02    0.57       1.0  T
   3   -322.5798210  0.521861E-04  0.159E-02    0.57       1.0  T
   4   -322.5798795 -0.585733E-04  0.288E-03    0.57       2.6  T
   5   -322.5798800 -0.442970E-06  0.163E-03    0.57       4.6  T
   6   -322.5798802 -0.224844E-06  0.701E-04    0.57      10.8  T
   7   -322.5798802 -0.329824E-07  0.445E-04    0.57      17.0  T
     SCC iter.                  ...        0 min,  0.204 sec
     gradient                   ...        0 min,  0.086 sec
 * total energy  :  -317.8114509 Eh     change       -0.5047633E-03 Eh
   gradient norm :     0.0078448 Eh/α   predicted    -0.4176371E-03 ( -17.26%)
   displ. norm   :     0.6323644 α      lambda       -0.5799325E-03
   maximum displ.:     0.3174560 α      in ANC's #10, #15, #2, ...

........................................................................
.............................. CYCLE   18 ..............................
........................................................................
   1   -322.5818840 -0.322582E+03  0.669E-02    0.57       0.0  T
   2   -322.5818897 -0.570435E-05  0.385E-02    0.57       1.0  T
   3   -322.5818385  0.512370E-04  0.158E-02    0.57       1.0  T
   4   -322.5818956 -0.571342E-04  0.303E-03    0.57       2.5  T
   5   -322.5818961 -0.483406E-06  0.174E-03    0.57       4.4  T
   6   -322.5818964 -0.256645E-06  0.772E-04    0.57       9.8  T
   7   -322.5818964 -0.356514E-07  0.516E-04    0.57      14.6  T
     SCC iter.                  ...        0 min,  0.206 sec
     gradient                   ...        0 min,  0.086 sec
 * total energy  :  -317.8119383 Eh     change       -0.4873748E-03 Eh
   gradient norm :     0.0081476 Eh/α   predicted    -0.4059214E-03 ( -16.71%)
   displ. norm   :     0.6724246 α      lambda       -0.5834689E-03
   maximum displ.:     0.3428642 α      in ANC's #10, #15, #2, ...

........................................................................
.............................. CYCLE   19 ..............................
........................................................................
   1   -322.5781705 -0.322578E+03  0.727E-02    0.57       0.0  T
   2   -322.5781774 -0.690669E-05  0.417E-02    0.56       1.0  T
   3   -322.5781092  0.681771E-04  0.174E-02    0.57       1.0  T
   4   -322.5781853 -0.760918E-04  0.315E-03    0.56       2.4  T
   5   -322.5781858 -0.487814E-06  0.189E-03    0.57       4.0  T
   6   -322.5781861 -0.337489E-06  0.844E-04    0.57       9.0  T
   7   -322.5781862 -0.537772E-07  0.574E-04    0.57      13.2  T
     SCC iter.                  ...        0 min,  0.214 sec
     gradient                   ...        0 min,  0.085 sec
 * total energy  :  -317.8124301 Eh     change       -0.4917954E-03 Eh
   gradient norm :     0.0074583 Eh/α   predicted    -0.4236465E-03 ( -13.86%)
   displ. norm   :     0.6653039 α      lambda       -0.6020540E-03
   maximum displ.:     0.3394938 α      in ANC's #10, #15, #2, ...

........................................................................
.............................. CYCLE   20 ..............................
........................................................................
   1   -322.5831415 -0.322583E+03  0.706E-02    0.56       0.0  T
   2   -322.5831472 -0.561912E-05  0.405E-02    0.56       1.0  T
   3   -322.5830912  0.559910E-04  0.162E-02    0.57       1.0  T
   4   -322.5831534 -0.622762E-04  0.324E-03    0.57       2.3  T
   5   -322.5831538 -0.376307E-06  0.192E-03    0.57       3.9  T
   6   -322.5831542 -0.340033E-06  0.858E-04    0.57       8.8  T
   7   -322.5831542 -0.297348E-07  0.630E-04    0.57      12.0  T
     SCC iter.                  ...        0 min,  0.205 sec
     gradient                   ...        0 min,  0.085 sec
 * total energy  :  -317.8129098 Eh     change       -0.4797214E-03 Eh
   gradient norm :     0.0085808 Eh/α   predicted    -0.4342706E-03 (  -9.47%)
   displ. norm   :     0.6993529 α      lambda       -0.5470067E-03
   maximum displ.:     0.3644054 α      in ANC's #10, #15, #2, ...
 * RMSD in coord.:     0.5374099 α      energy gain  -0.1365949E+00 Eh

generating ANC from model Hessian ...
Using Lindh-Hessian (1995)
 Shifting diagonal of input Hessian by   1.000454612263472E-002
 Lowest  eigenvalues of input Hessian
    0.010000    0.000000    0.000000    0.000000    0.000000    0.000000
    0.000000    0.010005    0.010012    0.010034    0.010041    0.010053
    0.010083    0.010104    0.010139    0.010188    0.010252    0.010287
 Highest eigenvalues
    2.296939    2.297160    2.608740    2.608775    2.649616    2.651407
 

........................................................................
.............................. CYCLE   21 ..............................
........................................................................
   1   -322.5791164 -0.322579E+03  0.804E-02    0.56       0.0  T
   2   -322.5791246 -0.815928E-05  0.459E-02    0.56       1.0  T
   3   -322.5790462  0.783913E-04  0.184E-02    0.56       1.0  T
   4   -322.5791338 -0.875545E-04  0.327E-03    0.56       2.3  T
   5   -322.5791339 -0.179014E-06  0.225E-03    0.56       3.4  T
   6   -322.5791346 -0.698859E-06  0.997E-04    0.56       7.6  T
   7   -322.5791347 -0.927170E-07  0.636E-04    0.56      11.9  T
     SCC iter.                  ...        0 min,  0.202 sec
     gradient                   ...        0 min,  0.086 sec
 * total energy  :  -317.8133582 Eh     change       -0.4483802E-03 Eh
   gradient norm :     0.0092914 Eh/α   predicted     0.0000000E+00 (-100.00%)
   displ. norm   :     0.0978909 α      lambda       -0.1953919E-03
   maximum displ.:     0.0340338 α      in ANC's #29, #4, #7, ...

........................................................................
.............................. CYCLE   22 ..............................
........................................................................
   1   -322.5820368 -0.322582E+03  0.342E-02    0.56       0.0  T
   2   -322.5820397 -0.294297E-05  0.190E-02    0.57       1.0  T
   3   -322.5820336  0.612846E-05  0.603E-03    0.56       1.3  T
   4   -322.5820412 -0.761887E-05  0.134E-03    0.57       5.6  T
   5   -322.5820414 -0.151090E-06  0.814E-04    0.57       9.3  T
   6   -322.5820414 -0.615161E-07  0.413E-04    0.57      18.3  T
     SCC iter.                  ...        0 min,  0.177 sec
     gradient                   ...        0 min,  0.086 sec
 * total energy  :  -317.8134890 Eh     change       -0.1307801E-03 Eh
   gradient norm :     0.0043217 Eh/α   predicted    -0.9863401E-04 ( -24.58%)
   displ. norm   :     0.3392165 α      lambda       -0.5218645E-03
   maximum displ.:     0.1062612 α      in ANC's #4, #29, #7, ...

........................................................................
.............................. CYCLE   23 ..............................
........................................................................
   1   -322.5891064 -0.322589E+03  0.670E-02    0.56       0.0  T
   2   -322.5891164 -0.995762E-05  0.379E-02    0.57       1.0  T
   3   -322.5890916  0.248284E-04  0.129E-02    0.56       1.0  T
   4   -322.5891205 -0.288963E-04  0.363E-03    0.57       2.1  T
   5   -322.5891216 -0.118123E-05  0.201E-03    0.57       3.8  T
   6   -322.5891220 -0.336662E-06  0.110E-03    0.57       6.8  T
   7   -322.5891221 -0.841791E-07  0.739E-04    0.57      10.2  T
   8   -322.5891221 -0.175769E-07  0.537E-04    0.57      14.1  T
     SCC iter.                  ...        0 min,  0.232 sec
     gradient                   ...        0 min,  0.085 sec
 * total energy  :  -317.8135522 Eh     change       -0.6319052E-04 Eh
   gradient norm :     0.0213790 Eh/α   predicted    -0.2909814E-03 ( 360.48%)
   displ. norm   :     0.1599507 α      lambda       -0.5097624E-03
   maximum displ.:     0.0498867 α      in ANC's #4, #20, #19, ...

........................................................................
.............................. CYCLE   24 ..............................
........................................................................
   1   -322.5864323 -0.322586E+03  0.636E-02    0.56       0.0  T
   2   -322.5864406 -0.826016E-05  0.353E-02    0.57       1.0  T
   3   -322.5864341  0.645141E-05  0.731E-03    0.56       1.0  T
   4   -322.5864443 -0.101742E-04  0.161E-03    0.57       4.7  T
   5   -322.5864444 -0.318717E-07  0.107E-03    0.57       7.1  T
   6   -322.5864445 -0.165915E-06  0.397E-04    0.57      19.0  T
   7   -322.5864445 -0.178739E-07  0.205E-04    0.57      36.9  T
     SCC iter.                  ...        0 min,  0.208 sec
     gradient                   ...        0 min,  0.084 sec
 * total energy  :  -317.8138029 Eh     change       -0.2507706E-03 Eh
   gradient norm :     0.0118447 Eh/α   predicted    -0.2614028E-03 (   4.24%)
   displ. norm   :     0.1564102 α      lambda       -0.3749772E-03
   maximum displ.:     0.0513997 α      in ANC's #4, #7, #11, ...

........................................................................
.............................. CYCLE   25 ..............................
........................................................................
   1   -322.5803775 -0.322580E+03  0.536E-02    0.56       0.0  T
   2   -322.5803846 -0.715482E-05  0.298E-02    0.57       1.0  T
   3   -322.5803772  0.742199E-05  0.775E-03    0.56       1.0  T
   4   -322.5803877 -0.104580E-04  0.169E-03    0.57       4.5  T
   5   -322.5803878 -0.135227E-06  0.109E-03    0.57       6.9  T
   6   -322.5803879 -0.973940E-07  0.609E-04    0.57      12.4  T
   7   -322.5803879 -0.287213E-07  0.396E-04    0.57      19.1  T
     SCC iter.                  ...        0 min,  0.204 sec
     gradient                   ...        0 min,  0.086 sec
 * total energy  :  -317.8139384 Eh     change       -0.1354246E-03 Eh
   gradient norm :     0.0111314 Eh/α   predicted    -0.1920766E-03 (  41.83%)
   displ. norm   :     0.2199269 α      lambda       -0.2578502E-03
   maximum displ.:     0.0784493 α      in ANC's #4, #7, #11, ...

........................................................................
.............................. CYCLE   26 ..............................
........................................................................
   1   -322.5818319 -0.322582E+03  0.331E-02    0.56       0.0  T
   2   -322.5818339 -0.203151E-05  0.186E-02    0.57       1.0  T
   3   -322.5818289  0.499587E-05  0.545E-03    0.57       1.4  T
   4   -322.5818350 -0.607671E-05  0.134E-03    0.57       5.6  T
   5   -322.5818350 -0.631559E-07  0.845E-04    0.57       8.9  T
   6   -322.5818351 -0.606225E-07  0.422E-04    0.57      17.9  T
     SCC iter.                  ...        0 min,  0.179 sec
     gradient                   ...        0 min,  0.084 sec
 * total energy  :  -317.8141380 Eh     change       -0.1996070E-03 Eh
   gradient norm :     0.0069128 Eh/α   predicted    -0.1351673E-03 ( -32.28%)
   displ. norm   :     0.6068862 α      lambda       -0.6695010E-03
   maximum displ.:     0.2136000 α      in ANC's #4, #7, #11, ...

........................................................................
.............................. CYCLE   27 ..............................
........................................................................
   1   -322.5850695 -0.322585E+03  0.963E-02    0.57       0.0  T
   2   -322.5850879 -0.183805E-04  0.541E-02    0.57       1.0  T
   3   -322.5850461  0.418643E-04  0.157E-02    0.57       1.0  T
   4   -322.5850974 -0.513217E-04  0.368E-03    0.57       2.1  T
   5   -322.5850979 -0.493087E-06  0.228E-03    0.57       3.3  T
   6   -322.5850983 -0.472214E-06  0.104E-03    0.57       7.3  T
   7   -322.5850984 -0.646672E-07  0.695E-04    0.57      10.9  T
   8   -322.5850984 -0.194240E-07  0.490E-04    0.57      15.4  T
     SCC iter.                  ...        0 min,  0.234 sec
     gradient                   ...        0 min,  0.085 sec
 * total energy  :  -317.8142802 Eh     change       -0.1421934E-03 Eh
   gradient norm :     0.0167694 Eh/α   predicted    -0.4580437E-03 ( 222.13%)
   displ. norm   :     0.3181907 α      lambda       -0.5716142E-03
   maximum displ.:     0.1155186 α      in ANC's #4, #7, #11, ...

........................................................................
.............................. CYCLE   28 ..............................
........................................................................
   1   -322.5823672 -0.322582E+03  0.575E-02    0.57       0.0  T
   2   -322.5823745 -0.730129E-05  0.321E-02    0.58       1.0  T
   3   -322.5823642  0.103233E-04  0.800E-03    0.57       1.0  T
   4   -322.5823779 -0.136937E-04  0.196E-03    0.58       3.9  T
   5   -322.5823780 -0.143467E-06  0.127E-03    0.58       6.0  T
   6   -322.5823782 -0.199440E-06  0.568E-04    0.58      13.3  T
   7   -322.5823783 -0.320368E-07  0.346E-04    0.58      21.9  T
     SCC iter.                  ...        0 min,  0.208 sec
     gradient                   ...        0 min,  0.085 sec
 * total energy  :  -317.8146811 Eh     change       -0.4008866E-03 Eh
   gradient norm :     0.0076966 Eh/α   predicted    -0.3147446E-03 ( -21.49%)
   displ. norm   :     0.4874709 α      lambda       -0.3778007E-03
   maximum displ.:     0.1814148 α      in ANC's #4, #7, #11, ...

........................................................................
.............................. CYCLE   29 ..............................
........................................................................
   1   -322.5802059 -0.322580E+03  0.576E-02    0.57       0.0  T
   2   -322.5802116 -0.572220E-05  0.327E-02    0.58       1.0  T
   3   -322.5801873  0.242814E-04  0.114E-02    0.58       1.0  T
   4   -322.5802153 -0.280025E-04  0.243E-03    0.58       3.1  T
   5   -322.5802156 -0.312640E-06  0.152E-03    0.58       5.0  T
   6   -322.5802159 -0.242482E-06  0.701E-04    0.58      10.8  T
   7   -322.5802159 -0.471083E-07  0.443E-04    0.58      17.1  T
     SCC iter.                  ...        0 min,  0.205 sec
     gradient                   ...        0 min,  0.085 sec
 * total energy  :  -317.8149742 Eh     change       -0.2931095E-03 Eh
   gradient norm :     0.0061395 Eh/α   predicted    -0.2337897E-03 ( -20.24%)
   displ. norm   :     0.6378863 α      lambda       -0.4777321E-03
   maximum displ.:     0.2395993 α      in ANC's #4, #7, #11, ...

........................................................................
.............................. CYCLE   30 ..............................
........................................................................
   1   -322.5794798 -0.322579E+03  0.697E-02    0.58       0.0  T
   2   -322.5794866 -0.683594E-05  0.399E-02    0.59       1.0  T
   3   -322.5794407  0.458523E-04  0.148E-02    0.59       1.0  T
   4   -322.5794918 -0.510811E-04  0.313E-03    0.60       2.4  T
   5   -322.5794927 -0.922767E-06  0.188E-03    0.59       4.0  T
   6   -322.5794931 -0.335253E-06  0.899E-04    0.59       8.4  T
   7   -322.5794932 -0.790778E-07  0.563E-04    0.59      13.4  T
     SCC iter.                  ...        0 min,  0.204 sec
     gradient                   ...        0 min,  0.085 sec
 * total energy  :  -317.8153268 Eh     change       -0.3526187E-03 Eh
   gradient norm :     0.0100316 Eh/α   predicted    -0.3360618E-03 (  -4.70%)
   displ. norm   :     0.6453794 α      lambda       -0.5212472E-03
   maximum displ.:     0.2447096 α      in ANC's #4, #7, #11, ...

........................................................................
.............................. CYCLE   31 ..............................
........................................................................
   1   -322.5812287 -0.322581E+03  0.712E-02    0.59       0.0  T
   2   -322.5812369 -0.823481E-05  0.408E-02    0.60       1.0  T
   3   -322.5811727  0.641753E-04  0.174E-02    0.60       1.0  T
   4   -322.5812447 -0.719360E-04  0.330E-03    0.60       2.3  T
   5   -322.5812457 -0.107616E-05  0.186E-03    0.60       4.1  T
   6   -322.5812460 -0.220182E-06  0.882E-04    0.60       8.6  T
   7   -322.5812460 -0.641269E-07  0.575E-04    0.60      13.1  T
     SCC iter.                  ...        0 min,  0.210 sec
     gradient                   ...        0 min,  0.084 sec
 * total energy  :  -317.8157775 Eh     change       -0.4507043E-03 Eh
   gradient norm :     0.0088747 Eh/α   predicted    -0.3691781E-03 ( -18.09%)
   displ. norm   :     0.7189644 α      lambda       -0.5926330E-03
   maximum displ.:     0.2764621 α      in ANC's #4, #7, #1, ...

........................................................................
.............................. CYCLE   32 ..............................
........................................................................
   1   -322.5817345 -0.322582E+03  0.807E-02    0.60       0.0  T
   2   -322.5817451 -0.105876E-04  0.464E-02    0.61       1.0  T
   3   -322.5816406  0.104510E-03  0.221E-02    0.60       1.0  T
   4   -322.5817576 -0.117021E-03  0.375E-03    0.61       2.0  T
   5   -322.5817590 -0.138989E-05  0.205E-03    0.61       3.7  T
   6   -322.5817592 -0.236309E-06  0.930E-04    0.61       8.1  T
   7   -322.5817593 -0.752891E-07  0.562E-04    0.61      13.5  T
     SCC iter.                  ...        0 min,  0.207 sec
     gradient                   ...        0 min,  0.085 sec
 * total energy  :  -317.8162945 Eh     change       -0.5170325E-03 Eh
   gradient norm :     0.0056852 Eh/α   predicted    -0.4494939E-03 ( -13.06%)
   displ. norm   :     0.7723069 α      lambda       -0.5903472E-03
   maximum displ.:     0.3009993 α      in ANC's #4, #26, #7, ...

........................................................................
.............................. CYCLE   33 ..............................
........................................................................
   1   -322.5813473 -0.322581E+03  0.884E-02    0.61       0.0  T
   2   -322.5813609 -0.136099E-04  0.510E-02    0.62       1.0  T
   3   -322.5812046  0.156273E-03  0.267E-02    0.61       1.0  T
   4   -322.5813798 -0.175156E-03  0.435E-03    0.61       1.7  T
   5   -322.5813819 -0.208629E-05  0.226E-03    0.61       3.3  T
   6   -322.5813821 -0.274995E-06  0.103E-03    0.61       7.4  T
   7   -322.5813822 -0.101787E-06  0.574E-04    0.61      13.2  T
   8   -322.5813822 -0.502195E-08  0.431E-04    0.61      17.5  T
     SCC iter.                  ...        0 min,  0.238 sec
     gradient                   ...        0 min,  0.085 sec
 * total energy  :  -317.8168280 Eh     change       -0.5334807E-03 Eh
   gradient norm :     0.0063446 Eh/α   predicted    -0.4712324E-03 ( -11.67%)
   displ. norm   :     0.7645578 α      lambda       -0.6338586E-03
   maximum displ.:     0.2993279 α      in ANC's #4, #26, #1, ...

........................................................................
.............................. CYCLE   34 ..............................
........................................................................
   1   -322.5827613 -0.322583E+03  0.942E-02    0.61       0.0  T
   2   -322.5827771 -0.158880E-04  0.542E-02    0.62       1.0  T
   3   -322.5825763  0.200867E-03  0.302E-02    0.61       1.0  T
   4   -322.5828019 -0.225633E-03  0.472E-03    0.62       1.6  T
   5   -322.5828045 -0.258428E-05  0.242E-03    0.62       3.1  T
   6   -322.5828048 -0.329435E-06  0.105E-03    0.62       7.2  T
   7   -322.5828049 -0.111605E-06  0.565E-04    0.62      13.4  T
   8   -322.5828049 -0.896648E-08  0.418E-04    0.62      18.1  T
     SCC iter.                  ...        0 min,  0.248 sec
     gradient                   ...        0 min,  0.084 sec
 * total energy  :  -317.8173854 Eh     change       -0.5574363E-03 Eh
   gradient norm :     0.0070668 Eh/α   predicted    -0.5021949E-03 (  -9.91%)
   displ. norm   :     0.8239459 α      lambda       -0.6443661E-03
   maximum displ.:     0.3302577 α      in ANC's #4, #26, #1, ...

........................................................................
.............................. CYCLE   35 ..............................
........................................................................
   1   -322.5766802 -0.322577E+03  0.982E-02    0.62       0.0  T
   2   -322.5766982 -0.180405E-04  0.570E-02    0.63       1.0  T
   3   -322.5764046  0.293636E-03  0.359E-02    0.61       1.0  T
   4   -322.5767361 -0.331490E-03  0.562E-03    0.62       1.3  T
   5   -322.5767403 -0.421751E-05  0.255E-03    0.62       3.0  T
   6   -322.5767406 -0.326679E-06  0.125E-03    0.62       6.1  T
   7   -322.5767408 -0.161178E-06  0.656E-04    0.62      11.5  T
   8   -322.5767408 -0.154294E-07  0.471E-04    0.62      16.0  T
     SCC iter.                  ...        0 min,  0.226 sec
     gradient                   ...        0 min,  0.086 sec
 * total energy  :  -317.8179275 Eh     change       -0.5421094E-03 Eh
   gradient norm :     0.0091462 Eh/α   predicted    -0.5409091E-03 (  -0.22%)
   displ. norm   :     0.6980125 α      lambda       -0.7993493E-03
   maximum displ.:     0.2479605 α      in ANC's #4, #26, #8, ...

........................................................................
.............................. CYCLE   36 ..............................
........................................................................
   1   -322.5852666 -0.322585E+03  0.101E-01    0.62       0.0  T
   2   -322.5852860 -0.193970E-04  0.581E-02    0.63       1.0  T
   3   -322.5850508  0.235228E-03  0.332E-02    0.61       1.0  T
   4   -322.5853151 -0.264334E-03  0.514E-03    0.63       1.5  T
   5   -322.5853187 -0.364663E-05  0.255E-03    0.63       3.0  T
   6   -322.5853192 -0.406267E-06  0.106E-03    0.63       7.1  T
   7   -322.5853193 -0.118107E-06  0.536E-04    0.63      14.1  T
   8   -322.5853193 -0.200585E-07  0.342E-04    0.63      22.1  T
     SCC iter.                  ...        0 min,  0.256 sec
     gradient                   ...        0 min,  0.084 sec
 * total energy  :  -317.8184083 Eh     change       -0.4807051E-03 Eh
   gradient norm :     0.0101113 Eh/α   predicted    -0.5944114E-03 (  23.65%)
   displ. norm   :     0.7122530 α      lambda       -0.5941230E-03
   maximum displ.:     0.2929988 α      in ANC's #4, #26, #1, ...

........................................................................
.............................. CYCLE   37 ..............................
........................................................................
   1   -322.5773363 -0.322577E+03  0.781E-02    0.63       0.0  T
   2   -322.5773445 -0.821593E-05  0.458E-02    0.64       1.0  T
   3   -322.5771045  0.239934E-03  0.321E-02    0.62       1.0  T
   4   -322.5773767 -0.272136E-03  0.490E-03    0.63       1.5  T
   5   -322.5773804 -0.370055E-05  0.190E-03    0.63       4.0  T
   6   -322.5773805 -0.159727E-06  0.102E-03    0.63       7.4  T
   7   -322.5773807 -0.135701E-06  0.483E-04    0.63      15.7  T
   8   -322.5773807 -0.136442E-07  0.324E-04    0.63      23.3  T
     SCC iter.                  ...        0 min,  0.251 sec
     gradient                   ...        0 min,  0.086 sec
 * total energy  :  -317.8188794 Eh     change       -0.4711435E-03 Eh
   gradient norm :     0.0092718 Eh/α   predicted    -0.4477614E-03 (  -4.96%)
   displ. norm   :     0.5325670 α      lambda       -0.6150733E-03
   maximum displ.:     0.2274521 α      in ANC's #4, #26, #1, ...

........................................................................
.............................. CYCLE   38 ..............................
........................................................................
   1   -322.5790338 -0.322579E+03  0.629E-02    0.63       0.0  T
   2   -322.5790384 -0.465587E-05  0.364E-02    0.64       1.0  T
   3   -322.5789189  0.119498E-03  0.226E-02    0.62       1.0  T
   4   -322.5790515 -0.132537E-03  0.346E-03    0.63       2.2  T
   5   -322.5790531 -0.163009E-05  0.154E-03    0.63       4.9  T
   6   -322.5790532 -0.133933E-06  0.815E-04    0.63       9.3  T
   7   -322.5790533 -0.756841E-07  0.432E-04    0.63      17.5  T
     SCC iter.                  ...        0 min,  0.223 sec
     gradient                   ...        0 min,  0.086 sec
 * total energy  :  -317.8193464 Eh     change       -0.4670285E-03 Eh
   gradient norm :     0.0097830 Eh/α   predicted    -0.3947652E-03 ( -15.47%)
   displ. norm   :     0.5968838 α      lambda       -0.5440134E-03
   maximum displ.:     0.2539862 α      in ANC's #4, #26, #1, ...

........................................................................
.............................. CYCLE   39 ..............................
........................................................................
   1   -322.5783638 -0.322578E+03  0.746E-02    0.64       0.0  T
   2   -322.5783707 -0.689804E-05  0.429E-02    0.64       1.0  T
   3   -322.5782018  0.168876E-03  0.274E-02    0.63       1.0  T
   4   -322.5783901 -0.188221E-03  0.359E-03    0.64       2.1  T
   5   -322.5783914 -0.137657E-05  0.180E-03    0.64       4.2  T
   6   -322.5783916 -0.182809E-06  0.924E-04    0.64       8.2  T
   7   -322.5783917 -0.100808E-06  0.450E-04    0.64      16.8  T
     SCC iter.                  ...        0 min,  0.219 sec
     gradient                   ...        0 min,  0.084 sec
 * total energy  :  -317.8197629 Eh     change       -0.4164319E-03 Eh
   gradient norm :     0.0090957 Eh/α   predicted    -0.3689148E-03 ( -11.41%)
   displ. norm   :     0.6200249 α      lambda       -0.5156585E-03
   maximum displ.:     0.2534322 α      in ANC's #4, #26, #1, ...

........................................................................
.............................. CYCLE   40 ..............................
........................................................................
   1   -322.5833572 -0.322583E+03  0.800E-02    0.64       0.0  T
   2   -322.5833640 -0.684378E-05  0.461E-02    0.64       1.0  T
   3   -322.5832489  0.115121E-03  0.218E-02    0.63       1.0  T
   4   -322.5833750 -0.126142E-03  0.325E-03    0.64       2.3  T
   5   -322.5833762 -0.118000E-05  0.170E-03    0.64       4.4  T
   6   -322.5833764 -0.180914E-06  0.795E-04    0.64       9.5  T
   7   -322.5833765 -0.728905E-07  0.395E-04    0.64      19.1  T
     SCC iter.                  ...        0 min,  0.216 sec
     gradient                   ...        0 min,  0.086 sec
 * total energy  :  -317.8201116 Eh     change       -0.3487627E-03 Eh
   gradient norm :     0.0096653 Eh/α   predicted    -0.3569495E-03 (   2.35%)
   displ. norm   :     0.5600749 α      lambda       -0.3981987E-03
   maximum displ.:     0.2512946 α      in ANC's #4, #26, #1, ...

........................................................................
.............................. CYCLE   41 ..............................
........................................................................
   1   -322.5828672 -0.322583E+03  0.639E-02    0.64       0.0  T
   2   -322.5828718 -0.464343E-05  0.367E-02    0.65       1.0  T
   3   -322.5827777  0.940894E-04  0.196E-02    0.64       1.0  T
   4   -322.5828814 -0.103616E-03  0.269E-03    0.65       2.8  T
   5   -322.5828821 -0.793706E-06  0.140E-03    0.64       5.4  T
   6   -322.5828822 -0.100347E-06  0.723E-04    0.65      10.4  T
   7   -322.5828823 -0.748954E-07  0.320E-04    0.65      23.7  T
     SCC iter.                  ...        0 min,  0.215 sec
     gradient                   ...        0 min,  0.086 sec
 * total energy  :  -317.8203913 Eh     change       -0.2797071E-03 Eh
   gradient norm :     0.0069417 Eh/α   predicted    -0.2615583E-03 (  -6.49%)
   displ. norm   :     0.5903304 α      lambda       -0.3258887E-03
   maximum displ.:     0.2621269 α      in ANC's #4, #26, #1, ...

........................................................................
.............................. CYCLE   42 ..............................
........................................................................
   1   -322.5783631 -0.322578E+03  0.766E-02    0.65       0.0  T
   2   -322.5783723 -0.917709E-05  0.440E-02    0.65       1.0  T
   3   -322.5782280  0.144247E-03  0.248E-02    0.64       1.0  T
   4   -322.5783880 -0.159943E-03  0.332E-03    0.65       2.3  T
   5   -322.5783890 -0.105547E-05  0.186E-03    0.65       4.1  T
   6   -322.5783893 -0.242862E-06  0.851E-04    0.65       8.9  T
   7   -322.5783894 -0.872477E-07  0.395E-04    0.65      19.1  T
     SCC iter.                  ...        0 min,  0.210 sec
     gradient                   ...        0 min,  0.084 sec
 * total energy  :  -317.8205756 Eh     change       -0.1843085E-03 Eh
   gradient norm :     0.0134011 Eh/α   predicted    -0.2197307E-03 (  19.22%)
   displ. norm   :     0.3767360 α      lambda       -0.3462335E-03
   maximum displ.:     0.1633234 α      in ANC's #4, #1, #5, ...
 * RMSD in coord.:     0.7727534 α      energy gain  -0.7665812E-02 Eh

generating ANC from model Hessian ...
Using Lindh-Hessian (1995)
 Shifting diagonal of input Hessian by   1.000671709816464E-002
 Lowest  eigenvalues of input Hessian
    0.010000    0.000000    0.000000    0.000000    0.000000    0.000000
    0.000000    0.010007    0.010008    0.010038    0.010045    0.010055
    0.010079    0.010116    0.010156    0.010196    0.010288    0.010308
 Highest eigenvalues
    2.297705    2.298419    2.608371    2.610289    2.651693    2.653682
 

........................................................................
.............................. CYCLE   43 ..............................
........................................................................
   1   -322.5877311 -0.322588E+03  0.497E-02    0.65       0.0  T
   2   -322.5877354 -0.428435E-05  0.286E-02    0.65       1.0  T
   3   -322.5877080  0.273327E-04  0.128E-02    0.65       1.0  T
   4   -322.5877389 -0.308079E-04  0.232E-03    0.65       3.3  T
   5   -322.5877394 -0.596378E-06  0.123E-03    0.65       6.1  T
   6   -322.5877396 -0.124370E-06  0.593E-04    0.65      12.8  T
   7   -322.5877396 -0.356335E-07  0.281E-04    0.65      26.9  T
     SCC iter.                  ...        0 min,  0.224 sec
     gradient                   ...        0 min,  0.085 sec
 * total energy  :  -317.8207491 Eh     change       -0.1734312E-03 Eh
   gradient norm :     0.0081831 Eh/α   predicted     0.0000000E+00 (-100.00%)
   displ. norm   :     0.0851638 α      lambda       -0.1939245E-03
   maximum displ.:     0.0301843 α      in ANC's #22, #39, #1, ...

........................................................................
.............................. CYCLE   44 ..............................
........................................................................
   1   -322.5845514 -0.322585E+03  0.493E-02    0.65       0.0  T
   2   -322.5845570 -0.564463E-05  0.273E-02    0.65       1.0  T
   3   -322.5845543  0.272971E-05  0.495E-03    0.64       1.5  T
   4   -322.5845592 -0.491747E-05  0.132E-03    0.65       5.7  T
   5   -322.5845593 -0.131628E-06  0.712E-04    0.65      10.6  T
   6   -322.5845594 -0.489196E-07  0.301E-04    0.65      25.1  T
     SCC iter.                  ...        0 min,  0.185 sec
     gradient                   ...        0 min,  0.085 sec
 * total energy  :  -317.8207842 Eh     change       -0.3512499E-04 Eh
   gradient norm :     0.0053880 Eh/α   predicted    -0.9766608E-04 ( 178.05%)
   displ. norm   :     0.1178088 α      lambda       -0.2775219E-03
   maximum displ.:     0.0356837 α      in ANC's #39, #1, #4, ...

........................................................................
.............................. CYCLE   45 ..............................
........................................................................
   1   -322.5817364 -0.322582E+03  0.476E-02    0.65       0.0  T
   2   -322.5817419 -0.548138E-05  0.266E-02    0.65       1.0  T
   3   -322.5817287  0.131714E-04  0.889E-03    0.65       1.0  T
   4   -322.5817445 -0.157618E-04  0.187E-03    0.65       4.0  T
   5   -322.5817449 -0.415797E-06  0.991E-04    0.65       7.6  T
   6   -322.5817450 -0.729731E-07  0.451E-04    0.65      16.8  T
     SCC iter.                  ...        0 min,  0.181 sec
     gradient                   ...        0 min,  0.084 sec
 * total energy  :  -317.8208647 Eh     change       -0.8053217E-04 Eh
   gradient norm :     0.0074041 Eh/α   predicted    -0.1406880E-03 (  74.70%)
   displ. norm   :     0.0883796 α      lambda       -0.1882807E-03
   maximum displ.:     0.0231475 α      in ANC's #1, #4, #22, ...

........................................................................
.............................. CYCLE   46 ..............................
........................................................................
   1   -322.5821238 -0.322582E+03  0.523E-02    0.65       0.0  T
   2   -322.5821297 -0.593477E-05  0.289E-02    0.65       1.0  T
   3   -322.5821303 -0.609620E-06  0.310E-03    0.65       2.4  T
   4   -322.5821320 -0.172125E-05  0.110E-03    0.65       6.9  T
   5   -322.5821321 -0.503184E-07  0.588E-04    0.65      12.9  T
   6   -322.5821321 -0.513355E-07  0.197E-04    0.65      38.4  T
     SCC iter.                  ...        0 min,  0.187 sec
     gradient                   ...        0 min,  0.084 sec
 * total energy  :  -317.8209071 Eh     change       -0.4234764E-04 Eh
   gradient norm :     0.0050073 Eh/α   predicted    -0.9488062E-04 ( 124.05%)
   displ. norm   :     0.0615013 α      lambda       -0.1381617E-03
   maximum displ.:     0.0208391 α      in ANC's #1, #4, #6, ...

........................................................................
.............................. CYCLE   47 ..............................
........................................................................
   1   -322.5844330 -0.322584E+03  0.240E-02    0.65       0.0  T
   2   -322.5844345 -0.143579E-05  0.135E-02    0.65       1.0  T
   3   -322.5844302  0.429769E-05  0.473E-03    0.65       1.6  T
   4   -322.5844353 -0.511563E-05  0.784E-04    0.65       9.6  T
   5   -322.5844353 -0.504638E-07  0.423E-04    0.65      17.9  T
   6   -322.5844353 -0.115222E-07  0.220E-04    0.65      34.4  T
     SCC iter.                  ...        0 min,  0.181 sec
     gradient                   ...        0 min,  0.086 sec
 * total energy  :  -317.8209945 Eh     change       -0.8745763E-04 Eh
   gradient norm :     0.0019863 Eh/α   predicted    -0.6934305E-04 ( -20.71%)
   displ. norm   :     0.2209455 α      lambda       -0.8768929E-04
   maximum displ.:     0.0842513 α      in ANC's #1, #4, #5, ...

........................................................................
.............................. CYCLE   48 ..............................
........................................................................
   1   -322.5857512 -0.322586E+03  0.289E-02    0.65       0.0  T
   2   -322.5857524 -0.124338E-05  0.165E-02    0.65       1.0  T
   3   -322.5857447  0.769450E-05  0.595E-03    0.65       1.3  T
   4   -322.5857534 -0.866167E-05  0.115E-03    0.65       6.6  T
   5   -322.5857535 -0.116529E-06  0.626E-04    0.65      12.1  T
   6   -322.5857535 -0.176826E-07  0.294E-04    0.65      25.7  T
     SCC iter.                  ...        0 min,  0.181 sec
     gradient                   ...        0 min,  0.085 sec
 * total energy  :  -317.8210767 Eh     change       -0.8212945E-04 Eh
   gradient norm :     0.0031711 Eh/α   predicted    -0.4479623E-04 ( -45.46%)
   displ. norm   :     0.4310135 α      lambda       -0.2291646E-03
   maximum displ.:     0.1599249 α      in ANC's #1, #6, #4, ...

........................................................................
.............................. CYCLE   49 ..............................
........................................................................
   1   -322.5862274 -0.322586E+03  0.612E-02    0.65       0.0  T
   2   -322.5862345 -0.707735E-05  0.344E-02    0.64       1.0  T
   3   -322.5862207  0.138020E-04  0.841E-03    0.65       1.0  T
   4   -322.5862378 -0.170479E-04  0.227E-03    0.64       3.3  T
   5   -322.5862383 -0.499125E-06  0.129E-03    0.65       5.9  T
   6   -322.5862384 -0.123415E-06  0.566E-04    0.65      13.4  T
   7   -322.5862384 -0.446208E-07  0.284E-04    0.65      26.7  T
     SCC iter.                  ...        0 min,  0.210 sec
     gradient                   ...        0 min,  0.085 sec
 * total energy  :  -317.8211123 Eh     change       -0.3564612E-04 Eh
   gradient norm :     0.0067573 Eh/α   predicted    -0.1358687E-03 ( 281.16%)
   displ. norm   :     0.1741557 α      lambda       -0.2445070E-03
   maximum displ.:     0.0678959 α      in ANC's #1, #4, #5, ...

........................................................................
.............................. CYCLE   50 ..............................
........................................................................
   1   -322.5870343 -0.322587E+03  0.424E-02    0.65       0.0  T
   2   -322.5870381 -0.376809E-05  0.235E-02    0.64       1.0  T
   3   -322.5870352  0.292809E-05  0.466E-03    0.65       1.6  T
   4   -322.5870398 -0.461586E-05  0.110E-03    0.65       6.9  T
   5   -322.5870398 -0.326480E-07  0.642E-04    0.65      11.8  T
   6   -322.5870399 -0.516399E-07  0.255E-04    0.65      29.6  T
     SCC iter.                  ...        0 min,  0.184 sec
     gradient                   ...        0 min,  0.085 sec
 * total energy  :  -317.8212585 Eh     change       -0.1462216E-03 Eh
   gradient norm :     0.0043960 Eh/α   predicted    -0.1259619E-03 ( -13.86%)
   displ. norm   :     0.2348394 α      lambda       -0.2166725E-03
   maximum displ.:     0.0956612 α      in ANC's #1, #4, #5, ...

........................................................................
.............................. CYCLE   51 ..............................
........................................................................
   1   -322.5868116 -0.322587E+03  0.559E-02    0.65       0.0  T
   2   -322.5868187 -0.707147E-05  0.309E-02    0.65       1.0  T
   3   -322.5868177  0.993610E-06  0.443E-03    0.64       1.7  T
   4   -322.5868215 -0.377962E-05  0.140E-03    0.65       5.4  T
   5   -322.5868216 -0.116496E-06  0.827E-04    0.65       9.1  T
   6   -322.5868217 -0.773048E-07  0.314E-04    0.65      24.0  T
     SCC iter.                  ...        0 min,  0.191 sec
     gradient                   ...        0 min,  0.085 sec
 * total energy  :  -317.8213232 Eh     change       -0.6465362E-04 Eh
   gradient norm :     0.0051505 Eh/α   predicted    -0.1143129E-03 (  76.81%)
   displ. norm   :     0.2592281 α      lambda       -0.1449896E-03
   maximum displ.:     0.1057457 α      in ANC's #1, #4, #6, ...

........................................................................
.............................. CYCLE   52 ..............................
........................................................................
   1   -322.5867714 -0.322587E+03  0.257E-02    0.65       0.0  T
   2   -322.5867724 -0.996348E-06  0.146E-02    0.65       1.0  T
   3   -322.5867716  0.874582E-06  0.248E-03    0.65       3.1  T
   4   -322.5867728 -0.123451E-05  0.908E-04    0.65       8.3  T
   5   -322.5867729 -0.547893E-07  0.530E-04    0.65      14.3  T
   6   -322.5867729 -0.340044E-07  0.229E-04    0.65      33.0  T
     SCC iter.                  ...        0 min,  0.178 sec
     gradient                   ...        0 min,  0.084 sec
 * total energy  :  -317.8214356 Eh     change       -0.1123762E-03 Eh
   gradient norm :     0.0028178 Eh/α   predicted    -0.7736945E-04 ( -31.15%)
   displ. norm   :     0.4324987 α      lambda       -0.1650986E-03
   maximum displ.:     0.1848710 α      in ANC's #1, #4, #6, ...

........................................................................
.............................. CYCLE   53 ..............................
........................................................................
   1   -322.5865769 -0.322587E+03  0.290E-02    0.65       0.0  T
   2   -322.5865779 -0.103767E-05  0.167E-02    0.65       1.0  T
   3   -322.5865743  0.360676E-05  0.441E-03    0.65       1.7  T
   4   -322.5865783 -0.396411E-05  0.140E-03    0.65       5.4  T
   5   -322.5865785 -0.244629E-06  0.733E-04    0.65      10.3  T
   6   -322.5865785 -0.430883E-07  0.311E-04    0.65      24.3  T
     SCC iter.                  ...        0 min,  0.181 sec
     gradient                   ...        0 min,  0.084 sec
 * total energy  :  -317.8215684 Eh     change       -0.1328083E-03 Eh
   gradient norm :     0.0027145 Eh/α   predicted    -0.9799293E-04 ( -26.21%)
   displ. norm   :     0.5096678 α      lambda       -0.1704461E-03
   maximum displ.:     0.2249691 α      in ANC's #1, #4, #5, ...

........................................................................
.............................. CYCLE   54 ..............................
........................................................................
   1   -322.5862341 -0.322586E+03  0.305E-02    0.65       0.0  T
   2   -322.5862353 -0.117747E-05  0.176E-02    0.65       1.0  T
   3   -322.5862245  0.108313E-04  0.707E-03    0.64       1.1  T
   4   -322.5862361 -0.116638E-04  0.175E-03    0.65       4.3  T
   5   -322.5862366 -0.463678E-06  0.851E-04    0.65       8.9  T
   6   -322.5862366 -0.428530E-07  0.374E-04    0.65      20.2  T
     SCC iter.                  ...        0 min,  0.182 sec
     gradient                   ...        0 min,  0.085 sec
 * total energy  :  -317.8217126 Eh     change       -0.1442214E-03 Eh
   gradient norm :     0.0038079 Eh/α   predicted    -0.1073622E-03 ( -25.56%)
   displ. norm   :     0.5690890 α      lambda       -0.1910397E-03
   maximum displ.:     0.2576132 α      in ANC's #1, #4, #5, ...

........................................................................
.............................. CYCLE   55 ..............................
........................................................................
   1   -322.5857224 -0.322586E+03  0.339E-02    0.65       0.0  T
   2   -322.5857239 -0.142808E-05  0.194E-02    0.65       1.0  T
   3   -322.5857043  0.195496E-04  0.923E-03    0.64       1.0  T
   4   -322.5857257 -0.213844E-04  0.184E-03    0.65       4.1  T
   5   -322.5857261 -0.449830E-06  0.962E-04    0.65       7.9  T
   6   -322.5857262 -0.543331E-07  0.437E-04    0.65      17.3  T
     SCC iter.                  ...        0 min,  0.185 sec
     gradient                   ...        0 min,  0.085 sec
 * total energy  :  -317.8218778 Eh     change       -0.1651727E-03 Eh
   gradient norm :     0.0043367 Eh/α   predicted    -0.1264554E-03 ( -23.44%)
   displ. norm   :     0.5974433 α      lambda       -0.2058283E-03
   maximum displ.:     0.2771091 α      in ANC's #1, #5, #4, ...

........................................................................
.............................. CYCLE   56 ..............................
........................................................................
   1   -322.5854074 -0.322585E+03  0.355E-02    0.65       0.0  T
   2   -322.5854089 -0.149451E-05  0.203E-02    0.65       1.0  T
   3   -322.5853842  0.247125E-04  0.101E-02    0.64       1.0  T
   4   -322.5854114 -0.272271E-04  0.172E-03    0.65       4.4  T
   5   -322.5854117 -0.302261E-06  0.972E-04    0.65       7.8  T
   6   -322.5854117 -0.638899E-07  0.435E-04    0.65      17.4  T
     SCC iter.                  ...        0 min,  0.184 sec
     gradient                   ...        0 min,  0.085 sec
 * total energy  :  -317.8220566 Eh     change       -0.1788123E-03 Eh
   gradient norm :     0.0041630 Eh/α   predicted    -0.1396504E-03 ( -21.90%)
   displ. norm   :     0.6183102 α      lambda       -0.2125766E-03
   maximum displ.:     0.2931070 α      in ANC's #1, #5, #4, ...

........................................................................
.............................. CYCLE   57 ..............................
........................................................................
   1   -322.5854785 -0.322585E+03  0.344E-02    0.65       0.0  T
   2   -322.5854799 -0.139295E-05  0.197E-02    0.65       1.0  T
   3   -322.5854571  0.227861E-04  0.961E-03    0.65       1.0  T
   4   -322.5854822 -0.250866E-04  0.163E-03    0.65       4.6  T
   5   -322.5854824 -0.264627E-06  0.918E-04    0.65       8.2  T
   6   -322.5854825 -0.653343E-07  0.401E-04    0.65      18.9  T
     SCC iter.                  ...        0 min,  0.185 sec
     gradient                   ...        0 min,  0.086 sec
 * total energy  :  -317.8222423 Eh     change       -0.1857619E-03 Eh
   gradient norm :     0.0036629 Eh/α   predicted    -0.1469289E-03 ( -20.90%)
   displ. norm   :     0.6356253 α      lambda       -0.2170241E-03
   maximum displ.:     0.3069210 α      in ANC's #1, #5, #4, ...

........................................................................
.............................. CYCLE   58 ..............................
........................................................................
   1   -322.5860848 -0.322586E+03  0.327E-02    0.65       0.0  T
   2   -322.5860861 -0.134856E-05  0.188E-02    0.65       1.0  T
   3   -322.5860692  0.169739E-04  0.842E-03    0.65       1.0  T
   4   -322.5860877 -0.185307E-04  0.173E-03    0.65       4.4  T
   5   -322.5860881 -0.432042E-06  0.867E-04    0.65       8.7  T
   6   -322.5860882 -0.550176E-07  0.378E-04    0.65      20.0  T
     SCC iter.                  ...        0 min,  0.180 sec
     gradient                   ...        0 min,  0.085 sec
 * total energy  :  -317.8224329 Eh     change       -0.1905900E-03 Eh
   gradient norm :     0.0034674 Eh/α   predicted    -0.1523542E-03 ( -20.06%)
   displ. norm   :     0.6575332 α      lambda       -0.2216290E-03
   maximum displ.:     0.3224049 α      in ANC's #1, #5, #4, ...

........................................................................
.............................. CYCLE   59 ..............................
........................................................................
   1   -322.5867838 -0.322587E+03  0.325E-02    0.65       0.0  T
   2   -322.5867852 -0.142974E-05  0.187E-02    0.65       1.0  T
   3   -322.5867749  0.102885E-04  0.695E-03    0.65       1.1  T
   4   -322.5867860 -0.110618E-04  0.183E-03    0.65       4.1  T
   5   -322.5867866 -0.582759E-06  0.875E-04    0.65       8.6  T
   6   -322.5867866 -0.639441E-07  0.355E-04    0.65      21.3  T
     SCC iter.                  ...        0 min,  0.185 sec
     gradient                   ...        0 min,  0.084 sec
 * total energy  :  -317.8226285 Eh     change       -0.1955815E-03 Eh
   gradient norm :     0.0038238 Eh/α   predicted    -0.1587277E-03 ( -18.84%)
   displ. norm   :     0.6732493 α      lambda       -0.2230522E-03
   maximum displ.:     0.3353311 α      in ANC's #1, #5, #4, ...

........................................................................
.............................. CYCLE   60 ..............................
........................................................................
   1   -322.5875050 -0.322588E+03  0.338E-02    0.65       0.0  T
   2   -322.5875065 -0.153005E-05  0.195E-02    0.65       1.0  T
   3   -322.5875007  0.585033E-05  0.587E-03    0.65       1.3  T
[...]
    93   6 C    3.954 --    92 N    1.511    96 C    1.223    94 C    1.013
    94   6 C    3.992 --    93 C    1.013    95 C    0.991   163 H    0.969
                           164 H    0.967
    95   6 C    3.990 --    94 C    0.991   166 H    0.988   167 H    0.987
                           165 H    0.984
    96   6 C    3.958 --    97 N    1.516    93 C    1.223    99 C    1.013
    97   7 N    3.068 --    96 C    1.516    98 C    1.308
    98   6 C    3.977 --    97 N    1.308    91 C    1.248    85 C    1.185
    99   6 C    3.993 --    96 C    1.013   100 C    0.993   169 H    0.972
                           168 H    0.964
   100   6 C    3.989 --    99 C    0.993   170 H    0.985   171 H    0.984
                           172 H    0.980
   101   6 C    3.937 --   102 C    1.601    90 C    1.176   173 H    0.939
   102   6 C    3.937 --   101 C    1.601   113 C    1.130   103 C    0.998
   103   6 C    3.927 --   104 O    1.797   105 C    1.017   102 C    0.998
   104   8 O    2.080 --   103 C    1.797
   105   6 C    3.974 --   111 C    1.377   106 C    1.288   103 C    1.017
   106   6 C    3.984 --   107 C    1.400   105 C    1.288   113 C    1.080
   107   6 C    3.977 --   108 C    1.423   106 C    1.400   174 H    0.958
   108   6 C    3.978 --   107 C    1.423   109 C    1.412   175 H    0.964
   109   6 C    3.934 --   108 C    1.412   111 C    1.332   110 Br   1.013
   110  35 Br   1.164 --   109 C    1.013
   111   6 C    3.932 --   105 C    1.377   109 C    1.332   112 Cl   1.037
   112  17 Cl   1.226 --   111 C    1.037
   113   6 C    3.974 --   114 C    1.494   102 C    1.130   106 C    1.080
   114   6 C    3.962 --   113 C    1.494   115 C    1.102   117 C    1.092
   115   6 C    3.945 --   116 N    2.762   114 C    1.102
   116   7 N    2.979 --   115 C    2.762
   117   6 C    3.947 --   118 N    2.775   114 C    1.092
   118   7 N    2.974 --   117 C    2.775
   119   1 H    0.989 --     1 C    0.937
   120   1 H    0.995 --     6 C    0.963
   121   1 H    0.996 --     8 C    0.966
   122   1 H    0.995 --     9 C    0.966
   123   1 H    0.995 --    12 C    0.963
   124   1 H    0.995 --    14 C    0.957
   125   1 H    0.997 --    31 C    0.971
   126   1 H    0.995 --    31 C    0.966
   127   1 H    0.997 --    32 C    0.987
   128   1 H    0.997 --    32 C    0.985
   129   1 H    0.998 --    32 C    0.988
   130   1 H    0.996 --    36 C    0.969
   131   1 H    0.995 --    36 C    0.969
   132   1 H    0.998 --    37 C    0.988
   133   1 H    0.999 --    37 C    0.987
   134   1 H    0.996 --    37 C    0.984
   135   1 H    0.999 --    41 C    0.970
   136   1 H    0.998 --    42 C    0.970
   137   1 H    0.998 --    43 C    0.969
   138   1 H    0.998 --    45 C    0.972
   139   1 H    0.998 --    45 C    0.975
   140   1 H    0.998 --    46 C    0.987
   141   1 H    0.998 --    46 C    0.986
   142   1 H    0.999 --    46 C    0.989
   143   1 H    0.998 --    47 C    0.965
   144   1 H    0.997 --    63 C    0.962
   145   1 H    0.997 --    64 C    0.970
   146   1 H    0.998 --    65 C    0.969
   147   1 H    0.998 --    67 C    0.974
   148   1 H    0.996 --    67 C    0.970
   149   1 H    0.999 --    68 C    0.987
   150   1 H    0.998 --    68 C    0.986
   151   1 H    0.999 --    68 C    0.988
   152   1 H    0.998 --    69 C    0.962
   153   1 H    0.995 --    81 C    0.956
   154   1 H    0.994 --    81 C    0.961
   155   1 H    0.997 --    82 C    0.983
   156   1 H    0.996 --    82 C    0.984
   157   1 H    0.997 --    82 C    0.986
   158   1 H    0.995 --    83 C    0.963
   159   1 H    0.995 --    83 C    0.956
   160   1 H    0.997 --    84 C    0.986
   161   1 H    0.996 --    84 C    0.983
   162   1 H    0.997 --    84 C    0.982
   163   1 H    0.995 --    94 C    0.969
   164   1 H    0.996 --    94 C    0.967
   165   1 H    0.996 --    95 C    0.984
   166   1 H    0.998 --    95 C    0.988
   167   1 H    0.999 --    95 C    0.987
   168   1 H    0.996 --    99 C    0.964
   169   1 H    0.996 --    99 C    0.972
   170   1 H    0.997 --   100 C    0.985
   171   1 H    0.999 --   100 C    0.984
   172   1 H    0.998 --   100 C    0.980
   173   1 H    0.986 --   101 C    0.939
   174   1 H    0.993 --   107 C    0.958
   175   1 H    0.993 --   108 C    0.964
 ---------------------------------------------------------------------------

Topologies differ in bond orders
Writing corrected topology to xtbtopo.mol

molecular dipole:
                 x           y           z       tot (Debye)
 q only:       -0.782      -1.499       0.012
   full:       -1.077      -1.141       0.016       3.989
molecular quadrupole (traceless):
                xx          xy          yy          xz          yz          zz
 q only:       64.072      11.853      13.645      39.853     133.179     -77.716
  q+dip:       89.018      42.674      14.340      31.738     131.333    -103.358
   full:       88.151      41.538      17.093      31.878     136.002    -105.244

           -------------------------------------------------
          |                Geometry Summary                 |
           -------------------------------------------------

      molecular mass/u    :     1733.1919921
   center of mass at/Å    :       -0.1202526      -0.0186946       0.5512585
  moments of inertia/u·Å² :        0.3112998E+05   0.1857972E+06   0.2047986E+06
rotational constants/cm⁻¹ :        0.5415240E-03   0.9073138E-04   0.8231324E-04

 * 167 selected distances

     #   Z          #   Z                                           value/Å
     1   6 C        2   6 C                                       1.3569221
     3   6 C        4   8 O                                       1.2100326
     5   6 C        6   6 C                                       1.3649234
     6   6 C        7   6 C                                       1.4124536
     7   6 C        8   6 C                                       1.4099072
     8   6 C        9   6 C                                       1.3670974
     9   6 C       10   6 C                                       1.4017139
    10   6 C       12   6 C                                       1.3668382
     7   6 C       13   6 C                                       1.4254192
    12   6 C       13   6 C                                       1.4088454
    13   6 C       14   6 C                                       1.4136754
     5   6 C       15   6 C                                       1.4235555
    14   6 C       15   6 C                                       1.3703463
    16   6 C       17   6 C                                       1.3699029
    18   6 C       19   7 N                                       1.1484700
    20   6 C       21   7 N                                       1.1480301
    22   6 C       23   6 C                                       1.3889902
    23   6 C       24   9 F                                       1.3380092
    23   6 C       25   6 C                                       1.3983754
    25   6 C       27   6 C                                       1.3920402
    27   6 C       28   6 C                                       1.4312462
    28   6 C       29   7 N                                       1.3350214
    29   7 N       30   6 C                                       1.3111476
    31   6 C       32   6 C                                       1.5306540
    30   6 C       33   6 C                                       1.4209973
    33   6 C       34   7 N                                       1.3118688
    22   6 C       35   6 C                                       1.4241963
    28   6 C       35   6 C                                       1.4132861
    34   7 N       35   6 C                                       1.3416430
    36   6 C       37   6 C                                       1.5310370
    27   6 C       38   6 C                                       1.4288649
    38   6 C       39   6 C                                       1.3920976
    40   6 C       41   6 C                                       1.3932766
    41   6 C       42   6 C                                       1.3805633
    42   6 C       43   6 C                                       1.3845794
    43   6 C       44   6 C                                       1.3885973
    45   6 C       46   6 C                                       1.5302227
    40   6 C       47   6 C                                       1.3897677
    44   6 C       47   6 C                                       1.3862713
    39   6 C       48   6 C                                       1.4051412
    48   6 C       49  16 S                                       1.7524968
    49  16 S       50   6 C                                       1.7314359
    50   6 C       51   6 C                                       1.4025161
    51   6 C       52   6 C                                       1.4124818
    52   6 C       53   6 C                                       1.4344239
    53   6 C       54   7 N                                       1.3237177
    54   7 N       55  16 S                                       1.6191859
    52   6 C       56   7 N                                       1.3235629
    55  16 S       56   7 N                                       1.6191111
    53   6 C       57   6 C                                       1.4120730
    57   6 C       58   6 C                                       1.4034858
    58   6 C       59  16 S                                       1.7299456
    59  16 S       60   6 C                                       1.7501241
    60   6 C       61   6 C                                       1.4122528
    62   6 C       63   6 C                                       1.3937421
    63   6 C       64   6 C                                       1.3815003
    64   6 C       65   6 C                                       1.3845402
    65   6 C       66   6 C                                       1.3898770
    67   6 C       68   6 C                                       1.5304305
    62   6 C       69   6 C                                       1.3931631
    66   6 C       69   6 C                                       1.3858867
    61   6 C       70   6 C                                       1.3848142
    70   6 C       71  16 S                                       1.7527396
    60   6 C       72   6 C                                       1.3974116
    71  16 S       72   6 C                                       1.7230026
    58   6 C       73   6 C                                       1.3966558
    72   6 C       73   6 C                                       1.3994892
    73   6 C       74   7 N                                       1.3691541
    57   6 C       75   6 C                                       1.4244102
    74   7 N       75   6 C                                       1.3871065
    51   6 C       76   6 C                                       1.4260620
    75   6 C       76   6 C                                       1.4192000
    76   6 C       77   7 N                                       1.3840686
    50   6 C       78   6 C                                       1.3985182
    77   7 N       78   6 C                                       1.3678578
    48   6 C       79   6 C                                       1.3964803
    78   6 C       79   6 C                                       1.3988348
    38   6 C       80  16 S                                       1.7571164
    79   6 C       80  16 S                                       1.7315183
    77   7 N       81   6 C                                       1.4445096
    81   6 C       82   6 C                                       1.5265998
    74   7 N       83   6 C                                       1.4470783
    83   6 C       84   6 C                                       1.5262308
    85   6 C       86   6 C                                       1.3862768
    86   6 C       88   6 C                                       1.3945860
    88   6 C       90   6 C                                       1.3875167
    90   6 C       91   6 C                                       1.4287332
    91   6 C       92   7 N                                       1.3422095
    92   7 N       93   6 C                                       1.3105197
    94   6 C       95   6 C                                       1.5319359
    93   6 C       96   6 C                                       1.4245281
    96   6 C       97   7 N                                       1.3101099
    85   6 C       98   6 C                                       1.4279412
    91   6 C       98   6 C                                       1.4143436
    97   7 N       98   6 C                                       1.3428371
    99   6 C      100   6 C                                       1.5303586
    90   6 C      101   6 C                                       1.4301505
   101   6 C      102   6 C                                       1.3566850
   103   6 C      104   8 O                                       1.2062646
   105   6 C      106   6 C                                       1.4082930
   106   6 C      107   6 C                                       1.3851742
   107   6 C      108   6 C                                       1.3868476
   108   6 C      109   6 C                                       1.3870325
   109   6 C      110  35 Br                                      1.8888470 (max)
   105   6 C      111   6 C                                       1.3863717
   109   6 C      111   6 C                                       1.3997291
   111   6 C      112  17 Cl                                      1.7107278
   113   6 C      114   6 C                                       1.3690295
   115   6 C      116   7 N                                       1.1479569
   117   6 C      118   7 N                                       1.1472302
     1   6 C      119   1 H                                       1.0821981
     6   6 C      120   1 H                                       1.0796884
     8   6 C      121   1 H                                       1.0796098
     9   6 C      122   1 H                                       1.0784708
    12   6 C      123   1 H                                       1.0788553
    14   6 C      124   1 H                                       1.0780962
    31   6 C      125   1 H                                       1.0886527
    31   6 C      126   1 H                                       1.0911899
    32   6 C      127   1 H                                       1.0868258
    32   6 C      128   1 H                                       1.0870145
    32   6 C      129   1 H                                       1.0878402
    36   6 C      130   1 H                                       1.0901817
    36   6 C      131   1 H                                       1.0904271
    37   6 C      132   1 H                                       1.0869925
    37   6 C      133   1 H                                       1.0881036
    37   6 C      134   1 H                                       1.0868863
    41   6 C      135   1 H                                       1.0812608
    42   6 C      136   1 H                                       1.0802212
    43   6 C      137   1 H                                       1.0804758
    45   6 C      138   1 H                                       1.0917733
    45   6 C      139   1 H                                       1.0914856
    46   6 C      140   1 H                                       1.0876703
    46   6 C      141   1 H                                       1.0874609
    46   6 C      142   1 H                                       1.0877909
    47   6 C      143   1 H                                       1.0802274
    63   6 C      144   1 H                                       1.0785244
    64   6 C      145   1 H                                       1.0802966
    65   6 C      146   1 H                                       1.0808011
    67   6 C      147   1 H                                       1.0917153
    67   6 C      148   1 H                                       1.0898821
    68   6 C      149   1 H                                       1.0878273
    68   6 C      150   1 H                                       1.0871632
    68   6 C      151   1 H                                       1.0886226
    69   6 C      152   1 H                                       1.0799015
    81   6 C      153   1 H                                       1.0899717
    81   6 C      154   1 H                                       1.0927464
    82   6 C      155   1 H                                       1.0874044
    82   6 C      156   1 H                                       1.0866281
    82   6 C      157   1 H                                       1.0873282
    83   6 C      158   1 H                                       1.0928180
    83   6 C      159   1 H                                       1.0909758
    84   6 C      160   1 H                                       1.0875118
    84   6 C      161   1 H                                       1.0866669
    84   6 C      162   1 H                                       1.0874213
    94   6 C      163   1 H                                       1.0904095
    94   6 C      164   1 H                                       1.0883033
    95   6 C      165   1 H                                       1.0868351
    95   6 C      166   1 H                                       1.0869795
    95   6 C      167   1 H                                       1.0881826
    99   6 C      168   1 H                                       1.0910220
    99   6 C      169   1 H                                       1.0903675
   100   6 C      170   1 H                                       1.0870685
   100   6 C      171   1 H                                       1.0874768
   100   6 C      172   1 H                                       1.0862917
   101   6 C      173   1 H                                       1.0860704
   107   6 C      174   1 H                                       1.0773339 (min)
   108   6 C      175   1 H                                       1.0791519

 * 9 distinct bonds (by element types)

   Z      Z             #   av. dist./Å        max./Å        min./Å
   1 H    6 C          57     1.0861245     1.0928180     1.0773339
   6 C    6 C          75     1.4129122     1.5319359     1.3566850
   6 C    7 N          20     1.3122050     1.4470783     1.1472302
   6 C    8 O           2     1.2081486     1.2100326     1.2062646
   6 C    9 F           1     1.3380092     1.3380092     1.3380092
   6 C   16 S           8     1.7410474     1.7571164     1.7230026
   7 N   16 S           2     1.6191485     1.6191859     1.6191111
   6 C   17 Cl          1     1.7107278     1.7107278     1.7107278
   6 C   35 Br          1     1.8888470     1.8888470     1.8888470


optimized geometry written to: xtbopt.mol


           -------------------------------------------------
          | TOTAL ENERGY             -317.834526632105 Eh   |
          | GRADIENT NORM               0.000462322010 Eh/α |
          | HOMO-LUMO GAP               0.630212155698 eV   |
           -------------------------------------------------

------------------------------------------------------------------------
 * finished run on 2022/02/05 at 16:18:52.603     
------------------------------------------------------------------------
 total:
 * wall-time:     0 d,  0 h,  1 min, 31.059 sec
 *  cpu-time:     0 d,  0 h, 12 min,  8.318 sec
 * ratio c/w:     7.998 speedup
 SCF:
 * wall-time:     0 d,  0 h,  0 min,  0.645 sec
 *  cpu-time:     0 d,  0 h,  0 min,  5.146 sec
 * ratio c/w:     7.983 speedup
 ANC optimizer:
 * wall-time:     0 d,  0 h,  1 min, 30.313 sec
 *  cpu-time:     0 d,  0 h, 12 min,  2.470 sec
 * ratio c/w:     8.000 speedup

