      -----------------------------------------------------------      
     |                   =====================                   |     
     |                           x T B                           |     
     |                   =====================                   |     
     |                         S. Grimme                         |     
     |          Mulliken Center for Theoretical Chemistry        |     
     |                    University of Bonn                     |     
      -----------------------------------------------------------      

   * xtb version 6.4.1 (unknown) compiled by 'oda6@login1.crc.pitt.edu' on 2021-06-25

   xtb is free software: you can redistribute it and/or modify it under
   the terms of the GNU Lesser General Public License as published by
   the Free Software Foundation, either version 3 of the License, or
   (at your option) any later version.
   
   xtb is distributed in the hope that it will be useful,
   but WITHOUT ANY WARRANTY; without even the implied warranty of
   MERCHANTABILITY or FITNESS FOR A PARTICULAR PURPOSE.  See the
   GNU Lesser General Public License for more details.
   
   Cite this work as:
   * C. Bannwarth, E. Caldeweyher, S. Ehlert, A. Hansen, P. Pracht,
     J. Seibert, S. Spicher, S. Grimme, WIREs Comput. Mol. Sci., 2020, 11,
     e01493. DOI: 10.1002/wcms.1493
   
   for GFN2-xTB:
   * C. Bannwarth, S. Ehlert and S. Grimme., J. Chem. Theory Comput., 2019,
     15, 1652-1671. DOI: 10.1021/acs.jctc.8b01176
   for GFN1-xTB:
   * S. Grimme, C. Bannwarth, P. Shushkov, J. Chem. Theory Comput., 2017,
     13, 1989-2009. DOI: 10.1021/acs.jctc.7b00118
   for GFN0-xTB:
   * P. Pracht, E. Caldeweyher, S. Ehlert, S. Grimme, ChemRxiv, 2019, preprint.
     DOI: 10.26434/chemrxiv.8326202.v1
   for GFN-FF:
   * S. Spicher and S. Grimme, Angew. Chem. Int. Ed., 2020, 59, 15665-15673.
     DOI: 10.1002/anie.202004239
   
   for DFT-D4:
   * E. Caldeweyher, C. Bannwarth and S. Grimme, J. Chem. Phys., 2017,
     147, 034112. DOI: 10.1063/1.4993215
   * E. Caldeweyher, S. Ehlert, A. Hansen, H. Neugebauer, S. Spicher,
     C. Bannwarth and S. Grimme, J. Chem. Phys., 2019, 150, 154122.
     DOI: 10.1063/1.5090222
   * E. Caldeweyher, J.-M. Mewes, S. Ehlert and S. Grimme, Phys. Chem. Chem. Phys.
     2020, 22, 8499-8512. DOI: 10.1039/D0CP00502A
   
   for sTDA-xTB:
   * S. Grimme and C. Bannwarth, J. Chem. Phys., 2016, 145, 054103.
     DOI: 10.1063/1.4959605
   
   in the mass-spec context:
   * V. Asgeirsson, C. Bauer and S. Grimme, Chem. Sci., 2017, 8, 4879.
     DOI: 10.1039/c7sc00601b
   * J. Koopman and S. Grimme, ACS Omega 2019, 4, 12, 15120-15133.
     DOI: 10.1021/acsomega.9b02011
   
   for metadynamics refer to:
   * S. Grimme, J. Chem. Theory Comput., 2019, 155, 2847-2862
     DOI: 10.1021/acs.jctc.9b00143
   
   for SPH calculations refer to:
   * S. Spicher and S. Grimme, J. Chem. Theory Comput., 2021, 17, 1701-1714
     DOI: 10.1021/acs.jctc.0c01306
   
   with help from (in alphabetical order)
   P. Atkinson, C. Bannwarth, F. Bohle, G. Brandenburg, E. Caldeweyher
   M. Checinski, S. Dohm, S. Ehlert, S. Ehrlich, I. Gerasimov, J. Koopman
   C. Lavigne, S. Lehtola, F. März, M. Müller, F. Musil, H. Neugebauer
   J. Pisarek, C. Plett, P. Pracht, J. Seibert, P. Shushkov, S. Spicher
   M. Stahn, M. Steiner, T. Strunk, J. Stückrath, T. Rose, and J. Unsleber
   
 * started run on 2022/02/05 at 08:23:28.626     

           -------------------------------------------------
          |                Calculation Setup                |
           -------------------------------------------------

          program call               : /ihome/ghutchison/oda6/xtb/xtb-641/bin/xtb ../../FF_optimized/9_15_86_127_9.mol -opt
          hostname                   : smp-n29
          coordinate file            : ../../FF_optimized/9_15_86_127_9.mol
          omp threads                :                     8
          number of atoms            :                   175
          number of electrons        :                   570
          charge                     :                     0
          spin                       :                   0.0
          first test random number   :      0.79797209465300

   ID    Z sym.   atoms
    1    6 C      1-3, 5-10, 12-18, 20, 22-25, 27-46, 48-51, 55, 56, 58-68,
                  70, 71, 73, 74, 76, 77, 79-84, 86, 88, 89, 91-94, 96-101,
                  103-108, 110-116, 118
    2    8 O      4, 26, 102
    3    9 F      11, 85, 87, 109
    4    7 N      19, 21, 52, 54, 72, 75, 90, 95, 117, 119
    5   16 S      47, 53, 57, 69, 78
    6    1 H      120-175
########################################################################
[WARNING] Please study the warnings concerning your input carefully
-1- prog_main_parseArguments: the use of '-opt' is discouraged, please use '--opt' next time
########################################################################

           -------------------------------------------------
          |                 G F N 2 - x T B                 |
           -------------------------------------------------

        Reference                      10.1021/acs.jctc.8b01176
      * Hamiltonian:
        H0-scaling (s, p, d)           1.850000    2.230000    2.230000
        zeta-weighting                 0.500000
      * Dispersion:
        s8                             2.700000
        a1                             0.520000
        a2                             5.000000
        s9                             5.000000
      * Repulsion:
        kExp                           1.500000    1.000000
        rExp                           1.000000
      * Coulomb:
        alpha                          2.000000
        third order                    shell-resolved
        anisotropic                    true
        a3                             3.000000
        a5                             4.000000
        cn-shift                       1.200000
        cn-exp                         4.000000
        max-rad                        5.000000


          ...................................................
          :                      SETUP                      :
          :.................................................:
          :  # basis functions                 562          :
          :  # atomic orbitals                 557          :
          :  # shells                          299          :
          :  # electrons                       570          :
          :  max. iterations                   250          :
          :  Hamiltonian                  GFN2-xTB          :
          :  restarted?                      false          :
          :  GBSA solvation                  false          :
          :  PC potential                    false          :
          :  electronic temp.          300.0000000     K    :
          :  accuracy                    1.0000000          :
          :  -> integral cutoff          0.2500000E+02      :
          :  -> integral neglect         0.1000000E-07      :
          :  -> SCF convergence          0.1000000E-05 Eh   :
          :  -> wf. convergence          0.1000000E-03 e    :
          :  Broyden damping             0.4000000          :
          ...................................................

 iter      E             dE          RMSdq      gap      omega  full diag
   1   -316.9759139 -0.316976E+03  0.471E+00    1.11       0.0  T
   2   -317.2355834 -0.259669E+00  0.292E+00    0.68       1.0  T
   3   -317.0632568  0.172327E+00  0.194E+00    0.57       1.0  T
   4   -317.4067605 -0.343504E+00  0.721E-01    0.63       1.0  T
   5   -317.4819974 -0.752369E-01  0.203E-01    0.39       1.0  T
   6   -317.4861196 -0.412222E-02  0.975E-02    0.46       1.0  T
   7   -317.4869489 -0.829290E-03  0.417E-02    0.47       1.0  T
   8   -317.4871406 -0.191722E-03  0.181E-02    0.47       1.0  T
   9   -317.4871640 -0.233466E-04  0.925E-03    0.47       1.0  T
  10   -317.4871719 -0.795403E-05  0.398E-03    0.47       1.9  T
  11   -317.4871728 -0.888389E-06  0.203E-03    0.47       3.7  T
  12   -317.4871733 -0.494043E-06  0.895E-04    0.47       8.4  T
  13   -317.4871734 -0.501819E-07  0.432E-04    0.47      17.5  T

   *** convergence criteria satisfied after 13 iterations ***

         #    Occupation            Energy/Eh            Energy/eV
      -------------------------------------------------------------
         1        2.0000           -0.8440955             -22.9690
       ...           ...                  ...                  ...
       279        2.0000           -0.3935247             -10.7084
       280        2.0000           -0.3909586             -10.6385
       281        2.0000           -0.3806414             -10.3578
       282        2.0000           -0.3737942             -10.1715
       283        2.0000           -0.3695848             -10.0569
       284        2.0000           -0.3660744              -9.9614
       285        1.9997           -0.3576229              -9.7314 (HOMO)
       286        0.0002           -0.3405270              -9.2662 (LUMO)
       287        0.0000           -0.3382548              -9.2044
       288                         -0.3284238              -8.9369
       289                         -0.3260613              -8.8726
       290                         -0.3177738              -8.6471
       ...                                ...                  ...
       557                          1.0744147              29.2363
      -------------------------------------------------------------
                  HL-Gap            0.0170959 Eh            0.4652 eV
             Fermi-level           -0.3491164 Eh           -9.4999 eV

 SCC (total)                   0 d,  0 h,  0 min,  0.528 sec
 SCC setup                      ...        0 min,  0.003 sec (  0.477%)
 Dispersion                     ...        0 min,  0.008 sec (  1.455%)
 classical contributions        ...        0 min,  0.000 sec (  0.053%)
 integral evaluation            ...        0 min,  0.026 sec (  4.981%)
 iterations                     ...        0 min,  0.399 sec ( 75.593%)
 molecular gradient             ...        0 min,  0.090 sec ( 16.971%)
 printout                       ...        0 min,  0.002 sec (  0.455%)

         :::::::::::::::::::::::::::::::::::::::::::::::::::::
         ::                     SUMMARY                     ::
         :::::::::::::::::::::::::::::::::::::::::::::::::::::
         :: total energy            -312.700430423623 Eh    ::
         :: gradient norm              0.330617183788 Eh/a0 ::
         :: HOMO-LUMO gap              0.465201890411 eV    ::
         ::.................................................::
         :: SCC energy              -317.487173380854 Eh    ::
         :: -> isotropic ES            0.204331207241 Eh    ::
         :: -> anisotropic ES          0.014354708122 Eh    ::
         :: -> anisotropic XC          0.185360326576 Eh    ::
         :: -> dispersion             -0.273397568048 Eh    ::
         :: repulsion energy           4.785207978404 Eh    ::
         :: add. restraining           0.000000000000 Eh    ::
         :: total charge               0.000000000003 e     ::
         :::::::::::::::::::::::::::::::::::::::::::::::::::::

      ----------------------------------------------------------- 
     |                   =====================                   |
     |                        A N C O P T                        |
     |                   =====================                   |
     |               Approximate Normal Coordinate               |
     |                Rational Function Optimizer                |
      ----------------------------------------------------------- 

          ...................................................
          :                      SETUP                      :
          :.................................................:
          :   optimization level            normal          :
          :   max. optcycles                   525          :
          :   ANC micro-cycles                  20          :
          :   degrees of freedom               519          :
          :.................................................:
          :   RF solver                   davidson          :
          :   write xtbopt.log                true          :
          :   linear?                        false          :
          :   energy convergence         0.5000000E-05 Eh   :
          :   grad. convergence          0.1000000E-02 Eh/α :
          :   maximium RF displ.         1.0000000          :
          :   Hlow (freq-cutoff)         0.1000000E-01      :
          :   Hmax (freq-cutoff)         5.0000000          :
          :   S6 in model hess.         20.0000000          :
          ...................................................

generating ANC from model Hessian ...
Using Lindh-Hessian (1995)
 Shifting diagonal of input Hessian by   9.997266634328161E-003
 Lowest  eigenvalues of input Hessian
    0.000000    0.000000    0.000000    0.000000    0.000000    0.000000
    0.010000    0.010003    0.010006    0.010012    0.010043    0.010060
    0.010064    0.010093    0.010117    0.010140    0.010176    0.010194
 Highest eigenvalues
    2.264775    2.328280    2.502541    2.504448    2.558214    2.558770
 

........................................................................
.............................. CYCLE    1 ..............................
........................................................................
   1   -317.4871734 -0.317487E+03  0.215E-04    0.47       0.0  T
   2   -317.4871734 -0.116586E-09  0.168E-04    0.47      44.9  T
   3   -317.4871734 -0.291317E-08  0.100E-04    0.47      75.2  T
     SCC iter.                  ...        0 min,  0.093 sec
     gradient                   ...        0 min,  0.089 sec
 * total energy  :  -312.7004304 Eh     change       -0.1328550E-07 Eh
   gradient norm :     0.3306191 Eh/α   predicted     0.0000000E+00 (-100.00%)
   displ. norm   :     0.4678267 α      lambda       -0.1103807E+00
   maximum displ.:     0.1103634 α      in ANC's #297, #321, #349, ...

........................................................................
.............................. CYCLE    2 ..............................
........................................................................
   1   -317.6858068 -0.317686E+03  0.267E-01    0.48       0.0  T
   2   -317.6873050 -0.149817E-02  0.158E-01    0.45       1.0  T
   3   -317.6868599  0.445053E-03  0.870E-02    0.47       1.0  T
   4   -317.6874948 -0.634873E-03  0.422E-02    0.45       1.0  T
   5   -317.6877155 -0.220698E-03  0.168E-02    0.45       1.0  T
   6   -317.6877429 -0.273769E-04  0.731E-03    0.45       1.0  T
   7   -317.6877472 -0.428147E-05  0.290E-03    0.45       2.6  T
   8   -317.6877479 -0.732555E-06  0.153E-03    0.45       5.0  T
   9   -317.6877480 -0.852123E-07  0.764E-04    0.45       9.9  T
  10   -317.6877480 -0.676226E-07  0.259E-04    0.45      29.1  T
     SCC iter.                  ...        0 min,  0.298 sec
     gradient                   ...        0 min,  0.090 sec
 * total energy  :  -312.7805890 Eh     change       -0.8015854E-01 Eh
   gradient norm :     0.1508040 Eh/α   predicted    -0.6731689E-01 ( -16.02%)
   displ. norm   :     0.4591996 α      lambda       -0.4347469E-01
   maximum displ.:     0.0897337 α      in ANC's #122, #173, #297, ...

........................................................................
.............................. CYCLE    3 ..............................
........................................................................
   1   -317.8019825 -0.317802E+03  0.215E-01    0.44       0.0  T
   2   -317.8028166 -0.834161E-03  0.126E-01    0.43       1.0  T
   3   -317.8024215  0.395130E-03  0.694E-02    0.45       1.0  T
   4   -317.8029466 -0.525040E-03  0.315E-02    0.43       1.0  T
   5   -317.8030666 -0.120070E-03  0.121E-02    0.43       1.0  T
   6   -317.8030812 -0.146180E-04  0.541E-03    0.43       1.4  T
   7   -317.8030834 -0.212652E-05  0.247E-03    0.43       3.1  T
   8   -317.8030840 -0.633317E-06  0.116E-03    0.43       6.5  T
   9   -317.8030841 -0.542178E-07  0.579E-04    0.43      13.0  T
  10   -317.8030841 -0.327455E-07  0.216E-04    0.43      35.0  T
     SCC iter.                  ...        0 min,  0.292 sec
     gradient                   ...        0 min,  0.089 sec
 * total energy  :  -312.8067616 Eh     change       -0.2617265E-01 Eh
   gradient norm :     0.0395920 Eh/α   predicted    -0.2632098E-01 (   0.57%)
   displ. norm   :     0.4528234 α      lambda       -0.9364610E-02
   maximum displ.:     0.1037837 α      in ANC's #64, #58, #61, ...

........................................................................
.............................. CYCLE    4 ..............................
........................................................................
   1   -317.8259094 -0.317826E+03  0.154E-01    0.44       0.0  T
   2   -317.8259594 -0.499974E-04  0.897E-02    0.44       1.0  T
   3   -317.8256652  0.294254E-03  0.404E-02    0.45       1.0  T
   4   -317.8260014 -0.336198E-03  0.758E-03    0.44       1.0  T
   5   -317.8260057 -0.427369E-05  0.424E-03    0.44       1.8  T
   6   -317.8260071 -0.148929E-05  0.177E-03    0.44       4.3  T
   7   -317.8260075 -0.338680E-06  0.880E-04    0.44       8.6  T
   8   -317.8260075 -0.562493E-07  0.413E-04    0.44      18.3  T
     SCC iter.                  ...        0 min,  0.235 sec
     gradient                   ...        0 min,  0.089 sec
 * total energy  :  -312.8123151 Eh     change       -0.5553488E-02 Eh
   gradient norm :     0.0255432 Eh/α   predicted    -0.5642413E-02 (   1.60%)
   displ. norm   :     0.6290782 α      lambda       -0.8566867E-02
   maximum displ.:     0.1630961 α      in ANC's #41, #78, #24, ...

........................................................................
.............................. CYCLE    5 ..............................
........................................................................
   1   -317.8276717 -0.317828E+03  0.323E-01    0.45       0.0  T
   2   -317.8279089 -0.237168E-03  0.181E-01    0.44       1.0  T
   3   -317.8273471  0.561788E-03  0.569E-02    0.45       1.0  T
   4   -317.8280405 -0.693402E-03  0.110E-02    0.44       1.0  T
   5   -317.8280485 -0.793845E-05  0.635E-03    0.45       1.2  T
   6   -317.8280517 -0.325462E-05  0.240E-03    0.44       3.1  T
   7   -317.8280523 -0.603973E-06  0.110E-03    0.44       6.8  T
   8   -317.8280524 -0.942156E-07  0.545E-04    0.44      13.9  T
   9   -317.8280524 -0.702124E-08  0.334E-04    0.44      22.7  T
     SCC iter.                  ...        0 min,  0.262 sec
     gradient                   ...        0 min,  0.089 sec
 * total energy  :  -312.8135292 Eh     change       -0.1214046E-02 Eh
   gradient norm :     0.0445423 Eh/α   predicted    -0.5978594E-02 ( 392.45%)
   displ. norm   :     0.3384022 α      lambda       -0.6567026E-02
   maximum displ.:     0.1142305 α      in ANC's #13, #58, #35, ...

........................................................................
.............................. CYCLE    6 ..............................
........................................................................
   1   -317.8314200 -0.317831E+03  0.217E-01    0.46       0.0  T
   2   -317.8315379 -0.117906E-03  0.121E-01    0.48       1.0  T
   3   -317.8313453  0.192609E-03  0.341E-02    0.45       1.0  T
   4   -317.8315970 -0.251676E-03  0.626E-03    0.47       1.2  T
   5   -317.8315994 -0.241720E-05  0.334E-03    0.47       2.3  T
   6   -317.8316001 -0.706859E-06  0.148E-03    0.47       5.1  T
   7   -317.8316004 -0.298669E-06  0.499E-04    0.47      15.1  T
   8   -317.8316005 -0.203042E-07  0.241E-04    0.47      31.4  T
     SCC iter.                  ...        0 min,  0.235 sec
     gradient                   ...        0 min,  0.089 sec
 * total energy  :  -312.8161438 Eh     change       -0.2614662E-02 Eh
   gradient norm :     0.0376465 Eh/α   predicted    -0.3659529E-02 (  39.96%)
   displ. norm   :     0.4332257 α      lambda       -0.5501946E-02
   maximum displ.:     0.1140774 α      in ANC's #48, #43, #68, ...

........................................................................
.............................. CYCLE    7 ..............................
........................................................................
   1   -317.8226207 -0.317823E+03  0.304E-01    0.47       0.0  T
   2   -317.8227997 -0.178997E-03  0.169E-01    0.48       1.0  T
   3   -317.8221134  0.686300E-03  0.654E-02    0.47       1.0  T
   4   -317.8229216 -0.808197E-03  0.101E-02    0.48       1.0  T
   5   -317.8229299 -0.835203E-05  0.551E-03    0.48       1.4  T
   6   -317.8229325 -0.263706E-05  0.209E-03    0.48       3.6  T
   7   -317.8229329 -0.392260E-06  0.896E-04    0.48       8.4  T
   8   -317.8229330 -0.625636E-07  0.386E-04    0.48      19.6  T
     SCC iter.                  ...        0 min,  0.237 sec
     gradient                   ...        0 min,  0.089 sec
 * total energy  :  -312.8153731 Eh     change        0.7707595E-03 Eh
   gradient norm :     0.0369452 Eh/α   predicted    -0.3267286E-02 (-523.90%)
   displ. norm   :     0.2441147 α      lambda       -0.4421565E-02
   maximum displ.:     0.0780770 α      in ANC's #24, #78, #85, ...

........................................................................
.............................. CYCLE    8 ..............................
........................................................................
   1   -317.8318845 -0.317832E+03  0.173E-01    0.48       0.0  T
   2   -317.8319434 -0.589474E-04  0.968E-02    0.48       1.0  T
   3   -317.8317181  0.225334E-03  0.372E-02    0.48       1.0  T
   4   -317.8319846 -0.266514E-03  0.544E-03    0.48       1.4  T
   5   -317.8319875 -0.292187E-05  0.292E-03    0.48       2.6  T
   6   -317.8319882 -0.700833E-06  0.119E-03    0.48       6.4  T
   7   -317.8319884 -0.118982E-06  0.491E-04    0.48      15.4  T
   8   -317.8319884 -0.172364E-07  0.231E-04    0.48      32.7  T
     SCC iter.                  ...        0 min,  0.240 sec
     gradient                   ...        0 min,  0.089 sec
 * total energy  :  -312.8181552 Eh     change       -0.2782159E-02 Eh
   gradient norm :     0.0240346 Eh/α   predicted    -0.2342533E-02 ( -15.80%)
   displ. norm   :     0.3598090 α      lambda       -0.1820491E-02
   maximum displ.:     0.1436585 α      in ANC's #24, #35, #41, ...

........................................................................
.............................. CYCLE    9 ..............................
........................................................................
   1   -317.8152423 -0.317815E+03  0.165E-01    0.47       0.0  T
   2   -317.8152969 -0.546320E-04  0.917E-02    0.47       1.0  T
   3   -317.8151119  0.185017E-03  0.290E-02    0.46       1.0  T
   4   -317.8153304 -0.218531E-03  0.503E-03    0.47       1.5  T
   5   -317.8153315 -0.108344E-05  0.291E-03    0.47       2.6  T
   6   -317.8153324 -0.894783E-06  0.122E-03    0.47       6.2  T
   7   -317.8153326 -0.185997E-06  0.416E-04    0.47      18.2  T
   8   -317.8153326 -0.138592E-07  0.209E-04    0.47      36.2  T
     SCC iter.                  ...        0 min,  0.239 sec
     gradient                   ...        0 min,  0.089 sec
 * total energy  :  -312.8188301 Eh     change       -0.6748948E-03 Eh
   gradient norm :     0.0363357 Eh/α   predicted    -0.1028079E-02 (  52.33%)
   displ. norm   :     0.2737915 α      lambda       -0.1248209E-02
   maximum displ.:     0.0848366 α      in ANC's #35, #34, #21, ...

........................................................................
.............................. CYCLE   10 ..............................
........................................................................
   1   -317.8224430 -0.317822E+03  0.646E-02    0.48       0.0  T
   2   -317.8224516 -0.868071E-05  0.366E-02    0.48       1.0  T
   3   -317.8224172  0.344629E-04  0.147E-02    0.48       1.0  T
   4   -317.8224572 -0.400233E-04  0.248E-03    0.48       3.0  T
   5   -317.8224576 -0.370079E-06  0.135E-03    0.48       5.6  T
   6   -317.8224578 -0.211125E-06  0.590E-04    0.48      12.8  T
   7   -317.8224578 -0.388578E-07  0.240E-04    0.48      31.5  T
     SCC iter.                  ...        0 min,  0.209 sec
     gradient                   ...        0 min,  0.089 sec
 * total energy  :  -312.8197220 Eh     change       -0.8919269E-03 Eh
   gradient norm :     0.0136042 Eh/α   predicted    -0.6708934E-03 ( -24.78%)
   displ. norm   :     0.5198500 α      lambda       -0.1288053E-02
   maximum displ.:     0.1531546 α      in ANC's #35, #19, #25, ...

........................................................................
.............................. CYCLE   11 ..............................
........................................................................
   1   -317.8212323 -0.317821E+03  0.101E-01    0.47       0.0  T
   2   -317.8212505 -0.182455E-04  0.574E-02    0.48       1.0  T
   3   -317.8211124  0.138097E-03  0.251E-02    0.47       1.0  T
   4   -317.8212681 -0.155640E-03  0.415E-03    0.48       1.8  T
   5   -317.8212689 -0.842192E-06  0.239E-03    0.48       3.2  T
   6   -317.8212694 -0.505199E-06  0.941E-04    0.48       8.0  T
   7   -317.8212696 -0.116850E-06  0.389E-04    0.48      19.5  T
     SCC iter.                  ...        0 min,  0.210 sec
     gradient                   ...        0 min,  0.089 sec
 * total energy  :  -312.8205319 Eh     change       -0.8098892E-03 Eh
   gradient norm :     0.0218284 Eh/α   predicted    -0.8180717E-03 (   1.01%)
   displ. norm   :     0.5989838 α      lambda       -0.1251522E-02
   maximum displ.:     0.1878699 α      in ANC's #35, #24, #19, ...

........................................................................
.............................. CYCLE   12 ..............................
........................................................................
   1   -317.8205648 -0.317821E+03  0.122E-01    0.48       0.0  T
   2   -317.8205888 -0.239930E-04  0.692E-02    0.48       1.0  T
   3   -317.8203787  0.210013E-03  0.301E-02    0.47       1.0  T
   4   -317.8206134 -0.234640E-03  0.493E-03    0.48       1.5  T
   5   -317.8206145 -0.109626E-05  0.309E-03    0.48       2.4  T
   6   -317.8206156 -0.110718E-05  0.106E-03    0.48       7.1  T
   7   -317.8206157 -0.109204E-06  0.465E-04    0.48      16.3  T
   8   -317.8206157 -0.242501E-07  0.203E-04    0.48      37.2  T
     SCC iter.                  ...        0 min,  0.234 sec
     gradient                   ...        0 min,  0.089 sec
 * total energy  :  -312.8212762 Eh     change       -0.7442498E-03 Eh
   gradient norm :     0.0205397 Eh/α   predicted    -0.8502776E-03 (  14.25%)
   displ. norm   :     0.4694864 α      lambda       -0.8233577E-03
   maximum displ.:     0.1447439 α      in ANC's #19, #5, #24, ...

........................................................................
.............................. CYCLE   13 ..............................
........................................................................
   1   -317.8186798 -0.317819E+03  0.978E-02    0.47       0.0  T
   2   -317.8186970 -0.172553E-04  0.552E-02    0.48       1.0  T
   3   -317.8186153  0.817608E-04  0.193E-02    0.47       1.0  T
   4   -317.8187090 -0.937005E-04  0.351E-03    0.48       2.2  T
   5   -317.8187094 -0.427930E-06  0.224E-03    0.48       3.4  T
   6   -317.8187100 -0.618865E-06  0.778E-04    0.48       9.7  T
   7   -317.8187101 -0.525000E-07  0.354E-04    0.48      21.3  T
     SCC iter.                  ...        0 min,  0.208 sec
     gradient                   ...        0 min,  0.089 sec
 * total energy  :  -312.8218828 Eh     change       -0.6066394E-03 Eh
   gradient norm :     0.0155935 Eh/α   predicted    -0.5024211E-03 ( -17.18%)
   displ. norm   :     0.5743728 α      lambda       -0.1168451E-02
   maximum displ.:     0.1987101 α      in ANC's #19, #5, #17, ...

........................................................................
.............................. CYCLE   14 ..............................
........................................................................
   1   -317.8227745 -0.317823E+03  0.103E-01    0.47       0.0  T
   2   -317.8227985 -0.240451E-04  0.590E-02    0.47       1.0  T
   3   -317.8226858  0.112739E-03  0.241E-02    0.47       1.0  T
   4   -317.8228144 -0.128651E-03  0.417E-03    0.47       1.8  T
   5   -317.8228155 -0.104022E-05  0.256E-03    0.47       3.0  T
   6   -317.8228164 -0.917006E-06  0.108E-03    0.47       7.0  T
   7   -317.8228165 -0.109347E-06  0.470E-04    0.47      16.1  T
   8   -317.8228165 -0.267487E-07  0.192E-04    0.47      39.3  T
     SCC iter.                  ...        0 min,  0.240 sec
     gradient                   ...        0 min,  0.088 sec
 * total energy  :  -312.8225080 Eh     change       -0.6251659E-03 Eh
   gradient norm :     0.0199698 Eh/α   predicted    -0.7769721E-03 (  24.28%)
   displ. norm   :     0.4967538 α      lambda       -0.7871700E-03
   maximum displ.:     0.1765233 α      in ANC's #19, #5, #17, ...

........................................................................
.............................. CYCLE   15 ..............................
........................................................................
   1   -317.8206779 -0.317821E+03  0.821E-02    0.46       0.0  T
   2   -317.8206905 -0.125480E-04  0.467E-02    0.46       1.0  T
   3   -317.8206511  0.394047E-04  0.151E-02    0.46       1.0  T
   4   -317.8206968 -0.457291E-04  0.297E-03    0.46       2.5  T
   5   -317.8206972 -0.443038E-06  0.169E-03    0.46       4.5  T
   6   -317.8206976 -0.312331E-06  0.684E-04    0.46      11.1  T
   7   -317.8206976 -0.399017E-07  0.269E-04    0.46      28.1  T
     SCC iter.                  ...        0 min,  0.208 sec
     gradient                   ...        0 min,  0.088 sec
 * total energy  :  -312.8231002 Eh     change       -0.5922429E-03 Eh
   gradient norm :     0.0130272 Eh/α   predicted    -0.4907073E-03 ( -17.14%)
   displ. norm   :     0.5619493 α      lambda       -0.7397612E-03
   maximum displ.:     0.2142601 α      in ANC's #19, #5, #17, ...

........................................................................
.............................. CYCLE   16 ..............................
........................................................................
   1   -317.8249357 -0.317825E+03  0.827E-02    0.46       0.0  T
   2   -317.8249456 -0.992601E-05  0.475E-02    0.46       1.0  T
   3   -317.8249171  0.285167E-04  0.130E-02    0.46       1.0  T
   4   -317.8249498 -0.327077E-04  0.290E-03    0.46       2.6  T
   5   -317.8249504 -0.618789E-06  0.152E-03    0.46       5.0  T
   6   -317.8249506 -0.194998E-06  0.662E-04    0.46      11.4  T
   7   -317.8249506 -0.421298E-07  0.275E-04    0.46      27.5  T
     SCC iter.                  ...        0 min,  0.211 sec
     gradient                   ...        0 min,  0.088 sec
 * total energy  :  -312.8236690 Eh     change       -0.5687751E-03 Eh
   gradient norm :     0.0078341 Eh/α   predicted    -0.4866879E-03 ( -14.43%)
   displ. norm   :     0.6419082 α      lambda       -0.6203391E-03
   maximum displ.:     0.2462423 α      in ANC's #19, #5, #17, ...

........................................................................
.............................. CYCLE   17 ..............................
........................................................................
   1   -317.8207306 -0.317821E+03  0.900E-02    0.45       0.0  T
   2   -317.8207387 -0.806015E-05  0.520E-02    0.45       1.0  T
   3   -317.8206991  0.395712E-04  0.140E-02    0.45       1.0  T
   4   -317.8207435 -0.443810E-04  0.304E-03    0.45       2.5  T
   5   -317.8207442 -0.670887E-06  0.162E-03    0.45       4.7  T
   6   -317.8207444 -0.231506E-06  0.744E-04    0.45      10.2  T
   7   -317.8207445 -0.639922E-07  0.292E-04    0.45      25.9  T
     SCC iter.                  ...        0 min,  0.205 sec
     gradient                   ...        0 min,  0.088 sec
 * total energy  :  -312.8241570 Eh     change       -0.4879562E-03 Eh
   gradient norm :     0.0083317 Eh/α   predicted    -0.4379764E-03 ( -10.24%)
   displ. norm   :     0.6226950 α      lambda       -0.6551457E-03
   maximum displ.:     0.2404354 α      in ANC's #19, #5, #17, ...

........................................................................
.............................. CYCLE   18 ..............................
........................................................................
   1   -317.8259267 -0.317826E+03  0.854E-02    0.45       0.0  T
   2   -317.8259337 -0.702644E-05  0.495E-02    0.44       1.0  T
   3   -317.8259005  0.332541E-04  0.132E-02    0.45       1.0  T
   4   -317.8259377 -0.372307E-04  0.273E-03    0.44       2.8  T
   5   -317.8259383 -0.609419E-06  0.137E-03    0.45       5.5  T
   6   -317.8259384 -0.857669E-07  0.670E-04    0.45      11.3  T
   7   -317.8259384 -0.503084E-07  0.268E-04    0.45      28.2  T
     SCC iter.                  ...        0 min,  0.209 sec
     gradient                   ...        0 min,  0.088 sec
 * total energy  :  -312.8246380 Eh     change       -0.4810852E-03 Eh
   gradient norm :     0.0111047 Eh/α   predicted    -0.4545920E-03 (  -5.51%)
   displ. norm   :     0.6299023 α      lambda       -0.6018169E-03
   maximum displ.:     0.2365749 α      in ANC's #19, #5, #17, ...

........................................................................
.............................. CYCLE   19 ..............................
........................................................................
   1   -317.8219489 -0.317822E+03  0.866E-02    0.44       0.0  T
   2   -317.8219545 -0.567181E-05  0.502E-02    0.44       1.0  T
   3   -317.8218689  0.856893E-04  0.190E-02    0.44       1.0  T
   4   -317.8219626 -0.937788E-04  0.278E-03    0.44       2.7  T
   5   -317.8219631 -0.447193E-06  0.169E-03    0.44       4.5  T
   6   -317.8219633 -0.267525E-06  0.708E-04    0.44      10.7  T
   7   -317.8219634 -0.598563E-07  0.265E-04    0.44      28.6  T
     SCC iter.                  ...        0 min,  0.212 sec
     gradient                   ...        0 min,  0.089 sec
 * total energy  :  -312.8251238 Eh     change       -0.4858006E-03 Eh
   gradient norm :     0.0091991 Eh/α   predicted    -0.4203045E-03 ( -13.48%)
   displ. norm   :     0.6409518 α      lambda       -0.6652546E-03
   maximum displ.:     0.2299292 α      in ANC's #5, #19, #17, ...

........................................................................
.............................. CYCLE   20 ..............................
........................................................................
   1   -317.8258725 -0.317826E+03  0.875E-02    0.44       0.0  T
   2   -317.8258812 -0.867831E-05  0.507E-02    0.44       1.0  T
   3   -317.8258322  0.489645E-04  0.157E-02    0.44       1.0  T
   4   -317.8258877 -0.554855E-04  0.260E-03    0.44       2.9  T
   5   -317.8258879 -0.171927E-06  0.164E-03    0.44       4.6  T
   6   -317.8258882 -0.264361E-06  0.623E-04    0.44      12.1  T
   7   -317.8258882 -0.490210E-07  0.282E-04    0.44      26.8  T
     SCC iter.                  ...        0 min,  0.224 sec
     gradient                   ...        0 min,  0.095 sec
 * total energy  :  -312.8256187 Eh     change       -0.4948634E-03 Eh
   gradient norm :     0.0141045 Eh/α   predicted    -0.4692808E-03 (  -5.17%)
   displ. norm   :     0.6961040 α      lambda       -0.6235101E-03
   maximum displ.:     0.2588034 α      in ANC's #5, #17, #19, ...
 * RMSD in coord.:     0.5580626 α      energy gain  -0.1251883E+00 Eh

generating ANC from model Hessian ...
Using Lindh-Hessian (1995)
 Shifting diagonal of input Hessian by   1.011186793803739E-002
 Lowest  eigenvalues of input Hessian
    0.010000    0.010040    0.000000    0.000000    0.000000    0.000000
    0.000000    0.000000    0.010113    0.010117    0.010126    0.010153
    0.010167    0.010183    0.010217    0.010231    0.010264    0.010307
 Highest eigenvalues
    2.294427    2.303627    2.609940    2.611835    2.640130    2.648979
 

........................................................................
.............................. CYCLE   21 ..............................
........................................................................
   1   -317.8223970 -0.317822E+03  0.921E-02    0.43       0.0  T
   2   -317.8224036 -0.653828E-05  0.535E-02    0.44       1.0  T
   3   -317.8223165  0.870664E-04  0.185E-02    0.43       1.0  T
   4   -317.8224116 -0.950813E-04  0.290E-03    0.44       2.6  T
   5   -317.8224121 -0.520092E-06  0.180E-03    0.44       4.2  T
   6   -317.8224124 -0.351775E-06  0.747E-04    0.44      10.1  T
   7   -317.8224125 -0.581925E-07  0.304E-04    0.44      24.9  T
     SCC iter.                  ...        0 min,  0.220 sec
     gradient                   ...        0 min,  0.094 sec
 * total energy  :  -312.8261213 Eh     change       -0.5026108E-03 Eh
   gradient norm :     0.0096180 Eh/α   predicted     0.0000000E+00 (-100.00%)
   displ. norm   :     0.1328147 α      lambda       -0.3218781E-03
   maximum displ.:     0.0426295 α      in ANC's #21, #35, #34, ...

........................................................................
.............................. CYCLE   22 ..............................
........................................................................
   1   -317.8249677 -0.317825E+03  0.856E-02    0.44       0.0  T
   2   -317.8249820 -0.143732E-04  0.472E-02    0.44       1.0  T
   3   -317.8249732  0.883408E-05  0.827E-03    0.44       1.0  T
   4   -317.8249884 -0.152360E-04  0.191E-03    0.44       4.0  T
   5   -317.8249886 -0.106825E-06  0.117E-03    0.44       6.5  T
   6   -317.8249887 -0.169117E-06  0.282E-04    0.44      26.8  T
   7   -317.8249887 -0.806756E-08  0.127E-04    0.44      59.4  T
     SCC iter.                  ...        0 min,  0.223 sec
     gradient                   ...        0 min,  0.088 sec
 * total energy  :  -312.8261288 Eh     change       -0.7509717E-05 Eh
   gradient norm :     0.0085625 Eh/α   predicted    -0.1637842E-03 (2080.96%)
   displ. norm   :     0.1649272 α      lambda       -0.5459441E-03
   maximum displ.:     0.0465664 α      in ANC's #11, #31, #14, ...

........................................................................
.............................. CYCLE   23 ..............................
........................................................................
   1   -317.8318670 -0.317832E+03  0.498E-02    0.44       0.0  T
   2   -317.8318716 -0.452108E-05  0.280E-02    0.44       1.0  T
   3   -317.8318663  0.521552E-05  0.651E-03    0.44       1.2  T
   4   -317.8318733 -0.698625E-05  0.166E-03    0.44       4.6  T
   5   -317.8318735 -0.164099E-06  0.952E-04    0.44       7.9  T
   6   -317.8318736 -0.896648E-07  0.377E-04    0.44      20.0  T
     SCC iter.                  ...        0 min,  0.181 sec
     gradient                   ...        0 min,  0.088 sec
 * total energy  :  -312.8264378 Eh     change       -0.3089251E-03 Eh
   gradient norm :     0.0111860 Eh/α   predicted    -0.2804010E-03 (  -9.23%)
   displ. norm   :     0.1750141 α      lambda       -0.2292858E-03
   maximum displ.:     0.0545619 α      in ANC's #11, #6, #14, ...

........................................................................
.............................. CYCLE   24 ..............................
........................................................................
   1   -317.8292310 -0.317829E+03  0.281E-02    0.44       0.0  T
   2   -317.8292318 -0.785017E-06  0.162E-02    0.44       1.0  T
   3   -317.8292286  0.318363E-05  0.440E-03    0.44       1.7  T
   4   -317.8292321 -0.355951E-05  0.106E-03    0.44       7.2  T
   5   -317.8292322 -0.107321E-06  0.519E-04    0.44      14.6  T
   6   -317.8292323 -0.216341E-07  0.204E-04    0.44      37.1  T
     SCC iter.                  ...        0 min,  0.180 sec
     gradient                   ...        0 min,  0.088 sec
 * total energy  :  -312.8266088 Eh     change       -0.1710909E-03 Eh
   gradient norm :     0.0052973 Eh/α   predicted    -0.1181567E-03 ( -30.94%)
   displ. norm   :     0.4480874 α      lambda       -0.4290321E-03
   maximum displ.:     0.1431916 α      in ANC's #11, #14, #31, ...

........................................................................
.............................. CYCLE   25 ..............................
........................................................................
   1   -317.8220870 -0.317822E+03  0.798E-02    0.44       0.0  T
   2   -317.8220957 -0.872079E-05  0.452E-02    0.44       1.0  T
   3   -317.8220754  0.203682E-04  0.110E-02    0.44       1.0  T
   4   -317.8220998 -0.244693E-04  0.276E-03    0.44       2.7  T
   5   -317.8221004 -0.596998E-06  0.136E-03    0.44       5.5  T
   6   -317.8221006 -0.133311E-06  0.484E-04    0.44      15.6  T
   7   -317.8221006 -0.208606E-07  0.232E-04    0.44      32.6  T
     SCC iter.                  ...        0 min,  0.210 sec
     gradient                   ...        0 min,  0.088 sec
 * total energy  :  -312.8268267 Eh     change       -0.2178963E-03 Eh
   gradient norm :     0.0127813 Eh/α   predicted    -0.2575898E-03 (  18.22%)
   displ. norm   :     0.4782253 α      lambda       -0.5235414E-03
   maximum displ.:     0.1497409 α      in ANC's #6, #11, #18, ...

........................................................................
.............................. CYCLE   26 ..............................
........................................................................
   1   -317.8178339 -0.317818E+03  0.959E-02    0.44       0.0  T
   2   -317.8178496 -0.157618E-04  0.538E-02    0.44       1.0  T
   3   -317.8178434  0.628739E-05  0.828E-03    0.44       1.0  T
   4   -317.8178555 -0.121083E-04  0.304E-03    0.44       2.5  T
   5   -317.8178560 -0.577244E-06  0.151E-03    0.44       5.0  T
   6   -317.8178563 -0.250177E-06  0.576E-04    0.44      13.1  T
   7   -317.8178563 -0.477932E-07  0.256E-04    0.44      29.5  T
     SCC iter.                  ...        0 min,  0.205 sec
     gradient                   ...        0 min,  0.089 sec
 * total energy  :  -312.8270059 Eh     change       -0.1791483E-03 Eh
   gradient norm :     0.0141960 Eh/α   predicted    -0.3216390E-03 (  79.54%)
   displ. norm   :     0.3105287 α      lambda       -0.6136242E-03
   maximum displ.:     0.1072528 α      in ANC's #11, #14, #19, ...

........................................................................
.............................. CYCLE   27 ..............................
........................................................................
   1   -317.8235371 -0.317824E+03  0.751E-02    0.45       0.0  T
   2   -317.8235469 -0.986620E-05  0.420E-02    0.45       1.0  T
   3   -317.8235401  0.681247E-05  0.736E-03    0.44       1.0  T
   4   -317.8235510 -0.108940E-04  0.197E-03    0.45       3.8  T
   5   -317.8235512 -0.194486E-06  0.975E-04    0.45       7.8  T
   6   -317.8235513 -0.690235E-07  0.386E-04    0.45      19.6  T
     SCC iter.                  ...        0 min,  0.179 sec
     gradient                   ...        0 min,  0.088 sec
 * total energy  :  -312.8272326 Eh     change       -0.2266676E-03 Eh
   gradient norm :     0.0096772 Eh/α   predicted    -0.3363997E-03 (  48.41%)
   displ. norm   :     0.2183545 α      lambda       -0.3894207E-03
   maximum displ.:     0.0779605 α      in ANC's #11, #6, #14, ...

........................................................................
.............................. CYCLE   28 ..............................
........................................................................
   1   -317.8249556 -0.317825E+03  0.483E-02    0.45       0.0  T
   2   -317.8249594 -0.387691E-05  0.270E-02    0.45       1.0  T
   3   -317.8249581  0.137019E-05  0.389E-03    0.45       1.9  T
   4   -317.8249609 -0.284248E-05  0.131E-03    0.45       5.8  T
   5   -317.8249610 -0.106678E-06  0.671E-04    0.45      11.3  T
   6   -317.8249611 -0.400823E-07  0.263E-04    0.45      28.8  T
     SCC iter.                  ...        0 min,  0.176 sec
     gradient                   ...        0 min,  0.088 sec
 * total energy  :  -312.8275347 Eh     change       -0.3021314E-03 Eh
   gradient norm :     0.0044384 Eh/α   predicted    -0.2039982E-03 ( -32.48%)
   displ. norm   :     0.5486216 α      lambda       -0.4629166E-03
   maximum displ.:     0.1953687 α      in ANC's #11, #6, #14, ...

........................................................................
.............................. CYCLE   29 ..............................
........................................................................
   1   -317.8238912 -0.317824E+03  0.740E-02    0.45       0.0  T
   2   -317.8238976 -0.642233E-05  0.421E-02    0.45       1.0  T
   3   -317.8238928  0.484610E-05  0.638E-03    0.45       1.2  T
   4   -317.8239000 -0.723437E-05  0.231E-03    0.45       3.3  T
   5   -317.8239004 -0.343691E-06  0.109E-03    0.45       6.9  T
   6   -317.8239005 -0.121534E-06  0.401E-04    0.45      18.8  T
   7   -317.8239005 -0.165733E-07  0.182E-04    0.45      41.5  T
     SCC iter.                  ...        0 min,  0.211 sec
     gradient                   ...        0 min,  0.088 sec
 * total energy  :  -312.8279017 Eh     change       -0.3670239E-03 Eh
   gradient norm :     0.0053731 Eh/α   predicted    -0.3011242E-03 ( -17.96%)
   displ. norm   :     0.6617768 α      lambda       -0.4337491E-03
   maximum displ.:     0.2382434 α      in ANC's #11, #6, #14, ...

........................................................................
.............................. CYCLE   30 ..............................
........................................................................
   1   -317.8234880 -0.317823E+03  0.735E-02    0.45       0.0  T
   2   -317.8234919 -0.392664E-05  0.426E-02    0.45       1.0  T
   3   -317.8234861  0.583957E-05  0.632E-03    0.45       1.2  T
   4   -317.8234934 -0.729335E-05  0.216E-03    0.45       3.5  T
   5   -317.8234937 -0.331182E-06  0.101E-03    0.45       7.5  T
   6   -317.8234938 -0.117797E-06  0.412E-04    0.45      18.4  T
   7   -317.8234939 -0.162730E-07  0.202E-04    0.45      37.4  T
     SCC iter.                  ...        0 min,  0.210 sec
     gradient                   ...        0 min,  0.088 sec
 * total energy  :  -312.8282683 Eh     change       -0.3665994E-03 Eh
   gradient norm :     0.0070228 Eh/α   predicted    -0.3118559E-03 ( -14.93%)
   displ. norm   :     0.7239493 α      lambda       -0.5238519E-03
   maximum displ.:     0.2634624 α      in ANC's #11, #6, #14, ...

........................................................................
.............................. CYCLE   31 ..............................
........................................................................
   1   -317.8243020 -0.317824E+03  0.847E-02    0.45       0.0  T
   2   -317.8243090 -0.704157E-05  0.488E-02    0.45       1.0  T
   3   -317.8242995  0.954222E-05  0.808E-03    0.45       1.0  T
   4   -317.8243119 -0.123818E-04  0.261E-03    0.45       2.9  T
   5   -317.8243123 -0.416019E-06  0.135E-03    0.45       5.6  T
   6   -317.8243125 -0.222885E-06  0.488E-04    0.45      15.5  T
   7   -317.8243125 -0.241612E-07  0.234E-04    0.45      32.3  T
     SCC iter.                  ...        0 min,  0.211 sec
     gradient                   ...        0 min,  0.088 sec
 * total energy  :  -312.8286795 Eh     change       -0.4111670E-03 Eh
   gradient norm :     0.0103964 Eh/α   predicted    -0.3992083E-03 (  -2.91%)
   displ. norm   :     0.6928341 α      lambda       -0.5547430E-03
   maximum displ.:     0.2564498 α      in ANC's #11, #6, #14, ...

........................................................................
.............................. CYCLE   32 ..............................
........................................................................
   1   -317.8258142 -0.317826E+03  0.726E-02    0.45       0.0  T
   2   -317.8258175 -0.326384E-05  0.422E-02    0.46       1.0  T
   3   -317.8258081  0.931143E-05  0.740E-03    0.46       1.0  T
   4   -317.8258191 -0.109636E-04  0.194E-03    0.46       3.9  T
   5   -317.8258192 -0.142166E-06  0.116E-03    0.46       6.5  T
   6   -317.8258194 -0.179169E-06  0.429E-04    0.46      17.6  T
   7   -317.8258194 -0.214848E-07  0.219E-04    0.46      34.5  T
     SCC iter.                  ...        0 min,  0.209 sec
     gradient                   ...        0 min,  0.088 sec
 * total energy  :  -312.8291655 Eh     change       -0.4859832E-03 Eh
   gradient norm :     0.0086014 Eh/α   predicted    -0.4105184E-03 ( -15.53%)
   displ. norm   :     0.7129551 α      lambda       -0.6170812E-03
   maximum displ.:     0.2664369 α      in ANC's #11, #6, #14, ...

........................................................................
.............................. CYCLE   33 ..............................
........................................................................
   1   -317.8295187 -0.317830E+03  0.783E-02    0.46       0.0  T
   2   -317.8295248 -0.607170E-05  0.453E-02    0.46       1.0  T
   3   -317.8295049  0.199297E-04  0.103E-02    0.46       1.0  T
   4   -317.8295279 -0.230238E-04  0.239E-03    0.47       3.2  T
   5   -317.8295282 -0.291403E-06  0.145E-03    0.46       5.2  T
   6   -317.8295284 -0.244770E-06  0.580E-04    0.46      13.0  T
   7   -317.8295285 -0.395795E-07  0.275E-04    0.46      27.5  T
     SCC iter.                  ...        0 min,  0.213 sec
     gradient                   ...        0 min,  0.088 sec
 * total energy  :  -312.8296906 Eh     change       -0.5251534E-03 Eh
   gradient norm :     0.0062423 Eh/α   predicted    -0.4653756E-03 ( -11.38%)
   displ. norm   :     0.8377226 α      lambda       -0.5986766E-03
   maximum displ.:     0.3126903 α      in ANC's #11, #6, #14, ...

........................................................................
.............................. CYCLE   34 ..............................
........................................................................
   1   -317.8239860 -0.317824E+03  0.882E-02    0.46       0.0  T
   2   -317.8239918 -0.578342E-05  0.516E-02    0.47       1.0  T
   3   -317.8239680  0.237878E-04  0.112E-02    0.47       1.0  T
   4   -317.8239946 -0.266595E-04  0.259E-03    0.48       2.9  T
   5   -317.8239953 -0.668939E-06  0.149E-03    0.48       5.1  T
   6   -317.8239955 -0.224176E-06  0.609E-04    0.48      12.4  T
   7   -317.8239956 -0.402551E-07  0.299E-04    0.48      25.3  T
     SCC iter.                  ...        0 min,  0.202 sec
     gradient                   ...        0 min,  0.088 sec
 * total energy  :  -312.8302254 Eh     change       -0.5348083E-03 Eh
   gradient norm :     0.0071296 Eh/α   predicted    -0.5094103E-03 (  -4.75%)
   displ. norm   :     0.7419875 α      lambda       -0.7554629E-03
   maximum displ.:     0.2593404 α      in ANC's #11, #6, #32, ...

........................................................................
.............................. CYCLE   35 ..............................
........................................................................
   1   -317.8349619 -0.317835E+03  0.971E-02    0.47       0.0  T
   2   -317.8349748 -0.129268E-04  0.564E-02    0.49       1.0  T
   3   -317.8348848  0.899834E-04  0.209E-02    0.48       1.0  T
   4   -317.8349846 -0.997570E-04  0.396E-03    0.49       1.9  T
   5   -317.8349865 -0.193636E-05  0.211E-03    0.49       3.6  T
   6   -317.8349869 -0.426001E-06  0.892E-04    0.49       8.5  T
   7   -317.8349870 -0.897580E-07  0.423E-04    0.49      17.9  T
     SCC iter.                  ...        0 min,  0.206 sec
     gradient                   ...        0 min,  0.088 sec
 * total energy  :  -312.8307418 Eh     change       -0.5163295E-03 Eh
   gradient norm :     0.0114773 Eh/α   predicted    -0.5856914E-03 (  13.43%)
   displ. norm   :     0.7888559 α      lambda       -0.6527704E-03
   maximum displ.:     0.2983871 α      in ANC's #11, #6, #14, ...

........................................................................
.............................. CYCLE   36 ..............................
........................................................................
   1   -317.8241207 -0.317824E+03  0.862E-02    0.49       0.0  T
   2   -317.8241280 -0.723561E-05  0.504E-02    0.50       1.0  T
   3   -317.8240675  0.604984E-04  0.168E-02    0.50       1.0  T
   4   -317.8241337 -0.662160E-04  0.306E-03    0.51       2.5  T
   5   -317.8241350 -0.130082E-05  0.149E-03    0.51       5.1  T
   6   -317.8241351 -0.140783E-06  0.739E-04    0.51      10.2  T
   7   -317.8241352 -0.719992E-07  0.293E-04    0.51      25.8  T
     SCC iter.                  ...        0 min,  0.205 sec
     gradient                   ...        0 min,  0.088 sec
 * total energy  :  -312.8312985 Eh     change       -0.5567846E-03 Eh
   gradient norm :     0.0099658 Eh/α   predicted    -0.5295003E-03 (  -4.90%)
   displ. norm   :     0.6556761 α      lambda       -0.6807178E-03
   maximum displ.:     0.2517159 α      in ANC's #11, #6, #4, ...

........................................................................
.............................. CYCLE   37 ..............................
........................................................................
   1   -317.8202547 -0.317820E+03  0.757E-02    0.51       0.0  T
   2   -317.8202619 -0.721958E-05  0.442E-02    0.53       1.0  T
   3   -317.8201709  0.909638E-04  0.200E-02    0.51       1.0  T
   4   -317.8202702 -0.992719E-04  0.339E-03    0.53       2.2  T
   5   -317.8202721 -0.195470E-05  0.139E-03    0.53       5.4  T
   6   -317.8202723 -0.144580E-06  0.727E-04    0.53      10.4  T
   7   -317.8202724 -0.620599E-07  0.278E-04    0.53      27.2  T
     SCC iter.                  ...        0 min,  0.206 sec
     gradient                   ...        0 min,  0.091 sec
 * total energy  :  -312.8318471 Eh     change       -0.5486019E-03 Eh
   gradient norm :     0.0091345 Eh/α   predicted    -0.4866883E-03 ( -11.29%)
   displ. norm   :     0.7137284 α      lambda       -0.6162934E-03
   maximum displ.:     0.2751489 α      in ANC's #11, #6, #4, ...

........................................................................
.............................. CYCLE   38 ..............................
........................................................................
   1   -317.8183628 -0.317818E+03  0.857E-02    0.53       0.0  T
   2   -317.8183747 -0.118931E-04  0.501E-02    0.55       1.0  T
   3   -317.8182655  0.109168E-03  0.222E-02    0.54       1.0  T
   4   -317.8183841 -0.118570E-03  0.432E-03    0.55       1.7  T
   5   -317.8183875 -0.339778E-05  0.162E-03    0.55       4.7  T
   6   -317.8183877 -0.199032E-06  0.831E-04    0.55       9.1  T
   7   -317.8183877 -0.626804E-07  0.355E-04    0.55      21.3  T
     SCC iter.                  ...        0 min,  0.206 sec
     gradient                   ...        0 min,  0.088 sec
 * total energy  :  -312.8323743 Eh     change       -0.5271681E-03 Eh
   gradient norm :     0.0091807 Eh/α   predicted    -0.4651219E-03 ( -11.77%)
   displ. norm   :     0.6425952 α      lambda       -0.7289721E-03
   maximum displ.:     0.2357173 α      in ANC's #11, #6, #4, ...

........................................................................
.............................. CYCLE   39 ..............................
........................................................................
   1   -317.8276221 -0.317828E+03  0.910E-02    0.55       0.0  T
   2   -317.8276392 -0.170393E-04  0.531E-02    0.57       1.0  T
   3   -317.8275180  0.121136E-03  0.234E-02    0.56       1.0  T
   4   -317.8276515 -0.133453E-03  0.436E-03    0.57       1.7  T
   5   -317.8276540 -0.252564E-05  0.215E-03    0.57       3.5  T
   6   -317.8276545 -0.523607E-06  0.962E-04    0.57       7.9  T
   7   -317.8276547 -0.107591E-06  0.404E-04    0.57      18.7  T
     SCC iter.                  ...        0 min,  0.203 sec
     gradient                   ...        0 min,  0.088 sec
 * total energy  :  -312.8327736 Eh     change       -0.3992670E-03 Eh
   gradient norm :     0.0141303 Eh/α   predicted    -0.5149980E-03 (  28.99%)
   displ. norm   :     0.7293279 α      lambda       -0.7174833E-03
   maximum displ.:     0.2836347 α      in ANC's #11, #6, #4, ...

........................................................................
.............................. CYCLE   40 ..............................
........................................................................
   1   -317.8204319 -0.317820E+03  0.841E-02    0.57       0.0  T
   2   -317.8204533 -0.214256E-04  0.493E-02    0.59       1.0  T
   3   -317.8203978  0.554963E-04  0.188E-02    0.58       1.0  T
   4   -317.8204599 -0.620813E-04  0.439E-03    0.59       1.7  T
   5   -317.8204630 -0.311630E-05  0.173E-03    0.59       4.4  T
   6   -317.8204633 -0.276733E-06  0.807E-04    0.59       9.4  T
   7   -317.8204633 -0.331119E-07  0.399E-04    0.59      19.0  T
     SCC iter.                  ...        0 min,  0.201 sec
     gradient                   ...        0 min,  0.088 sec
 * total energy  :  -312.8333259 Eh     change       -0.5523261E-03 Eh
   gradient norm :     0.0088465 Eh/α   predicted    -0.5495696E-03 (  -0.50%)
   displ. norm   :     0.7029269 α      lambda       -0.5136221E-03
   maximum displ.:     0.2807310 α      in ANC's #11, #6, #4, ...

........................................................................
.............................. CYCLE   41 ..............................
........................................................................
   1   -317.8173468 -0.317817E+03  0.762E-02    0.59       0.0  T
   2   -317.8173561 -0.927115E-05  0.446E-02    0.60       1.0  T
   3   -317.8173119  0.442387E-04  0.162E-02    0.60       1.0  T
   4   -317.8173612 -0.493430E-04  0.310E-03    0.60       2.4  T
   5   -317.8173626 -0.135546E-05  0.127E-03    0.60       6.0  T
   6   -317.8173627 -0.985718E-07  0.572E-04    0.60      13.2  T
   7   -317.8173627 -0.288539E-07  0.262E-04    0.60      28.9  T
     SCC iter.                  ...        0 min,  0.205 sec
     gradient                   ...        0 min,  0.088 sec
 * total energy  :  -312.8337528 Eh     change       -0.4269178E-03 Eh
   gradient norm :     0.0088593 Eh/α   predicted    -0.3837041E-03 ( -10.12%)
   displ. norm   :     0.5905970 α      lambda       -0.6393324E-03
   maximum displ.:     0.2276306 α      in ANC's #11, #4, #6, ...

........................................................................
.............................. CYCLE   42 ..............................
........................................................................
   1   -317.8317756 -0.317832E+03  0.686E-02    0.60       0.0  T
   2   -317.8317856 -0.994560E-05  0.403E-02    0.60       1.0  T
   3   -317.8317088  0.768007E-04  0.189E-02    0.61       1.0  T
   4   -317.8317916 -0.828924E-04  0.400E-03    0.60       1.9  T
   5   -317.8317946 -0.295550E-05  0.168E-03    0.60       4.5  T
   6   -317.8317949 -0.290122E-06  0.768E-04    0.60       9.8  T
   7   -317.8317949 -0.429993E-07  0.344E-04    0.60      22.0  T
     SCC iter.                  ...        0 min,  0.205 sec
     gradient                   ...        0 min,  0.088 sec
 * total energy  :  -312.8340686 Eh     change       -0.3158047E-03 Eh
   gradient norm :     0.0180210 Eh/α   predicted    -0.4311685E-03 (  36.53%)
   displ. norm   :     0.6427298 α      lambda       -0.6637315E-03
   maximum displ.:     0.2540202 α      in ANC's #11, #6, #4, ...
 * RMSD in coord.:     0.8643876 α      energy gain  -0.8449915E-02 Eh

generating ANC from model Hessian ...
Using Lindh-Hessian (1995)
 Shifting diagonal of input Hessian by   1.045058980911960E-002
 Lowest  eigenvalues of input Hessian
    0.010000    0.010448    0.010450    0.000000    0.000000    0.000000
    0.000000    0.000000    0.000000    0.010456    0.010466    0.010500
    0.010506    0.010520    0.010556    0.010586    0.010615    0.010648
 Highest eigenvalues
    2.292806    2.308105    2.610407    2.611702    2.646356    2.651411
 

........................................................................
.............................. CYCLE   43 ..............................
........................................................................
   1   -317.8231327 -0.317823E+03  0.764E-02    0.60       0.0  T
   2   -317.8231537 -0.210325E-04  0.452E-02    0.61       1.0  T
   3   -317.8230694  0.842498E-04  0.213E-02    0.60       1.0  T
   4   -317.8231640 -0.945598E-04  0.423E-03    0.61       1.8  T
   5   -317.8231666 -0.262709E-05  0.176E-03    0.61       4.3  T
   6   -317.8231670 -0.342574E-06  0.763E-04    0.61       9.9  T
   7   -317.8231670 -0.500069E-07  0.399E-04    0.61      19.0  T
     SCC iter.                  ...        0 min,  0.205 sec
     gradient                   ...        0 min,  0.088 sec
 * total energy  :  -312.8345026 Eh     change       -0.4339443E-03 Eh
   gradient norm :     0.0095308 Eh/α   predicted     0.0000000E+00 (-100.00%)
   displ. norm   :     0.0891291 α      lambda       -0.2390617E-03
   maximum displ.:     0.0275959 α      in ANC's #19, #21, #6, ...

........................................................................
.............................. CYCLE   44 ..............................
........................................................................
   1   -317.8279617 -0.317828E+03  0.369E-02    0.61       0.0  T
   2   -317.8279645 -0.273247E-05  0.208E-02    0.61       1.0  T
   3   -317.8279593  0.520290E-05  0.566E-03    0.61       1.3  T
   4   -317.8279658 -0.654074E-05  0.122E-03    0.61       6.2  T
   5   -317.8279659 -0.124449E-06  0.685E-04    0.61      11.0  T
   6   -317.8279660 -0.451175E-07  0.294E-04    0.61      25.7  T
     SCC iter.                  ...        0 min,  0.177 sec
     gradient                   ...        0 min,  0.088 sec
 * total energy  :  -312.8346349 Eh     change       -0.1323370E-03 Eh
   gradient norm :     0.0048461 Eh/α   predicted    -0.1204812E-03 (  -8.96%)
   displ. norm   :     0.2044352 α      lambda       -0.3702723E-03
   maximum displ.:     0.0705623 α      in ANC's #19, #24, #4, ...

........................................................................
.............................. CYCLE   45 ..............................
........................................................................
   1   -317.8364037 -0.317836E+03  0.621E-02    0.61       0.0  T
   2   -317.8364115 -0.779562E-05  0.352E-02    0.61       1.0  T
   3   -317.8364002  0.112500E-04  0.868E-03    0.61       1.0  T
   4   -317.8364151 -0.148289E-04  0.199E-03    0.61       3.8  T
   5   -317.8364153 -0.224994E-06  0.116E-03    0.61       6.5  T
   6   -317.8364154 -0.944979E-07  0.450E-04    0.61      16.8  T
   7   -317.8364154 -0.220582E-07  0.183E-04    0.61      41.3  T
     SCC iter.                  ...        0 min,  0.204 sec
     gradient                   ...        0 min,  0.088 sec
 * total energy  :  -312.8346680 Eh     change       -0.3314273E-04 Eh
   gradient norm :     0.0118743 Eh/α   predicted    -0.1928758E-03 ( 481.96%)
   displ. norm   :     0.0921866 α      lambda       -0.3088125E-03
   maximum displ.:     0.0304603 α      in ANC's #19, #18, #21, ...

........................................................................
.............................. CYCLE   46 ..............................
........................................................................
   1   -317.8340713 -0.317834E+03  0.500E-02    0.61       0.0  T
   2   -317.8340763 -0.494716E-05  0.277E-02    0.61       1.0  T
   3   -317.8340708  0.543467E-05  0.592E-03    0.61       1.3  T
   4   -317.8340787 -0.783211E-05  0.121E-03    0.61       6.2  T
   5   -317.8340787 -0.451878E-07  0.739E-04    0.61      10.2  T
   6   -317.8340788 -0.712561E-07  0.268E-04    0.61      28.2  T
     SCC iter.                  ...        0 min,  0.178 sec
     gradient                   ...        0 min,  0.088 sec
 * total energy  :  -312.8348165 Eh     change       -0.1484114E-03 Eh
   gradient norm :     0.0065557 Eh/α   predicted    -0.1557192E-03 (   4.92%)
   displ. norm   :     0.1222114 α      lambda       -0.2586796E-03
   maximum displ.:     0.0477644 α      in ANC's #30, #6, #4, ...

........................................................................
.............................. CYCLE   47 ..............................
........................................................................
   1   -317.8275997 -0.317828E+03  0.532E-02    0.61       0.0  T
   2   -317.8276066 -0.692324E-05  0.297E-02    0.61       1.0  T
   3   -317.8275973  0.937006E-05  0.783E-03    0.61       1.0  T
   4   -317.8276098 -0.125131E-04  0.154E-03    0.61       4.9  T
   5   -317.8276099 -0.160103E-06  0.901E-04    0.61       8.4  T
   6   -317.8276100 -0.640833E-07  0.404E-04    0.61      18.7  T
     SCC iter.                  ...        0 min,  0.175 sec
     gradient                   ...        0 min,  0.088 sec
 * total energy  :  -312.8348707 Eh     change       -0.5419310E-04 Eh
   gradient norm :     0.0076962 Eh/α   predicted    -0.1312722E-03 ( 142.23%)
   displ. norm   :     0.1802882 α      lambda       -0.2816103E-03
   maximum displ.:     0.0761358 α      in ANC's #19, #18, #21, ...

........................................................................
.............................. CYCLE   48 ..............................
........................................................................
   1   -317.8258376 -0.317826E+03  0.633E-02    0.61       0.0  T
   2   -317.8258454 -0.774246E-05  0.352E-02    0.61       1.0  T
   3   -317.8258343  0.110115E-04  0.788E-03    0.62       1.0  T
   4   -317.8258492 -0.148584E-04  0.167E-03    0.61       4.5  T
   5   -317.8258493 -0.109453E-06  0.103E-03    0.61       7.3  T
   6   -317.8258494 -0.122857E-06  0.315E-04    0.61      24.0  T
   7   -317.8258495 -0.131136E-07  0.134E-04    0.61      56.5  T
     SCC iter.                  ...        0 min,  0.202 sec
     gradient                   ...        0 min,  0.088 sec
 * total energy  :  -312.8349557 Eh     change       -0.8505801E-04 Eh
   gradient norm :     0.0069935 Eh/α   predicted    -0.1453880E-03 (  70.93%)
   displ. norm   :     0.2430223 α      lambda       -0.3396673E-03
   maximum displ.:     0.0921543 α      in ANC's #19, #4, #6, ...

........................................................................
.............................. CYCLE   49 ..............................
........................................................................
   1   -317.8308909 -0.317831E+03  0.492E-02    0.61       0.0  T
   2   -317.8308945 -0.363139E-05  0.280E-02    0.61       1.0  T
   3   -317.8308909  0.361395E-05  0.535E-03    0.61       1.4  T
   4   -317.8308960 -0.509971E-05  0.140E-03    0.61       5.4  T
   5   -317.8308961 -0.694679E-07  0.826E-04    0.61       9.1  T
   6   -317.8308961 -0.691419E-07  0.337E-04    0.61      22.4  T
     SCC iter.                  ...        0 min,  0.175 sec
     gradient                   ...        0 min,  0.088 sec
 * total energy  :  -312.8351534 Eh     change       -0.1976889E-03 Eh
   gradient norm :     0.0055610 Eh/α   predicted    -0.1798648E-03 (  -9.02%)
   displ. norm   :     0.3242454 α      lambda       -0.2046472E-03
   maximum displ.:     0.1251847 α      in ANC's #19, #6, #4, ...

........................................................................
.............................. CYCLE   50 ..............................
........................................................................
   1   -317.8303758 -0.317830E+03  0.438E-02    0.61       0.0  T
   2   -317.8303778 -0.208879E-05  0.254E-02    0.62       1.0  T
   3   -317.8303703  0.754117E-05  0.670E-03    0.61       1.1  T
   4   -317.8303790 -0.868365E-05  0.141E-03    0.62       5.4  T
   5   -317.8303792 -0.187243E-06  0.795E-04    0.62       9.5  T
   6   -317.8303792 -0.449800E-07  0.311E-04    0.62      24.3  T
     SCC iter.                  ...        0 min,  0.181 sec
     gradient                   ...        0 min,  0.094 sec
 * total energy  :  -312.8353253 Eh     change       -0.1719307E-03 Eh
   gradient norm :     0.0048849 Eh/α   predicted    -0.1130898E-03 ( -34.22%)
   displ. norm   :     0.6270188 α      lambda       -0.3711806E-03
   maximum displ.:     0.2415120 α      in ANC's #19, #6, #4, ...

........................................................................
.............................. CYCLE   51 ..............................
........................................................................
   1   -317.8276677 -0.317828E+03  0.849E-02    0.62       0.0  T
   2   -317.8276765 -0.875020E-05  0.492E-02    0.62       1.0  T
   3   -317.8276359  0.405504E-04  0.146E-02    0.62       1.0  T
   4   -317.8276812 -0.452757E-04  0.315E-03    0.62       2.4  T
   5   -317.8276825 -0.134433E-05  0.158E-03    0.62       4.8  T
   6   -317.8276827 -0.178432E-06  0.690E-04    0.62      10.9  T
   7   -317.8276828 -0.614876E-07  0.296E-04    0.62      25.5  T
     SCC iter.                  ...        0 min,  0.216 sec
     gradient                   ...        0 min,  0.094 sec
 * total energy  :  -312.8355829 Eh     change       -0.2575638E-03 Eh
   gradient norm :     0.0047039 Eh/α   predicted    -0.2585583E-03 (   0.39%)
   displ. norm   :     0.5554770 α      lambda       -0.3015891E-03
   maximum displ.:     0.2126728 α      in ANC's #19, #6, #4, ...

........................................................................
.............................. CYCLE   52 ..............................
........................................................................
   1   -317.8280488 -0.317828E+03  0.723E-02    0.62       0.0  T
   2   -317.8280545 -0.573796E-05  0.420E-02    0.62       1.0  T
   3   -317.8280250  0.294944E-04  0.126E-02    0.62       1.0  T
   4   -317.8280578 -0.328019E-04  0.260E-03    0.62       2.9  T
   5   -317.8280587 -0.880333E-06  0.126E-03    0.62       6.0  T
   6   -317.8280588 -0.969874E-07  0.535E-04    0.62      14.1  T
   7   -317.8280588 -0.370968E-07  0.221E-04    0.62      34.2  T
     SCC iter.                  ...        0 min,  0.216 sec
     gradient                   ...        0 min,  0.094 sec
 * total energy  :  -312.8358015 Eh     change       -0.2186434E-03 Eh
   gradient norm :     0.0056443 Eh/α   predicted    -0.1973317E-03 (  -9.75%)
   displ. norm   :     0.5028824 α      lambda       -0.2432213E-03
   maximum displ.:     0.2033127 α      in ANC's #6, #4, #19, ...

........................................................................
.............................. CYCLE   53 ..............................
........................................................................
   1   -317.8309929 -0.317831E+03  0.594E-02    0.62       0.0  T
   2   -317.8309960 -0.311176E-05  0.347E-02    0.63       1.0  T
   3   -317.8309778  0.182635E-04  0.100E-02    0.63       1.0  T
   4   -317.8309978 -0.200929E-04  0.202E-03    0.63       3.7  T
   5   -317.8309984 -0.574265E-06  0.861E-04    0.63       8.8  T
   6   -317.8309985 -0.408822E-07  0.364E-04    0.63      20.8  T
     SCC iter.                  ...        0 min,  0.187 sec
     gradient                   ...        0 min,  0.094 sec
 * total energy  :  -312.8360042 Eh     change       -0.2027044E-03 Eh
   gradient norm :     0.0042467 Eh/α   predicted    -0.1523714E-03 ( -24.83%)
   displ. norm   :     0.5529680 α      lambda       -0.2630258E-03
   maximum displ.:     0.2420829 α      in ANC's #6, #4, #19, ...

........................................................................
.............................. CYCLE   54 ..............................
........................................................................
   1   -317.8345466 -0.317835E+03  0.635E-02    0.63       0.0  T
   2   -317.8345498 -0.317762E-05  0.370E-02    0.63       1.0  T
   3   -317.8345331  0.167471E-04  0.963E-03    0.63       1.0  T
   4   -317.8345517 -0.186074E-04  0.202E-03    0.63       3.7  T
   5   -317.8345521 -0.461675E-06  0.990E-04    0.63       7.6  T
   6   -317.8345522 -0.644357E-07  0.351E-04    0.63      21.5  T
     SCC iter.                  ...        0 min,  0.183 sec
     gradient                   ...        0 min,  0.088 sec
 * total energy  :  -312.8362192 Eh     change       -0.2149355E-03 Eh
   gradient norm :     0.0036668 Eh/α   predicted    -0.1717273E-03 ( -20.10%)
   displ. norm   :     0.6339129 α      lambda       -0.2359435E-03
   maximum displ.:     0.2813483 α      in ANC's #6, #4, #19, ...

........................................................................
.............................. CYCLE   55 ..............................
........................................................................
   1   -317.8317592 -0.317832E+03  0.711E-02    0.63       0.0  T
   2   -317.8317632 -0.402044E-05  0.414E-02    0.64       1.0  T
   3   -317.8317444  0.188302E-04  0.101E-02    0.63       1.0  T
   4   -317.8317656 -0.211838E-04  0.216E-03    0.64       3.5  T
   5   -317.8317661 -0.479013E-06  0.112E-03    0.63       6.8  T
   6   -317.8317661 -0.777623E-07  0.415E-04    0.63      18.2  T
   7   -317.8317662 -0.211867E-07  0.165E-04    0.63      45.8  T
     SCC iter.                  ...        0 min,  0.201 sec
     gradient                   ...        0 min,  0.088 sec
 * total energy  :  -312.8364179 Eh     change       -0.1987039E-03 Eh
   gradient norm :     0.0032548 Eh/α   predicted    -0.1653816E-03 ( -16.77%)
   displ. norm   :     0.5389316 α      lambda       -0.2454871E-03
   maximum displ.:     0.2626123 α      in ANC's #6, #4, #3, ...

........................................................................
.............................. CYCLE   56 ..............................
........................................................................
   1   -317.8354151 -0.317835E+03  0.622E-02    0.64       0.0  T
   2   -317.8354190 -0.393521E-05  0.358E-02    0.64       1.0  T
   3   -317.8354052  0.138662E-04  0.808E-03    0.63       1.0  T
   4   -317.8354213 -0.160837E-04  0.198E-03    0.64       3.8  T
   5   -317.8354215 -0.206830E-06  0.118E-03    0.64       6.4  T
   6   -317.8354216 -0.154122E-06  0.387E-04    0.64      19.5  T
   7   -317.8354216 -0.202974E-07  0.163E-04    0.64      46.5  T
     SCC iter.                  ...        0 min,  0.204 sec
     gradient                   ...        0 min,  0.088 sec
 * total energy  :  -312.8365986 Eh     change       -0.1807614E-03 Eh
   gradient norm :     0.0048002 Eh/α   predicted    -0.1583973E-03 ( -12.37%)
   displ. norm   :     0.5671774 α      lambda       -0.2135105E-03
   maximum displ.:     0.2683210 α      in ANC's #6, #4, #3, ...

........................................................................
.............................. CYCLE   57 ..............................
........................................................................
   1   -317.8300493 -0.317830E+03  0.601E-02    0.64       0.0  T
   2   -317.8300523 -0.298660E-05  0.348E-02    0.64       1.0  T
   3   -317.8300424  0.989272E-05  0.705E-03    0.64       1.1  T
   4   -317.8300540 -0.116159E-04  0.163E-03    0.64       4.6  T
   5   -317.8300542 -0.118912E-06  0.990E-04    0.64       7.6  T
   6   -317.8300543 -0.934298E-07  0.337E-04    0.64      22.4  T
     SCC iter.                  ...        0 min,  0.174 sec
     gradient                   ...        0 min,  0.088 sec
 * total energy  :  -312.8367808 Eh     change       -0.1821664E-03 Eh
   gradient norm :     0.0038317 Eh/α   predicted    -0.1411023E-03 ( -22.54%)
   displ. norm   :     0.5180662 α      lambda       -0.2243024E-03
   maximum displ.:     0.2590295 α      in ANC's #6, #4, #3, ...

........................................................................
.............................. CYCLE   58 ..............................
........................................................................
   1   -317.8280276 -0.317828E+03  0.540E-02    0.64       0.0  T
   2   -317.8280311 -0.347775E-05  0.310E-02    0.64       1.0  T
   3   -317.8280234  0.767796E-05  0.631E-03    0.64       1.2  T
   4   -317.8280328 -0.934063E-05  0.164E-03    0.64       4.6  T
   5   -317.8280329 -0.112808E-06  0.963E-04    0.64       7.8  T
   6   -317.8280330 -0.113016E-06  0.354E-04    0.64      21.4  T
     SCC iter.                  ...        0 min,  0.177 sec
     gradient                   ...        0 min,  0.088 sec
 * total energy  :  -312.8369796 Eh     change       -0.1988276E-03 Eh
   gradient norm :     0.0048917 Eh/α   predicted    -0.1422549E-03 ( -28.45%)
   displ. norm   :     0.5937938 α      lambda       -0.2944375E-03
   maximum displ.:     0.3013716 α      in ANC's #6, #4, #3, ...

........................................................................
.............................. CYCLE   59 ..............................
........................................................................
   1   -317.8273332 -0.317827E+03  0.630E-02    0.64       0.0  T
   2   -317.8273391 -0.591485E-05  0.360E-02    0.64       1.0  T
   3   -317.8273266  0.125218E-04  0.848E-03    0.64       1.0  T
   4   -317.8273419 -0.152525E-04  0.212E-03    0.64       3.6  T
   5   -317.8273421 -0.285620E-06  0.125E-03    0.64       6.1  T
   6   -317.8273423 -0.142373E-06  0.442E-04    0.64      17.1  T
   7   -317.8273423 -0.240336E-07  0.182E-04    0.64      41.6  T
     SCC iter.                  ...        0 min,  0.200 sec
     gradient                   ...        0 min,  0.088 sec
 * total energy  :  -312.8372345 Eh     change       -0.2548206E-03 Eh
   gradient norm :     0.0044753 Eh/α   predicted    -0.1991306E-03 ( -21.85%)
   displ. norm   :     0.6415469 α      lambda       -0.3107624E-03
   maximum displ.:     0.3265551 α      in ANC's #6, #4, #3, ...

........................................................................
.............................. CYCLE   60 ..............................
........................................................................
   1   -317.8284753 -0.317828E+03  0.626E-02    0.64       0.0  T
   2   -317.8284807 -0.543186E-05  0.359E-02    0.64       1.0  T
   3   -317.8284638  0.168752E-04  0.974E-03    0.64       1.0  T
   4   -317.8284836 -0.197292E-04  0.212E-03    0.64       3.6  T
   5   -317.8284838 -0.275208E-06  0.126E-03    0.64       6.0  T
   6   -317.8284840 -0.131667E-06  0.435E-04    0.64      17.4  T
   7   -317.8284840 -0.203167E-07  0.189E-04    0.64      40.0  T
     SCC iter.                  ...        0 min,  0.202 sec
     gradient                   ...        0 min,  0.088 sec
 * total energy  :  -312.8374925 Eh     change       -0.2580699E-03 Eh
   gradient norm :     0.0053498 Eh/α   predicted    -0.2193345E-03 ( -15.01%)
   displ. norm   :     0.6641034 α      lambda       -0.2779234E-03
   maximum displ.:     0.3417635 α      in ANC's #6, #4, #3, ...

........................................................................
.............................. CYCLE   61 ..............................
........................................................................
   1   -317.8270770 -0.317827E+03  0.675E-02    0.64       0.0  T
[...]
                           160 H    0.969
    93   6 C    3.990 --    92 C    0.992   163 H    0.988   164 H    0.986
                           162 H    0.984
    94   6 C    3.952 --    95 N    1.501    91 C    1.229    97 C    1.012
    95   7 N    3.142 --    94 C    1.501    96 C    1.316
    96   6 C    3.976 --    95 N    1.316    89 C    1.238    83 C    1.185
    97   6 C    3.993 --    94 C    1.012    98 C    0.993   166 H    0.969
                           165 H    0.968
    98   6 C    3.990 --    97 C    0.993   169 H    0.988   168 H    0.987
                           167 H    0.985
    99   6 C    3.940 --   100 C    1.629    88 C    1.143   170 H    0.942
   100   6 C    3.961 --    99 C    1.629   114 C    1.117   101 C    0.999
   101   6 C    3.924 --   102 O    1.789   103 C    1.024   100 C    0.999
   102   8 O    2.059 --   101 C    1.789
   103   6 C    3.976 --   104 C    1.519   113 C    1.198   101 C    1.024
   104   6 C    3.981 --   103 C    1.519   105 C    1.275   171 H    0.963
   105   6 C    3.980 --   106 C    1.285   104 C    1.275   111 C    1.239
   106   6 C    3.981 --   107 C    1.549   105 C    1.285   172 H    0.966
                           110 C    0.111
   107   6 C    3.975 --   106 C    1.549   108 C    1.290   173 H    0.966
   108   6 C    3.881 --   110 C    1.492   107 C    1.290   109 F    0.968
   109   9 F    1.098 --   108 C    0.968
   110   6 C    3.977 --   108 C    1.492   111 C    1.289   174 H    0.963
                           106 C    0.111
   111   6 C    3.985 --   110 C    1.289   112 C    1.275   105 C    1.239
   112   6 C    3.972 --   113 C    1.503   111 C    1.275   175 H    0.959
   113   6 C    3.986 --   112 C    1.503   103 C    1.198   114 C    1.086
   114   6 C    3.974 --   115 C    1.499   100 C    1.117   113 C    1.086
   115   6 C    3.962 --   114 C    1.499   118 C    1.100   116 C    1.092
   116   6 C    3.946 --   117 N    2.771   115 C    1.092
   117   7 N    2.976 --   116 C    2.771
   118   6 C    3.945 --   119 N    2.761   115 C    1.100
   119   7 N    2.975 --   118 C    2.761
   120   1 H    0.994 --     1 C    0.945
   121   1 H    0.995 --     6 C    0.963
   122   1 H    0.996 --     8 C    0.966
   123   1 H    0.995 --     9 C    0.966
   124   1 H    0.994 --    12 C    0.963
   125   1 H    0.995 --    14 C    0.958
   126   1 H    0.995 --    23 C    0.963
   127   1 H    0.997 --    30 C    0.967
   128   1 H    0.997 --    31 C    0.968
   129   1 H    0.997 --    32 C    0.967
   130   1 H    0.997 --    33 C    0.964
   131   1 H    0.996 --    35 C    0.957
   132   1 H    0.998 --    39 C    0.967
   133   1 H    0.998 --    40 C    0.970
   134   1 H    0.998 --    41 C    0.969
   135   1 H    0.998 --    43 C    0.974
   136   1 H    0.998 --    43 C    0.975
   137   1 H    0.999 --    44 C    0.988
   138   1 H    0.999 --    44 C    0.988
   139   1 H    0.998 --    44 C    0.986
   140   1 H    0.999 --    45 C    0.968
   141   1 H    0.998 --    61 C    0.966
   142   1 H    0.997 --    62 C    0.970
   143   1 H    0.998 --    63 C    0.969
   144   1 H    0.998 --    65 C    0.973
   145   1 H    0.999 --    65 C    0.975
   146   1 H    0.998 --    66 C    0.986
   147   1 H    0.999 --    66 C    0.988
   148   1 H    0.999 --    66 C    0.988
   149   1 H    0.999 --    67 C    0.967
   150   1 H    0.995 --    79 C    0.965
   151   1 H    0.996 --    79 C    0.968
   152   1 H    0.996 --    80 C    0.979
   153   1 H    0.996 --    80 C    0.983
   154   1 H    0.998 --    80 C    0.979
   155   1 H    0.995 --    81 C    0.962
   156   1 H    0.995 --    81 C    0.968
   157   1 H    0.997 --    82 C    0.983
   158   1 H    0.998 --    82 C    0.987
   159   1 H    0.996 --    82 C    0.981
   160   1 H    0.997 --    92 C    0.969
   161   1 H    0.995 --    92 C    0.970
   162   1 H    0.996 --    93 C    0.984
   163   1 H    0.998 --    93 C    0.988
   164   1 H    0.999 --    93 C    0.986
   165   1 H    0.995 --    97 C    0.968
   166   1 H    0.997 --    97 C    0.969
   167   1 H    0.997 --    98 C    0.985
   168   1 H    0.999 --    98 C    0.987
   169   1 H    0.998 --    98 C    0.988
   170   1 H    0.987 --    99 C    0.942
   171   1 H    0.995 --   104 C    0.963
   172   1 H    0.996 --   106 C    0.966
   173   1 H    0.995 --   107 C    0.966
   174   1 H    0.994 --   110 C    0.963
   175   1 H    0.995 --   112 C    0.959
 ---------------------------------------------------------------------------

Topologies differ in bond orders
Writing corrected topology to xtbtopo.mol

molecular dipole:
                 x           y           z       tot (Debye)
 q only:       -1.669       2.499       0.252
   full:       -2.052       1.998       0.912       7.638
molecular quadrupole (traceless):
                xx          xy          yy          xz          yz          zz
 q only:       92.665      17.697      18.527       5.208     -51.358    -111.192
  q+dip:      109.364      22.631      11.378      -8.257     -65.921    -120.742
   full:      107.118      13.611      13.076      -2.348     -63.822    -120.195

           -------------------------------------------------
          |                Geometry Summary                 |
           -------------------------------------------------

      molecular mass/u    :     1645.8688608
   center of mass at/Å    :        0.2791424       0.0894872      -0.0873159
  moments of inertia/u·Å² :        0.5461779E+05   0.1298952E+06   0.1720812E+06
rotational constants/cm⁻¹ :        0.3086473E-03   0.1297787E-03   0.9796326E-04

 * 167 selected distances

     #   Z          #   Z                                           value/Å
     1   6 C        2   6 C                                       1.3571369
     3   6 C        4   8 O                                       1.2102270
     5   6 C        6   6 C                                       1.3654845
     6   6 C        7   6 C                                       1.4118294
     7   6 C        8   6 C                                       1.4101512
     8   6 C        9   6 C                                       1.3669250
     9   6 C       10   6 C                                       1.4019478
    10   6 C       12   6 C                                       1.3670160
     7   6 C       13   6 C                                       1.4257431
    12   6 C       13   6 C                                       1.4089041
    13   6 C       14   6 C                                       1.4138726
     5   6 C       15   6 C                                       1.4227910
    14   6 C       15   6 C                                       1.3706590
    16   6 C       17   6 C                                       1.3689851
    18   6 C       19   7 N                                       1.1477747
    20   6 C       21   7 N                                       1.1481810
    22   6 C       23   6 C                                       1.4056966
    23   6 C       24   6 C                                       1.3723027
    25   6 C       26   8 O                                       1.2069593
    27   6 C       28   6 C                                       1.4093998
    24   6 C       29   6 C                                       1.4113658
    29   6 C       30   6 C                                       1.3838569
    22   6 C       31   6 C                                       1.4003871
    30   6 C       31   6 C                                       1.3852110
    28   6 C       32   6 C                                       1.3832368
    32   6 C       33   6 C                                       1.3858840
    33   6 C       34   6 C                                       1.4001460
    27   6 C       35   6 C                                       1.3719429
    34   6 C       35   6 C                                       1.4064866
    36   6 C       37   6 C                                       1.3824699
    38   6 C       39   6 C                                       1.3913623
    39   6 C       40   6 C                                       1.3826404
    40   6 C       41   6 C                                       1.3831921
    41   6 C       42   6 C                                       1.3904257
    43   6 C       44   6 C                                       1.5298727
    38   6 C       45   6 C                                       1.3925650
    42   6 C       45   6 C                                       1.3855156
    37   6 C       46   6 C                                       1.4123132
    46   6 C       47  16 S                                       1.7497256
    47  16 S       48   6 C                                       1.7326919
    48   6 C       49   6 C                                       1.4059963
    49   6 C       50   6 C                                       1.4143248
    50   6 C       51   6 C                                       1.4404337
    51   6 C       52   7 N                                       1.3229093
    52   7 N       53  16 S                                       1.6190678
    50   6 C       54   7 N                                       1.3228643
    53  16 S       54   7 N                                       1.6196056
    51   6 C       55   6 C                                       1.4135644
    55   6 C       56   6 C                                       1.4073197
    56   6 C       57  16 S                                       1.7327097
    57  16 S       58   6 C                                       1.7513938
    58   6 C       59   6 C                                       1.4075932
    60   6 C       61   6 C                                       1.3917057
    61   6 C       62   6 C                                       1.3815487
    62   6 C       63   6 C                                       1.3832936
    63   6 C       64   6 C                                       1.3900158
    65   6 C       66   6 C                                       1.5298658
    60   6 C       67   6 C                                       1.3929979
    64   6 C       67   6 C                                       1.3848793
    59   6 C       68   6 C                                       1.3890771
    68   6 C       69  16 S                                       1.7516768
    58   6 C       70   6 C                                       1.3982370
    69  16 S       70   6 C                                       1.7248974
    56   6 C       71   6 C                                       1.3988874
    70   6 C       71   6 C                                       1.3972612
    71   6 C       72   7 N                                       1.3710405
    55   6 C       73   6 C                                       1.4210627
    72   7 N       73   6 C                                       1.3817882
    49   6 C       74   6 C                                       1.4206998
    73   6 C       74   6 C                                       1.4144530
    74   6 C       75   7 N                                       1.3807633
    48   6 C       76   6 C                                       1.3985487
    75   7 N       76   6 C                                       1.3687094
    46   6 C       77   6 C                                       1.3947631
    76   6 C       77   6 C                                       1.4001780
    36   6 C       78  16 S                                       1.7589471 (max)
    77   6 C       78  16 S                                       1.7231077
    75   7 N       79   6 C                                       1.4464532
    79   6 C       80   6 C                                       1.5278726
    72   7 N       81   6 C                                       1.4465986
    81   6 C       82   6 C                                       1.5286532
    68   6 C       83   6 C                                       1.4328127
    83   6 C       84   6 C                                       1.3886310
    84   6 C       86   6 C                                       1.3958470
    86   6 C       88   6 C                                       1.3866659
    88   6 C       89   6 C                                       1.4226042
    89   6 C       90   7 N                                       1.3424547
    90   7 N       91   6 C                                       1.3110599
    92   6 C       93   6 C                                       1.5311949
    91   6 C       94   6 C                                       1.4226318
    94   6 C       95   7 N                                       1.3098873
    83   6 C       96   6 C                                       1.4284787
    89   6 C       96   6 C                                       1.4137276
    95   7 N       96   6 C                                       1.3384620
    97   6 C       98   6 C                                       1.5310010
    99   6 C      100   6 C                                       1.3529307
   101   6 C      102   8 O                                       1.2087039
   103   6 C      104   6 C                                       1.3654555
   104   6 C      105   6 C                                       1.4126492
   105   6 C      106   6 C                                       1.4101317
   106   6 C      107   6 C                                       1.3670341
   107   6 C      108   6 C                                       1.4017497
   108   6 C      110   6 C                                       1.3669008
   105   6 C      111   6 C                                       1.4257133
   110   6 C      111   6 C                                       1.4086287
   111   6 C      112   6 C                                       1.4138269
   103   6 C      113   6 C                                       1.4251839
   112   6 C      113   6 C                                       1.3689489
   114   6 C      115   6 C                                       1.3687386
   116   6 C      117   7 N                                       1.1475648
   118   6 C      119   7 N                                       1.1485930
     1   6 C      120   1 H                                       1.0835498
     6   6 C      121   1 H                                       1.0797396
     8   6 C      122   1 H                                       1.0795855
     9   6 C      123   1 H                                       1.0784753
    12   6 C      124   1 H                                       1.0788225
    14   6 C      125   1 H                                       1.0780963
    23   6 C      126   1 H                                       1.0779006 (min)
    30   6 C      127   1 H                                       1.0794806
    31   6 C      128   1 H                                       1.0807843
    32   6 C      129   1 H                                       1.0795401
    33   6 C      130   1 H                                       1.0785178
    35   6 C      131   1 H                                       1.0804984
    39   6 C      132   1 H                                       1.0793281
    40   6 C      133   1 H                                       1.0798778
    41   6 C      134   1 H                                       1.0804844
    43   6 C      135   1 H                                       1.0918900
    43   6 C      136   1 H                                       1.0919738
    44   6 C      137   1 H                                       1.0876763
    44   6 C      138   1 H                                       1.0876658
    44   6 C      139   1 H                                       1.0874615
    45   6 C      140   1 H                                       1.0811265
    61   6 C      141   1 H                                       1.0789123
    62   6 C      142   1 H                                       1.0798523
    63   6 C      143   1 H                                       1.0805526
    65   6 C      144   1 H                                       1.0918313
    65   6 C      145   1 H                                       1.0922027
    66   6 C      146   1 H                                       1.0875969
    66   6 C      147   1 H                                       1.0878675
    66   6 C      148   1 H                                       1.0875943
    67   6 C      149   1 H                                       1.0821426
    79   6 C      150   1 H                                       1.0962688
    79   6 C      151   1 H                                       1.0897895
    80   6 C      152   1 H                                       1.0863312
    80   6 C      153   1 H                                       1.0861096
    80   6 C      154   1 H                                       1.0876247
    81   6 C      155   1 H                                       1.0859123
    81   6 C      156   1 H                                       1.0949261
    82   6 C      157   1 H                                       1.0867673
    82   6 C      158   1 H                                       1.0880270
    82   6 C      159   1 H                                       1.0860092
    92   6 C      160   1 H                                       1.0899839
    92   6 C      161   1 H                                       1.0904338
    93   6 C      162   1 H                                       1.0870362
    93   6 C      163   1 H                                       1.0868923
    93   6 C      164   1 H                                       1.0878866
    97   6 C      165   1 H                                       1.0909290
    97   6 C      166   1 H                                       1.0890865
    98   6 C      167   1 H                                       1.0870360
    98   6 C      168   1 H                                       1.0879869
    98   6 C      169   1 H                                       1.0870285
    99   6 C      170   1 H                                       1.0845657
   104   6 C      171   1 H                                       1.0797513
   106   6 C      172   1 H                                       1.0796293
   107   6 C      173   1 H                                       1.0784589
   110   6 C      174   1 H                                       1.0787929
   112   6 C      175   1 H                                       1.0783751

 * 6 distinct bonds (by element types)

   Z      Z             #   av. dist./Å        max./Å        min./Å
   1 H    6 C          56     1.0846905     1.0962688     1.0779006
   6 C    6 C          82     1.4064931     1.5311949     1.3529307
   6 C    7 N          16     1.3084440     1.4465986     1.1475648
   6 C    8 O           3     1.2086301     1.2102270     1.2069593
   6 C   16 S           8     1.7406437     1.7589471     1.7231077
   7 N   16 S           2     1.6193367     1.6196056     1.6190678


optimized geometry written to: xtbopt.mol


           -------------------------------------------------
          | TOTAL ENERGY             -312.852853351104 Eh   |
          | GRADIENT NORM               0.000368676106 Eh/α |
          | HOMO-LUMO GAP               0.657844571487 eV   |
           -------------------------------------------------

------------------------------------------------------------------------
 * finished run on 2022/02/05 at 08:24:59.539     
------------------------------------------------------------------------
 total:
 * wall-time:     0 d,  0 h,  1 min, 30.914 sec
 *  cpu-time:     0 d,  0 h, 12 min,  7.164 sec
 * ratio c/w:     7.998 speedup
 SCF:
 * wall-time:     0 d,  0 h,  0 min,  0.530 sec
 *  cpu-time:     0 d,  0 h,  0 min,  4.221 sec
 * ratio c/w:     7.963 speedup
 ANC optimizer:
 * wall-time:     0 d,  0 h,  1 min, 30.294 sec
 *  cpu-time:     0 d,  0 h, 12 min,  2.323 sec
 * ratio c/w:     8.000 speedup

