      -----------------------------------------------------------      
     |                   =====================                   |     
     |                           x T B                           |     
     |                   =====================                   |     
     |                         S. Grimme                         |     
     |          Mulliken Center for Theoretical Chemistry        |     
     |                    University of Bonn                     |     
      -----------------------------------------------------------      

   * xtb version 6.4.1 (unknown) compiled by 'oda6@login1.crc.pitt.edu' on 2021-06-25

   xtb is free software: you can redistribute it and/or modify it under
   the terms of the GNU Lesser General Public License as published by
   the Free Software Foundation, either version 3 of the License, or
   (at your option) any later version.
   
   xtb is distributed in the hope that it will be useful,
   but WITHOUT ANY WARRANTY; without even the implied warranty of
   MERCHANTABILITY or FITNESS FOR A PARTICULAR PURPOSE.  See the
   GNU Lesser General Public License for more details.
   
   Cite this work as:
   * C. Bannwarth, E. Caldeweyher, S. Ehlert, A. Hansen, P. Pracht,
     J. Seibert, S. Spicher, S. Grimme, WIREs Comput. Mol. Sci., 2020, 11,
     e01493. DOI: 10.1002/wcms.1493
   
   for GFN2-xTB:
   * C. Bannwarth, S. Ehlert and S. Grimme., J. Chem. Theory Comput., 2019,
     15, 1652-1671. DOI: 10.1021/acs.jctc.8b01176
   for GFN1-xTB:
   * S. Grimme, C. Bannwarth, P. Shushkov, J. Chem. Theory Comput., 2017,
     13, 1989-2009. DOI: 10.1021/acs.jctc.7b00118
   for GFN0-xTB:
   * P. Pracht, E. Caldeweyher, S. Ehlert, S. Grimme, ChemRxiv, 2019, preprint.
     DOI: 10.26434/chemrxiv.8326202.v1
   for GFN-FF:
   * S. Spicher and S. Grimme, Angew. Chem. Int. Ed., 2020, 59, 15665-15673.
     DOI: 10.1002/anie.202004239
   
   for DFT-D4:
   * E. Caldeweyher, C. Bannwarth and S. Grimme, J. Chem. Phys., 2017,
     147, 034112. DOI: 10.1063/1.4993215
   * E. Caldeweyher, S. Ehlert, A. Hansen, H. Neugebauer, S. Spicher,
     C. Bannwarth and S. Grimme, J. Chem. Phys., 2019, 150, 154122.
     DOI: 10.1063/1.5090222
   * E. Caldeweyher, J.-M. Mewes, S. Ehlert and S. Grimme, Phys. Chem. Chem. Phys.
     2020, 22, 8499-8512. DOI: 10.1039/D0CP00502A
   
   for sTDA-xTB:
   * S. Grimme and C. Bannwarth, J. Chem. Phys., 2016, 145, 054103.
     DOI: 10.1063/1.4959605
   
   in the mass-spec context:
   * V. Asgeirsson, C. Bauer and S. Grimme, Chem. Sci., 2017, 8, 4879.
     DOI: 10.1039/c7sc00601b
   * J. Koopman and S. Grimme, ACS Omega 2019, 4, 12, 15120-15133.
     DOI: 10.1021/acsomega.9b02011
   
   for metadynamics refer to:
   * S. Grimme, J. Chem. Theory Comput., 2019, 155, 2847-2862
     DOI: 10.1021/acs.jctc.9b00143
   
   for SPH calculations refer to:
   * S. Spicher and S. Grimme, J. Chem. Theory Comput., 2021, 17, 1701-1714
     DOI: 10.1021/acs.jctc.0c01306
   
   with help from (in alphabetical order)
   P. Atkinson, C. Bannwarth, F. Bohle, G. Brandenburg, E. Caldeweyher
   M. Checinski, S. Dohm, S. Ehlert, S. Ehrlich, I. Gerasimov, J. Koopman
   C. Lavigne, S. Lehtola, F. März, M. Müller, F. Musil, H. Neugebauer
   J. Pisarek, C. Plett, P. Pracht, J. Seibert, P. Shushkov, S. Spicher
   M. Stahn, M. Steiner, T. Strunk, J. Stückrath, T. Rose, and J. Unsleber
   
 * started run on 2022/02/06 at 01:01:57.733     

           -------------------------------------------------
          |                Calculation Setup                |
           -------------------------------------------------

          program call               : /ihome/ghutchison/oda6/xtb/xtb-641/bin/xtb ../../FF_optimized/9_28_86_28_9.mol -opt
          hostname                   : smp-n29
          coordinate file            : ../../FF_optimized/9_28_86_28_9.mol
          omp threads                :                     8
          number of atoms            :                   261
          number of electrons        :                   796
          charge                     :                     0
          spin                       :                   0.0
          first test random number   :      0.10545231400218

   ID    Z sym.   atoms
    1    6 C      1-3, 5-10, 12-18, 20, 22, 23, 25-39, 41, 42, 44-58, 60-70,
                  72-75, 79, 80, 82-92, 94, 95, 97, 98, 100, 101, 103-108,
                  110-124, 126, 127, 129-143, 145-147, 149-154, 156-162, 164
    2    8 O      4, 148
    3    9 F      11, 155
    4    7 N      19, 21, 24, 43, 76, 78, 96, 99, 109, 128, 163, 165
    5   16 S      40, 59, 71, 77, 81, 93, 102, 125, 144
    6    1 H      166-261
########################################################################
[WARNING] Please study the warnings concerning your input carefully
-1- prog_main_parseArguments: the use of '-opt' is discouraged, please use '--opt' next time
########################################################################

           -------------------------------------------------
          |                 G F N 2 - x T B                 |
           -------------------------------------------------

        Reference                      10.1021/acs.jctc.8b01176
      * Hamiltonian:
        H0-scaling (s, p, d)           1.850000    2.230000    2.230000
        zeta-weighting                 0.500000
      * Dispersion:
        s8                             2.700000
        a1                             0.520000
        a2                             5.000000
        s9                             5.000000
      * Repulsion:
        kExp                           1.500000    1.000000
        rExp                           1.000000
      * Coulomb:
        alpha                          2.000000
        third order                    shell-resolved
        anisotropic                    true
        a3                             3.000000
        a5                             4.000000
        cn-shift                       1.200000
        cn-exp                         4.000000
        max-rad                        5.000000


          ...................................................
          :                      SETUP                      :
          :.................................................:
          :  # basis functions                 810          :
          :  # atomic orbitals                 801          :
          :  # shells                          435          :
          :  # electrons                       796          :
          :  max. iterations                   250          :
          :  Hamiltonian                  GFN2-xTB          :
          :  restarted?                      false          :
          :  GBSA solvation                  false          :
          :  PC potential                    false          :
          :  electronic temp.          300.0000000     K    :
          :  accuracy                    1.0000000          :
          :  -> integral cutoff          0.2500000E+02      :
          :  -> integral neglect         0.1000000E-07      :
          :  -> SCF convergence          0.1000000E-05 Eh   :
          :  -> wf. convergence          0.1000000E-03 e    :
          :  Broyden damping             0.4000000          :
          ...................................................

 iter      E             dE          RMSdq      gap      omega  full diag
   1   -436.8197094 -0.436820E+03  0.438E+00    1.08       0.0  T
   2   -437.1040372 -0.284328E+00  0.267E+00    0.74       1.0  T
   3   -436.7035871  0.400450E+00  0.176E+00    0.30       1.0  T
   4   -437.2464242 -0.542837E+00  0.641E-01    0.60       1.0  T
   5   -437.3294592 -0.830350E-01  0.215E-01    0.28       1.0  T
   6   -437.3370896 -0.763038E-02  0.111E-01    0.45       1.0  T
   7   -437.3394714 -0.238173E-02  0.458E-02    0.37       1.0  T
   8   -437.3398545 -0.383194E-03  0.208E-02    0.39       1.0  T
   9   -437.3399046 -0.500526E-04  0.104E-02    0.39       1.0  T
  10   -437.3399247 -0.200516E-04  0.436E-03    0.39       1.4  T
  11   -437.3399266 -0.198805E-05  0.222E-03    0.39       2.8  T
  12   -437.3399275 -0.846329E-06  0.896E-04    0.39       6.9  T
  13   -437.3399276 -0.981517E-07  0.475E-04    0.39      13.0  T

   *** convergence criteria satisfied after 13 iterations ***

         #    Occupation            Energy/Eh            Energy/eV
      -------------------------------------------------------------
         1        2.0000           -0.8293841             -22.5687
       ...           ...                  ...                  ...
       392        2.0000           -0.3717738             -10.1165
       393        2.0000           -0.3663704              -9.9694
       394        2.0000           -0.3588621              -9.7651
       395        2.0000           -0.3530316              -9.6065
       396        2.0000           -0.3525279              -9.5928
       397        1.9998           -0.3500494              -9.5253
       398        1.9990           -0.3484342              -9.4814 (HOMO)
       399        0.0012           -0.3341556              -9.0928 (LUMO)
       400        0.0000           -0.3311359              -9.0107
       401                         -0.3218860              -8.7590
       402                         -0.3192849              -8.6882
       403                         -0.3015331              -8.2051
       ...                                ...                  ...
       801                          1.0807285              29.4081
      -------------------------------------------------------------
                  HL-Gap            0.0142787 Eh            0.3885 eV
             Fermi-level           -0.3412260 Eh           -9.2852 eV

 SCC (total)                   0 d,  0 h,  0 min,  1.083 sec
 SCC setup                      ...        0 min,  0.005 sec (  0.447%)
 Dispersion                     ...        0 min,  0.017 sec (  1.555%)
 classical contributions        ...        0 min,  0.001 sec (  0.056%)
 integral evaluation            ...        0 min,  0.057 sec (  5.280%)
 iterations                     ...        0 min,  0.764 sec ( 70.568%)
 molecular gradient             ...        0 min,  0.233 sec ( 21.522%)
 printout                       ...        0 min,  0.006 sec (  0.563%)

         :::::::::::::::::::::::::::::::::::::::::::::::::::::
         ::                     SUMMARY                     ::
         :::::::::::::::::::::::::::::::::::::::::::::::::::::
         :: total energy            -430.469126358630 Eh    ::
         :: gradient norm              0.362252177210 Eh/a0 ::
         :: HOMO-LUMO gap              0.388541935547 eV    ::
         ::.................................................::
         :: SCC energy              -437.339927586528 Eh    ::
         :: -> isotropic ES            0.163758497812 Eh    ::
         :: -> anisotropic ES          0.043638398437 Eh    ::
         :: -> anisotropic XC          0.257040488719 Eh    ::
         :: -> dispersion             -0.459574449010 Eh    ::
         :: repulsion energy           6.844723105196 Eh    ::
         :: add. restraining           0.000000000000 Eh    ::
         :: total charge               0.000000000001 e     ::
         :::::::::::::::::::::::::::::::::::::::::::::::::::::

      ----------------------------------------------------------- 
     |                   =====================                   |
     |                        A N C O P T                        |
     |                   =====================                   |
     |               Approximate Normal Coordinate               |
     |                Rational Function Optimizer                |
      ----------------------------------------------------------- 

          ...................................................
          :                      SETUP                      :
          :.................................................:
          :   optimization level            normal          :
          :   max. optcycles                   783          :
          :   ANC micro-cycles                  20          :
          :   degrees of freedom               777          :
          :.................................................:
          :   RF solver                   davidson          :
          :   write xtbopt.log                true          :
          :   linear?                        false          :
          :   energy convergence         0.5000000E-05 Eh   :
          :   grad. convergence          0.1000000E-02 Eh/α :
          :   maximium RF displ.         1.0000000          :
          :   Hlow (freq-cutoff)         0.1000000E-01      :
          :   Hmax (freq-cutoff)         5.0000000          :
          :   S6 in model hess.         20.0000000          :
          ...................................................

generating ANC from model Hessian ...
Using Lindh-Hessian (1995)
 Shifting diagonal of input Hessian by   1.001506216399909E-002
 Lowest  eigenvalues of input Hessian
    0.010000    0.010007    0.000000    0.000000    0.000000    0.000000
    0.000000    0.000000    0.010017    0.010025    0.010038    0.010044
    0.010080    0.010085    0.010110    0.010118    0.010129    0.010145
 Highest eigenvalues
    2.222184    2.255653    2.499454    2.509855    2.555066    2.561219
 

........................................................................
.............................. CYCLE    1 ..............................
........................................................................
   1   -437.3399276 -0.437340E+03  0.269E-04    0.39       0.0  T
   2   -437.3399276  0.234303E-08  0.235E-04    0.39      26.3  T
   3   -437.3399276 -0.109757E-07  0.126E-04    0.39      49.0  T
     SCC iter.                  ...        0 min,  0.187 sec
     gradient                   ...        0 min,  0.229 sec
 * total energy  :  -430.4691264 Eh     change       -0.2805058E-07 Eh
   gradient norm :     0.3622529 Eh/α   predicted     0.0000000E+00 (-100.00%)
   displ. norm   :     0.5413411 α      lambda       -0.1518150E+00
   maximum displ.:     0.1124973 α      in ANC's #481, #455, #434, ...

........................................................................
.............................. CYCLE    2 ..............................
........................................................................
   1   -437.5847622 -0.437585E+03  0.264E-01    0.38       0.0  T
   2   -437.5863916 -0.162940E-02  0.162E-01    0.46       1.0  T
   3   -437.5855890  0.802595E-03  0.903E-02    0.43       1.0  T
   4   -437.5870895 -0.150044E-02  0.342E-02    0.46       1.0  T
   5   -437.5872882 -0.198721E-03  0.167E-02    0.45       1.0  T
   6   -437.5873314 -0.432014E-04  0.663E-03    0.46       1.0  T
   7   -437.5873359 -0.451156E-05  0.372E-03    0.45       1.7  T
   8   -437.5873391 -0.321082E-05  0.155E-03    0.46       4.0  T
   9   -437.5873392 -0.854927E-07  0.870E-04    0.46       7.1  T
  10   -437.5873393 -0.118690E-06  0.338E-04    0.46      18.3  T
     SCC iter.                  ...        0 min,  0.596 sec
     gradient                   ...        0 min,  0.230 sec
 * total energy  :  -430.5829893 Eh     change       -0.1138629E+00 Eh
   gradient norm :     0.1779063 Eh/α   predicted    -0.9819861E-01 ( -13.76%)
   displ. norm   :     0.5433403 α      lambda       -0.7076208E-01
   maximum displ.:     0.1113709 α      in ANC's #271, #259, #251, ...

........................................................................
.............................. CYCLE    3 ..............................
........................................................................
   1   -437.7534743 -0.437753E+03  0.218E-01    0.40       0.0  T
   2   -437.7546237 -0.114942E-02  0.134E-01    0.49       1.0  T
   3   -437.7541019  0.521771E-03  0.811E-02    0.45       1.0  T
   4   -437.7553830 -0.128106E-02  0.322E-02    0.49       1.0  T
   5   -437.7555819 -0.198957E-03  0.156E-02    0.48       1.0  T
   6   -437.7556223 -0.403355E-04  0.615E-03    0.48       1.0  T
   7   -437.7556266 -0.427979E-05  0.344E-03    0.48       1.8  T
   8   -437.7556293 -0.278157E-05  0.131E-03    0.48       4.7  T
   9   -437.7556294 -0.945169E-07  0.757E-04    0.48       8.2  T
  10   -437.7556295 -0.751078E-07  0.280E-04    0.48      22.1  T
     SCC iter.                  ...        0 min,  0.582 sec
     gradient                   ...        0 min,  0.229 sec
 * total energy  :  -430.6293424 Eh     change       -0.4635317E-01 Eh
   gradient norm :     0.0539494 Eh/α   predicted    -0.4582619E-01 (  -1.14%)
   displ. norm   :     0.5341434 α      lambda       -0.1938468E-01
   maximum displ.:     0.0997340 α      in ANC's #108, #123, #141, ...

........................................................................
.............................. CYCLE    4 ..............................
........................................................................
   1   -437.8275982 -0.437828E+03  0.124E-01    0.45       0.0  T
   2   -437.8277455 -0.147381E-03  0.791E-02    0.51       1.0  T
   3   -437.8273184  0.427163E-03  0.537E-02    0.47       1.0  T
   4   -437.8281204 -0.802013E-03  0.175E-02    0.50       1.0  T
   5   -437.8281895 -0.691187E-04  0.800E-03    0.50       1.0  T
   6   -437.8281998 -0.102931E-04  0.322E-03    0.50       1.9  T
   7   -437.8282015 -0.170333E-05  0.147E-03    0.50       4.2  T
   8   -437.8282019 -0.376049E-06  0.620E-04    0.50      10.0  T
   9   -437.8282019 -0.322182E-07  0.371E-04    0.50      16.7  T
     SCC iter.                  ...        0 min,  0.530 sec
     gradient                   ...        0 min,  0.230 sec
 * total energy  :  -430.6428467 Eh     change       -0.1350423E-01 Eh
   gradient norm :     0.0299076 Eh/α   predicted    -0.1245773E-01 (  -7.75%)
   displ. norm   :     0.6361022 α      lambda       -0.1135809E-01
   maximum displ.:     0.1405254 α      in ANC's #38, #108, #63, ...

........................................................................
.............................. CYCLE    5 ..............................
........................................................................
   1   -437.8635320 -0.437864E+03  0.224E-01    0.44       0.0  T
   2   -437.8637010 -0.168922E-03  0.128E-01    0.49       1.0  T
   3   -437.8609604  0.274059E-02  0.866E-02    0.44       1.0  T
   4   -437.8640613 -0.310097E-02  0.170E-02    0.49       1.0  T
   5   -437.8641335 -0.721117E-04  0.784E-03    0.48       1.0  T
   6   -437.8641430 -0.953626E-05  0.330E-03    0.48       1.9  T
   7   -437.8641445 -0.153177E-05  0.150E-03    0.48       4.1  T
   8   -437.8641449 -0.338748E-06  0.682E-04    0.48       9.1  T
   9   -437.8641449 -0.453285E-07  0.384E-04    0.48      16.1  T
     SCC iter.                  ...        0 min,  0.517 sec
     gradient                   ...        0 min,  0.229 sec
 * total energy  :  -430.6479231 Eh     change       -0.5076463E-02 Eh
   gradient norm :     0.0426472 Eh/α   predicted    -0.7976935E-02 (  57.14%)
   displ. norm   :     0.5707608 α      lambda       -0.1032162E-01
   maximum displ.:     0.1666069 α      in ANC's #57, #99, #108, ...

........................................................................
.............................. CYCLE    6 ..............................
........................................................................
   1   -437.8914848 -0.437891E+03  0.180E-01    0.48       0.0  T
   2   -437.8915758 -0.909724E-04  0.102E-01    0.52       1.0  T
   3   -437.8899185  0.165724E-02  0.650E-02    0.48       1.0  T
   4   -437.8917621 -0.184355E-02  0.990E-03    0.51       1.0  T
   5   -437.8917776 -0.155440E-04  0.527E-03    0.51       1.2  T
   6   -437.8917815 -0.386033E-05  0.239E-03    0.51       2.6  T
   7   -437.8917824 -0.878819E-06  0.107E-03    0.51       5.8  T
   8   -437.8917826 -0.218045E-06  0.465E-04    0.51      13.3  T
   9   -437.8917826 -0.171350E-07  0.273E-04    0.51      22.7  T
     SCC iter.                  ...        0 min,  0.553 sec
     gradient                   ...        0 min,  0.238 sec
 * total energy  :  -430.6530966 Eh     change       -0.5173510E-02 Eh
   gradient norm :     0.0370803 Eh/α   predicted    -0.6842040E-02 (  32.25%)
   displ. norm   :     0.4529057 α      lambda       -0.4291021E-02
   maximum displ.:     0.1173812 α      in ANC's #97, #75, #63, ...

........................................................................
.............................. CYCLE    7 ..............................
........................................................................
   1   -437.8813346 -0.437881E+03  0.122E-01    0.51       0.0  T
   2   -437.8813620 -0.274548E-04  0.697E-02    0.53       1.0  T
   3   -437.8805546  0.807420E-03  0.490E-02    0.51       1.0  T
   4   -437.8814530 -0.898366E-03  0.620E-03    0.53       1.0  T
   5   -437.8814583 -0.536296E-05  0.328E-03    0.53       1.9  T
   6   -437.8814599 -0.160953E-05  0.156E-03    0.53       4.0  T
   7   -437.8814604 -0.468089E-06  0.677E-04    0.53       9.1  T
   8   -437.8814605 -0.985256E-07  0.285E-04    0.53      21.7  T
     SCC iter.                  ...        0 min,  0.485 sec
     gradient                   ...        0 min,  0.228 sec
 * total energy  :  -430.6553508 Eh     change       -0.2254123E-02 Eh
   gradient norm :     0.0243660 Eh/α   predicted    -0.2585653E-02 (  14.71%)
   displ. norm   :     0.5833840 α      lambda       -0.5499856E-02
   maximum displ.:     0.1669059 α      in ANC's #63, #38, #60, ...

........................................................................
.............................. CYCLE    8 ..............................
........................................................................
   1   -437.8786668 -0.437879E+03  0.192E-01    0.50       0.0  T
   2   -437.8787986 -0.131845E-03  0.107E-01    0.53       1.0  T
   3   -437.8778827  0.915943E-03  0.510E-02    0.50       1.0  T
   4   -437.8788933 -0.101068E-02  0.104E-02    0.53       1.0  T
   5   -437.8789166 -0.232504E-04  0.542E-03    0.52       1.1  T
   6   -437.8789214 -0.483991E-05  0.212E-03    0.52       2.9  T
   7   -437.8789223 -0.829007E-06  0.845E-04    0.52       7.3  T
   8   -437.8789224 -0.112442E-06  0.409E-04    0.52      15.1  T
     SCC iter.                  ...        0 min,  0.471 sec
     gradient                   ...        0 min,  0.230 sec
 * total energy  :  -430.6580177 Eh     change       -0.2666920E-02 Eh
   gradient norm :     0.0451334 Eh/α   predicted    -0.3685832E-02 (  38.21%)
   displ. norm   :     0.4480185 α      lambda       -0.3037754E-02
   maximum displ.:     0.1283175 α      in ANC's #63, #60, #52, ...

........................................................................
.............................. CYCLE    9 ..............................
........................................................................
   1   -437.8899920 -0.437890E+03  0.107E-01    0.52       0.0  T
   2   -437.8900332 -0.412485E-04  0.603E-02    0.55       1.0  T
   3   -437.8895475  0.485745E-03  0.365E-02    0.52       1.0  T
   4   -437.8900854 -0.537897E-03  0.732E-03    0.54       1.0  T
   5   -437.8900975 -0.121647E-04  0.345E-03    0.54       1.8  T
   6   -437.8900997 -0.215508E-05  0.140E-03    0.54       4.4  T
   7   -437.8901000 -0.306117E-06  0.643E-04    0.54       9.6  T
   8   -437.8901001 -0.845332E-07  0.255E-04    0.54      24.3  T
     SCC iter.                  ...        0 min,  0.466 sec
     gradient                   ...        0 min,  0.230 sec
 * total energy  :  -430.6597316 Eh     change       -0.1713917E-02 Eh
   gradient norm :     0.0173853 Eh/α   predicted    -0.1823751E-02 (   6.41%)
   displ. norm   :     0.5698123 α      lambda       -0.3198597E-02
   maximum displ.:     0.1581490 α      in ANC's #64, #60, #63, ...

........................................................................
.............................. CYCLE   10 ..............................
........................................................................
   1   -437.8943118 -0.437894E+03  0.126E-01    0.53       0.0  T
   2   -437.8943473 -0.354694E-04  0.720E-02    0.56       1.0  T
   3   -437.8933851  0.962205E-03  0.517E-02    0.53       1.0  T
   4   -437.8944652 -0.108010E-02  0.803E-03    0.56       1.0  T
   5   -437.8944772 -0.119723E-04  0.383E-03    0.56       1.6  T
   6   -437.8944790 -0.183828E-05  0.166E-03    0.56       3.7  T
   7   -437.8944795 -0.469377E-06  0.855E-04    0.56       7.2  T
   8   -437.8944796 -0.181480E-06  0.322E-04    0.56      19.2  T
     SCC iter.                  ...        0 min,  0.465 sec
     gradient                   ...        0 min,  0.230 sec
 * total energy  :  -430.6612222 Eh     change       -0.1490581E-02 Eh
   gradient norm :     0.0314625 Eh/α   predicted    -0.2118571E-02 (  42.13%)
   displ. norm   :     0.5139602 α      lambda       -0.2610739E-02
   maximum displ.:     0.1314637 α      in ANC's #63, #36, #60, ...

........................................................................
.............................. CYCLE   11 ..............................
........................................................................
   1   -437.8890909 -0.437889E+03  0.115E-01    0.56       0.0  T
   2   -437.8891216 -0.306603E-04  0.651E-02    0.57       1.0  T
   3   -437.8886387  0.482933E-03  0.364E-02    0.55       1.0  T
   4   -437.8891676 -0.528968E-03  0.553E-03    0.57       1.1  T
   5   -437.8891722 -0.453870E-05  0.313E-03    0.57       2.0  T
   6   -437.8891737 -0.156069E-05  0.113E-03    0.57       5.5  T
   7   -437.8891739 -0.199817E-06  0.462E-04    0.57      13.4  T
   8   -437.8891740 -0.307421E-07  0.211E-04    0.57      29.3  T
     SCC iter.                  ...        0 min,  0.471 sec
     gradient                   ...        0 min,  0.228 sec
 * total energy  :  -430.6629327 Eh     change       -0.1710508E-02 Eh
   gradient norm :     0.0196875 Eh/α   predicted    -0.1650196E-02 (  -3.53%)
   displ. norm   :     0.5970183 α      lambda       -0.2303540E-02
   maximum displ.:     0.1385345 α      in ANC's #23, #42, #22, ...

........................................................................
.............................. CYCLE   12 ..............................
........................................................................
   1   -437.8858851 -0.437886E+03  0.139E-01    0.56       0.0  T
   2   -437.8859350 -0.499298E-04  0.773E-02    0.57       1.0  T
   3   -437.8856083  0.326712E-03  0.332E-02    0.56       1.0  T
   4   -437.8859724 -0.364072E-03  0.577E-03    0.57       1.1  T
   5   -437.8859775 -0.508610E-05  0.358E-03    0.57       1.7  T
   6   -437.8859804 -0.293518E-05  0.122E-03    0.57       5.1  T
   7   -437.8859806 -0.229479E-06  0.583E-04    0.57      10.6  T
   8   -437.8859807 -0.769692E-07  0.251E-04    0.57      24.7  T
     SCC iter.                  ...        0 min,  0.469 sec
     gradient                   ...        0 min,  0.229 sec
 * total energy  :  -430.6640716 Eh     change       -0.1138875E-02 Eh
   gradient norm :     0.0266922 Eh/α   predicted    -0.1562304E-02 (  37.18%)
   displ. norm   :     0.5443163 α      lambda       -0.1888009E-02
   maximum displ.:     0.1424818 α      in ANC's #23, #52, #49, ...

........................................................................
.............................. CYCLE   13 ..............................
........................................................................
   1   -437.8917081 -0.437892E+03  0.788E-02    0.57       0.0  T
   2   -437.8917238 -0.157318E-04  0.448E-02    0.57       1.0  T
   3   -437.8916221  0.101770E-03  0.191E-02    0.57       1.0  T
   4   -437.8917365 -0.114422E-03  0.384E-03    0.57       1.6  T
   5   -437.8917383 -0.181786E-05  0.229E-03    0.57       2.7  T
   6   -437.8917392 -0.851700E-06  0.979E-04    0.57       6.3  T
   7   -437.8917394 -0.241628E-06  0.436E-04    0.57      14.2  T
     SCC iter.                  ...        0 min,  0.410 sec
     gradient                   ...        0 min,  0.230 sec
 * total energy  :  -430.6655028 Eh     change       -0.1431225E-02 Eh
   gradient norm :     0.0153199 Eh/α   predicted    -0.1223694E-02 ( -14.50%)
   displ. norm   :     0.6580061 α      lambda       -0.1684764E-02
   maximum displ.:     0.1810140 α      in ANC's #23, #22, #42, ...

........................................................................
.............................. CYCLE   14 ..............................
........................................................................
   1   -437.8954363 -0.437895E+03  0.727E-02    0.57       0.0  T
   2   -437.8954497 -0.133977E-04  0.419E-02    0.58       1.0  T
   3   -437.8952583  0.191427E-03  0.224E-02    0.57       1.0  T
   4   -437.8954609 -0.202620E-03  0.554E-03    0.58       1.1  T
   5   -437.8954693 -0.844270E-05  0.252E-03    0.57       2.5  T
   6   -437.8954705 -0.121197E-05  0.944E-04    0.57       6.6  T
   7   -437.8954707 -0.120686E-06  0.444E-04    0.57      13.9  T
   8   -437.8954707 -0.390192E-07  0.178E-04    0.57      34.8  T
     SCC iter.                  ...        0 min,  0.463 sec
     gradient                   ...        0 min,  0.231 sec
 * total energy  :  -430.6668627 Eh     change       -0.1359883E-02 Eh
   gradient norm :     0.0124738 Eh/α   predicted    -0.1207120E-02 ( -11.23%)
   displ. norm   :     0.7407958 α      lambda       -0.1490992E-02
   maximum displ.:     0.2162474 α      in ANC's #23, #22, #42, ...

........................................................................
.............................. CYCLE   15 ..............................
........................................................................
   1   -437.8924947 -0.437892E+03  0.807E-02    0.57       0.0  T
   2   -437.8925107 -0.160426E-04  0.463E-02    0.57       1.0  T
   3   -437.8924203  0.904196E-04  0.168E-02    0.57       1.0  T
   4   -437.8925156 -0.952772E-04  0.475E-03    0.58       1.3  T
   5   -437.8925209 -0.533313E-05  0.254E-03    0.57       2.4  T
   6   -437.8925225 -0.161454E-05  0.952E-04    0.58       6.5  T
   7   -437.8925227 -0.156689E-06  0.406E-04    0.57      15.3  T
   8   -437.8925227 -0.296521E-07  0.166E-04    0.57      37.3  T
     SCC iter.                  ...        0 min,  0.473 sec
     gradient                   ...        0 min,  0.231 sec
 * total energy  :  -430.6681420 Eh     change       -0.1279389E-02 Eh
   gradient norm :     0.0130690 Eh/α   predicted    -0.1154617E-02 (  -9.75%)
   displ. norm   :     0.7649241 α      lambda       -0.1490818E-02
   maximum displ.:     0.2271862 α      in ANC's #23, #22, #15, ...

........................................................................
.............................. CYCLE   16 ..............................
........................................................................
   1   -437.8971627 -0.437897E+03  0.735E-02    0.58       0.0  T
   2   -437.8971763 -0.136441E-04  0.426E-02    0.57       1.0  T
   3   -437.8970985  0.778228E-04  0.162E-02    0.58       1.0  T
   4   -437.8971818 -0.832356E-04  0.412E-03    0.57       1.5  T
   5   -437.8971859 -0.416084E-05  0.190E-03    0.57       3.3  T
   6   -437.8971866 -0.717101E-06  0.780E-04    0.57       7.9  T
   7   -437.8971867 -0.868336E-07  0.328E-04    0.57      18.9  T
     SCC iter.                  ...        0 min,  0.418 sec
     gradient                   ...        0 min,  0.229 sec
 * total energy  :  -430.6693731 Eh     change       -0.1231019E-02 Eh
   gradient norm :     0.0127359 Eh/α   predicted    -0.1181561E-02 (  -4.02%)
   displ. norm   :     0.7776435 α      lambda       -0.1297893E-02
   maximum displ.:     0.2388081 α      in ANC's #23, #22, #15, ...

........................................................................
.............................. CYCLE   17 ..............................
........................................................................
   1   -437.8892699 -0.437889E+03  0.806E-02    0.58       0.0  T
   2   -437.8892903 -0.204724E-04  0.463E-02    0.58       1.0  T
   3   -437.8892185  0.717869E-04  0.154E-02    0.58       1.0  T
   4   -437.8892929 -0.744006E-04  0.497E-03    0.58       1.2  T
   5   -437.8892998 -0.683733E-05  0.233E-03    0.58       2.7  T
   6   -437.8893010 -0.116834E-05  0.101E-03    0.58       6.1  T
   7   -437.8893011 -0.183255E-06  0.409E-04    0.58      15.1  T
   8   -437.8893012 -0.327005E-07  0.169E-04    0.58      36.6  T
     SCC iter.                  ...        0 min,  0.459 sec
     gradient                   ...        0 min,  0.229 sec
 * total energy  :  -430.6704703 Eh     change       -0.1097245E-02 Eh
   gradient norm :     0.0100857 Eh/α   predicted    -0.1041385E-02 (  -5.09%)
   displ. norm   :     0.7582508 α      lambda       -0.1153104E-02
   maximum displ.:     0.2376371 α      in ANC's #23, #15, #22, ...

........................................................................
.............................. CYCLE   18 ..............................
........................................................................
   1   -437.8935064 -0.437894E+03  0.658E-02    0.58       0.0  T
   2   -437.8935193 -0.129651E-04  0.382E-02    0.58       1.0  T
   3   -437.8934778  0.414855E-04  0.124E-02    0.59       1.0  T
   4   -437.8935236 -0.457380E-04  0.307E-03    0.58       2.0  T
   5   -437.8935257 -0.216640E-05  0.150E-03    0.58       4.1  T
   6   -437.8935261 -0.346923E-06  0.788E-04    0.58       7.9  T
   7   -437.8935262 -0.136287E-06  0.331E-04    0.58      18.7  T
     SCC iter.                  ...        0 min,  0.400 sec
     gradient                   ...        0 min,  0.231 sec
 * total energy  :  -430.6714632 Eh     change       -0.9929353E-03 Eh
   gradient norm :     0.0105359 Eh/α   predicted    -0.9080388E-03 (  -8.55%)
   displ. norm   :     0.7948068 α      lambda       -0.1128659E-02
   maximum displ.:     0.2451065 α      in ANC's #23, #15, #22, ...

........................................................................
.............................. CYCLE   19 ..............................
........................................................................
   1   -437.8890349 -0.437889E+03  0.682E-02    0.58       0.0  T
   2   -437.8890487 -0.138389E-04  0.396E-02    0.59       1.0  T
   3   -437.8889407  0.108019E-03  0.178E-02    0.58       1.0  T
   4   -437.8890528 -0.112132E-03  0.496E-03    0.59       1.2  T
   5   -437.8890602 -0.740254E-05  0.211E-03    0.58       2.9  T
   6   -437.8890611 -0.879000E-06  0.872E-04    0.59       7.1  T
   7   -437.8890612 -0.113519E-06  0.389E-04    0.58      15.9  T
     SCC iter.                  ...        0 min,  0.424 sec
     gradient                   ...        0 min,  0.238 sec
 * total energy  :  -430.6724194 Eh     change       -0.9561054E-03 Eh
   gradient norm :     0.0093898 Eh/α   predicted    -0.9208289E-03 (  -3.69%)
   displ. norm   :     0.7649766 α      lambda       -0.1158910E-02
   maximum displ.:     0.2435170 α      in ANC's #15, #23, #9, ...

........................................................................
.............................. CYCLE   20 ..............................
........................................................................
   1   -437.8993612 -0.437899E+03  0.632E-02    0.59       0.0  T
   2   -437.8993728 -0.116635E-04  0.366E-02    0.59       1.0  T
   3   -437.8993098  0.630359E-04  0.144E-02    0.59       1.0  T
   4   -437.8993772 -0.674116E-04  0.373E-03    0.59       1.7  T
   5   -437.8993809 -0.368166E-05  0.183E-03    0.59       3.4  T
   6   -437.8993816 -0.653887E-06  0.809E-04    0.59       7.7  T
   7   -437.8993817 -0.122916E-06  0.351E-04    0.59      17.6  T
     SCC iter.                  ...        0 min,  0.416 sec
     gradient                   ...        0 min,  0.228 sec
 * total energy  :  -430.6733813 Eh     change       -0.9619021E-03 Eh
   gradient norm :     0.0098973 Eh/α   predicted    -0.9185474E-03 (  -4.51%)
   displ. norm   :     0.8040602 α      lambda       -0.1029235E-02
   maximum displ.:     0.2577688 α      in ANC's #15, #23, #9, ...
 * RMSD in coord.:     0.5895480 α      energy gain  -0.2042549E+00 Eh

generating ANC from model Hessian ...
Using Lindh-Hessian (1995)
 Shifting diagonal of input Hessian by   1.001921790849821E-002
 Lowest  eigenvalues of input Hessian
    0.010000    0.010011    0.000000    0.000000    0.000000    0.000000
    0.000000    0.000000    0.010020    0.010026    0.010043    0.010046
    0.010081    0.010089    0.010117    0.010130    0.010137    0.010158
 Highest eigenvalues
    2.282993    2.289109    2.601567    2.605244    2.652263    2.653247
 

........................................................................
.............................. CYCLE   21 ..............................
........................................................................
   1   -437.8961091 -0.437896E+03  0.673E-02    0.59       0.0  T
   2   -437.8961174 -0.826151E-05  0.392E-02    0.60       1.0  T
   3   -437.8959708  0.146579E-03  0.198E-02    0.59       1.0  T
   4   -437.8961255 -0.154733E-03  0.448E-03    0.60       1.4  T
   5   -437.8961318 -0.629196E-05  0.178E-03    0.60       3.5  T
   6   -437.8961323 -0.537784E-06  0.769E-04    0.60       8.0  T
   7   -437.8961324 -0.810884E-07  0.344E-04    0.60      18.0  T
     SCC iter.                  ...        0 min,  0.417 sec
     gradient                   ...        0 min,  0.229 sec
 * total energy  :  -430.6742941 Eh     change       -0.9128120E-03 Eh
   gradient norm :     0.0101360 Eh/α   predicted     0.0000000E+00 (-100.00%)
   displ. norm   :     0.1425013 α      lambda       -0.3982553E-03
   maximum displ.:     0.0368252 α      in ANC's #9, #8, #19, ...

........................................................................
.............................. CYCLE   22 ..............................
........................................................................
   1   -437.8981254 -0.437898E+03  0.380E-02    0.59       0.0  T
   2   -437.8981292 -0.378282E-05  0.212E-02    0.60       1.0  T
   3   -437.8980932  0.360216E-04  0.993E-03    0.59       1.0  T
   4   -437.8981331 -0.398813E-04  0.174E-03    0.59       3.6  T
   5   -437.8981337 -0.601014E-06  0.972E-04    0.59       6.4  T
   6   -437.8981339 -0.175712E-06  0.382E-04    0.59      16.2  T
     SCC iter.                  ...        0 min,  0.364 sec
     gradient                   ...        0 min,  0.232 sec
 * total energy  :  -430.6745732 Eh     change       -0.2791817E-03 Eh
   gradient norm :     0.0057419 Eh/α   predicted    -0.2031734E-03 ( -27.23%)
   displ. norm   :     0.3988643 α      lambda       -0.7760930E-03
   maximum displ.:     0.1092584 α      in ANC's #9, #8, #19, ...

........................................................................
.............................. CYCLE   23 ..............................
........................................................................
   1   -437.9017401 -0.437902E+03  0.631E-02    0.59       0.0  T
   2   -437.9017507 -0.105974E-04  0.356E-02    0.59       1.0  T
   3   -437.9016011  0.149601E-03  0.206E-02    0.59       1.0  T
   4   -437.9017670 -0.165944E-03  0.363E-03    0.59       1.7  T
   5   -437.9017694 -0.233843E-05  0.207E-03    0.59       3.0  T
   6   -437.9017701 -0.740671E-06  0.807E-04    0.59       7.7  T
   7   -437.9017702 -0.103685E-06  0.376E-04    0.59      16.5  T
     SCC iter.                  ...        0 min,  0.425 sec
     gradient                   ...        0 min,  0.229 sec
 * total energy  :  -430.6750112 Eh     change       -0.4379857E-03 Eh
   gradient norm :     0.0101673 Eh/α   predicted    -0.4497826E-03 (   2.69%)
   displ. norm   :     0.3978147 α      lambda       -0.6049120E-03
   maximum displ.:     0.1122430 α      in ANC's #33, #9, #8, ...

........................................................................
.............................. CYCLE   24 ..............................
........................................................................
   1   -437.9011975 -0.437901E+03  0.527E-02    0.59       0.0  T
   2   -437.9012046 -0.715065E-05  0.298E-02    0.59       1.0  T
   3   -437.9011433  0.612805E-04  0.131E-02    0.60       1.0  T
   4   -437.9012108 -0.675024E-04  0.268E-03    0.59       2.3  T
   5   -437.9012124 -0.150535E-05  0.149E-03    0.59       4.1  T
   6   -437.9012127 -0.388784E-06  0.600E-04    0.59      10.3  T
   7   -437.9012128 -0.709153E-07  0.248E-04    0.59      25.0  T
     SCC iter.                  ...        0 min,  0.425 sec
     gradient                   ...        0 min,  0.229 sec
 * total energy  :  -430.6753586 Eh     change       -0.3473454E-03 Eh
   gradient norm :     0.0140618 Eh/α   predicted    -0.3503220E-03 (   0.86%)
   displ. norm   :     0.5057067 α      lambda       -0.8585596E-03
   maximum displ.:     0.1472633 α      in ANC's #9, #19, #8, ...

........................................................................
.............................. CYCLE   25 ..............................
........................................................................
   1   -437.8963638 -0.437896E+03  0.687E-02    0.59       0.0  T
   2   -437.8963754 -0.116167E-04  0.387E-02    0.59       1.0  T
   3   -437.8962852  0.901791E-04  0.152E-02    0.60       1.0  T
   4   -437.8963838 -0.985907E-04  0.327E-03    0.60       1.9  T
   5   -437.8963862 -0.238670E-05  0.175E-03    0.59       3.5  T
   6   -437.8963867 -0.510877E-06  0.694E-04    0.60       8.9  T
   7   -437.8963868 -0.703481E-07  0.302E-04    0.60      20.5  T
     SCC iter.                  ...        0 min,  0.422 sec
     gradient                   ...        0 min,  0.229 sec
 * total energy  :  -430.6759196 Eh     change       -0.5609887E-03 Eh
   gradient norm :     0.0142279 Eh/α   predicted    -0.5390955E-03 (  -3.90%)
   displ. norm   :     0.5447122 α      lambda       -0.1009998E-02
   maximum displ.:     0.1632326 α      in ANC's #9, #19, #8, ...

........................................................................
.............................. CYCLE   26 ..............................
........................................................................
   1   -437.8917978 -0.437892E+03  0.665E-02    0.59       0.0  T
   2   -437.8918107 -0.128710E-04  0.380E-02    0.60       1.0  T
   3   -437.8917174  0.933244E-04  0.164E-02    0.59       1.0  T
   4   -437.8918187 -0.101376E-03  0.342E-03    0.59       1.8  T
   5   -437.8918213 -0.257244E-05  0.188E-03    0.59       3.3  T
   6   -437.8918220 -0.735274E-06  0.840E-04    0.59       7.4  T
   7   -437.8918222 -0.111471E-06  0.405E-04    0.59      15.3  T
     SCC iter.                  ...        0 min,  0.430 sec
     gradient                   ...        0 min,  0.230 sec
 * total energy  :  -430.6765951 Eh     change       -0.6755484E-03 Eh
   gradient norm :     0.0122826 Eh/α   predicted    -0.6548382E-03 (  -3.07%)
   displ. norm   :     0.6248600 α      lambda       -0.8448156E-03
   maximum displ.:     0.1901893 α      in ANC's #9, #19, #8, ...

........................................................................
.............................. CYCLE   27 ..............................
........................................................................
   1   -437.8931134 -0.437893E+03  0.567E-02    0.60       0.0  T
   2   -437.8931208 -0.739843E-05  0.325E-02    0.60       1.0  T
   3   -437.8930855  0.352713E-04  0.108E-02    0.60       1.0  T
   4   -437.8931237 -0.382478E-04  0.279E-03    0.60       2.2  T
   5   -437.8931256 -0.187565E-05  0.152E-03    0.60       4.1  T
   6   -437.8931261 -0.470996E-06  0.633E-04    0.60       9.8  T
   7   -437.8931262 -0.860758E-07  0.261E-04    0.60      23.8  T
     SCC iter.                  ...        0 min,  0.426 sec
     gradient                   ...        0 min,  0.230 sec
 * total energy  :  -430.6773133 Eh     change       -0.7182276E-03 Eh
   gradient norm :     0.0106832 Eh/α   predicted    -0.5873368E-03 ( -18.22%)
   displ. norm   :     0.7308124 α      lambda       -0.1088875E-02
   maximum displ.:     0.2264857 α      in ANC's #9, #19, #8, ...

........................................................................
.............................. CYCLE   28 ..............................
........................................................................
   1   -437.9000899 -0.437900E+03  0.685E-02    0.61       0.0  T
   2   -437.9001030 -0.131039E-04  0.391E-02    0.60       1.0  T
   3   -437.9000555  0.475986E-04  0.136E-02    0.61       1.0  T
   4   -437.9001084 -0.529137E-04  0.339E-03    0.60       1.8  T
   5   -437.9001106 -0.228495E-05  0.176E-03    0.60       3.5  T
   6   -437.9001111 -0.500492E-06  0.746E-04    0.60       8.3  T
   7   -437.9001113 -0.102733E-06  0.339E-04    0.60      18.2  T
     SCC iter.                  ...        0 min,  0.420 sec
     gradient                   ...        0 min,  0.232 sec
 * total energy  :  -430.6781738 Eh     change       -0.8604174E-03 Eh
   gradient norm :     0.0098472 Eh/α   predicted    -0.8352152E-03 (  -2.93%)
   displ. norm   :     0.7965189 α      lambda       -0.9729296E-03
   maximum displ.:     0.2503625 α      in ANC's #9, #19, #8, ...

........................................................................
.............................. CYCLE   29 ..............................
........................................................................
   1   -437.8994351 -0.437899E+03  0.632E-02    0.61       0.0  T
   2   -437.8994438 -0.869462E-05  0.365E-02    0.61       1.0  T
   3   -437.8993754  0.684448E-04  0.143E-02    0.60       1.0  T
   4   -437.8994458 -0.704154E-04  0.400E-03    0.61       1.5  T
   5   -437.8994511 -0.527803E-05  0.169E-03    0.61       3.7  T
   6   -437.8994516 -0.586540E-06  0.683E-04    0.61       9.1  T
   7   -437.8994517 -0.642605E-07  0.330E-04    0.61      18.8  T
     SCC iter.                  ...        0 min,  0.420 sec
     gradient                   ...        0 min,  0.231 sec
 * total energy  :  -430.6790365 Eh     change       -0.8627476E-03 Eh
   gradient norm :     0.0077879 Eh/α   predicted    -0.7951047E-03 (  -7.84%)
   displ. norm   :     0.8442122 α      lambda       -0.9509693E-03
   maximum displ.:     0.2703519 α      in ANC's #9, #19, #8, ...

........................................................................
.............................. CYCLE   30 ..............................
........................................................................
   1   -437.8988364 -0.437899E+03  0.640E-02    0.61       0.0  T
   2   -437.8988434 -0.699819E-05  0.373E-02    0.61       1.0  T
   3   -437.8987642  0.791691E-04  0.149E-02    0.61       1.0  T
   4   -437.8988465 -0.823632E-04  0.371E-03    0.61       1.7  T
   5   -437.8988513 -0.474787E-05  0.146E-03    0.61       4.2  T
   6   -437.8988517 -0.371554E-06  0.678E-04    0.61       9.1  T
   7   -437.8988517 -0.694928E-07  0.304E-04    0.61      20.4  T
     SCC iter.                  ...        0 min,  0.417 sec
     gradient                   ...        0 min,  0.229 sec
 * total energy  :  -430.6799274 Eh     change       -0.8908953E-03 Eh
   gradient norm :     0.0071280 Eh/α   predicted    -0.8143605E-03 (  -8.59%)
   displ. norm   :     0.8449587 α      lambda       -0.1002050E-02
   maximum displ.:     0.2780151 α      in ANC's #9, #8, #19, ...

........................................................................
.............................. CYCLE   31 ..............................
........................................................................
   1   -437.9050833 -0.437905E+03  0.641E-02    0.62       0.0  T
   2   -437.9050917 -0.845569E-05  0.372E-02    0.62       1.0  T
   3   -437.9050197  0.720329E-04  0.146E-02    0.62       1.0  T
   4   -437.9050950 -0.752862E-04  0.377E-03    0.62       1.6  T
   5   -437.9050998 -0.480058E-05  0.159E-03    0.62       3.9  T
   6   -437.9051002 -0.454050E-06  0.721E-04    0.62       8.6  T
   7   -437.9051003 -0.806738E-07  0.315E-04    0.62      19.6  T
     SCC iter.                  ...        0 min,  0.411 sec
     gradient                   ...        0 min,  0.231 sec
 * total energy  :  -430.6808328 Eh     change       -0.9053735E-03 Eh
   gradient norm :     0.0063285 Eh/α   predicted    -0.8587415E-03 (  -5.15%)
   displ. norm   :     0.9108472 α      lambda       -0.9526818E-03
   maximum displ.:     0.2985127 α      in ANC's #9, #8, #19, ...

........................................................................
.............................. CYCLE   32 ..............................
........................................................................
   1   -437.8969874 -0.437897E+03  0.712E-02    0.62       0.0  T
   2   -437.8969962 -0.875748E-05  0.413E-02    0.62       1.0  T
   3   -437.8969093  0.869020E-04  0.157E-02    0.62       1.0  T
   4   -437.8970015 -0.922152E-04  0.367E-03    0.62       1.7  T
   5   -437.8970056 -0.414032E-05  0.168E-03    0.62       3.7  T
   6   -437.8970061 -0.458372E-06  0.784E-04    0.62       7.9  T
   7   -437.8970062 -0.105424E-06  0.325E-04    0.62      19.1  T
     SCC iter.                  ...        0 min,  0.419 sec
     gradient                   ...        0 min,  0.238 sec
 * total energy  :  -430.6817069 Eh     change       -0.8740738E-03 Eh
   gradient norm :     0.0077091 Eh/α   predicted    -0.8715411E-03 (  -0.29%)
   displ. norm   :     0.8452306 α      lambda       -0.9617331E-03
   maximum displ.:     0.2860193 α      in ANC's #9, #8, #19, ...

........................................................................
.............................. CYCLE   33 ..............................
........................................................................
   1   -437.9045838 -0.437905E+03  0.685E-02    0.63       0.0  T
   2   -437.9045967 -0.128921E-04  0.393E-02    0.63       1.0  T
   3   -437.9045354  0.612608E-04  0.142E-02    0.63       1.0  T
   4   -437.9046011 -0.657373E-04  0.378E-03    0.63       1.6  T
   5   -437.9046050 -0.386456E-05  0.204E-03    0.63       3.0  T
   6   -437.9046059 -0.920350E-06  0.800E-04    0.63       7.7  T
   7   -437.9046060 -0.987648E-07  0.342E-04    0.63      18.1  T
     SCC iter.                  ...        0 min,  0.433 sec
     gradient                   ...        0 min,  0.238 sec
 * total energy  :  -430.6825505 Eh     change       -0.8436803E-03 Eh
   gradient norm :     0.0081103 Eh/α   predicted    -0.8244072E-03 (  -2.28%)
   displ. norm   :     0.8821009 α      lambda       -0.8736810E-03
   maximum displ.:     0.3001212 α      in ANC's #9, #8, #19, ...

........................................................................
.............................. CYCLE   34 ..............................
........................................................................
   1   -437.8997797 -0.437900E+03  0.653E-02    0.63       0.0  T
   2   -437.8997879 -0.822725E-05  0.378E-02    0.63       1.0  T
   3   -437.8997211  0.668119E-04  0.141E-02    0.63       1.0  T
   4   -437.8997921 -0.709996E-04  0.349E-03    0.63       1.8  T
   5   -437.8997956 -0.344809E-05  0.164E-03    0.63       3.8  T
   6   -437.8997960 -0.425651E-06  0.730E-04    0.63       8.5  T
   7   -437.8997961 -0.101706E-06  0.302E-04    0.63      20.5  T
     SCC iter.                  ...        0 min,  0.414 sec
     gradient                   ...        0 min,  0.229 sec
 * total energy  :  -430.6833647 Eh     change       -0.8141998E-03 Eh
   gradient norm :     0.0072103 Eh/α   predicted    -0.7767472E-03 (  -4.60%)
   displ. norm   :     0.8295556 α      lambda       -0.9222420E-03
   maximum displ.:     0.2901547 α      in ANC's #9, #8, #19, ...

........................................................................
.............................. CYCLE   35 ..............................
........................................................................
   1   -437.9058306 -0.437906E+03  0.596E-02    0.63       0.0  T
   2   -437.9058412 -0.106542E-04  0.342E-02    0.63       1.0  T
   3   -437.9057843  0.568933E-04  0.136E-02    0.63       1.0  T
   4   -437.9058433 -0.590018E-04  0.396E-03    0.63       1.6  T
   5   -437.9058483 -0.493756E-05  0.181E-03    0.63       3.4  T
   6   -437.9058489 -0.628456E-06  0.745E-04    0.63       8.3  T
   7   -437.9058490 -0.897994E-07  0.292E-04    0.63      21.2  T
     SCC iter.                  ...        0 min,  0.408 sec
     gradient                   ...        0 min,  0.229 sec
 * total energy  :  -430.6841664 Eh     change       -0.8016976E-03 Eh
   gradient norm :     0.0065601 Eh/α   predicted    -0.7784536E-03 (  -2.90%)
   displ. norm   :     0.8917869 α      lambda       -0.8178241E-03
   maximum displ.:     0.3116301 α      in ANC's #9, #8, #19, ...

........................................................................
.............................. CYCLE   36 ..............................
........................................................................
   1   -437.8999655 -0.437900E+03  0.644E-02    0.63       0.0  T
   2   -437.8999737 -0.823060E-05  0.373E-02    0.64       1.0  T
   3   -437.8998655  0.108145E-03  0.172E-02    0.63       1.0  T
   4   -437.8999805 -0.114913E-03  0.377E-03    0.64       1.6  T
   5   -437.8999845 -0.406919E-05  0.171E-03    0.63       3.6  T
   6   -437.8999850 -0.460224E-06  0.756E-04    0.63       8.2  T
   7   -437.8999851 -0.819069E-07  0.332E-04    0.63      18.7  T
     SCC iter.                  ...        0 min,  0.413 sec
     gradient                   ...        0 min,  0.228 sec
 * total energy  :  -430.6849103 Eh     change       -0.7438932E-03 Eh
   gradient norm :     0.0062417 Eh/α   predicted    -0.7341223E-03 (  -1.31%)
   displ. norm   :     0.8405157 α      lambda       -0.7872864E-03
   maximum displ.:     0.2999895 α      in ANC's #9, #8, #15, ...

........................................................................
.............................. CYCLE   37 ..............................
........................................................................
   1   -437.9024824 -0.437902E+03  0.534E-02    0.63       0.0  T
   2   -437.9024869 -0.448121E-05  0.311E-02    0.64       1.0  T
   3   -437.9023763  0.110551E-03  0.169E-02    0.63       1.0  T
   4   -437.9024934 -0.117112E-03  0.361E-03    0.64       1.7  T
   5   -437.9024975 -0.406921E-05  0.146E-03    0.63       4.2  T
   6   -437.9024978 -0.348465E-06  0.650E-04    0.63       9.5  T
   7   -437.9024979 -0.592104E-07  0.282E-04    0.63      22.0  T
     SCC iter.                  ...        0 min,  0.408 sec
     gradient                   ...        0 min,  0.227 sec
 * total energy  :  -430.6856214 Eh     change       -0.7110597E-03 Eh
   gradient norm :     0.0067262 Eh/α   predicted    -0.6717412E-03 (  -5.53%)
   displ. norm   :     0.8479124 α      lambda       -0.7598349E-03
   maximum displ.:     0.3048133 α      in ANC's #9, #8, #15, ...

........................................................................
.............................. CYCLE   38 ..............................
........................................................................
   1   -437.9036785 -0.437904E+03  0.584E-02    0.63       0.0  T
   2   -437.9036858 -0.726609E-05  0.337E-02    0.64       1.0  T
   3   -437.9035904  0.953573E-04  0.157E-02    0.63       1.0  T
   4   -437.9036922 -0.101789E-03  0.333E-03    0.63       1.9  T
   5   -437.9036953 -0.308765E-05  0.157E-03    0.63       3.9  T
   6   -437.9036957 -0.392206E-06  0.689E-04    0.63       9.0  T
   7   -437.9036958 -0.659700E-07  0.289E-04    0.63      21.4  T
     SCC iter.                  ...        0 min,  0.405 sec
     gradient                   ...        0 min,  0.228 sec
 * total energy  :  -430.6863039 Eh     change       -0.6825506E-03 Eh
   gradient norm :     0.0092642 Eh/α   predicted    -0.6530676E-03 (  -4.32%)
   displ. norm   :     0.8511249 α      lambda       -0.7903100E-03
   maximum displ.:     0.3095847 α      in ANC's #9, #8, #15, ...

........................................................................
.............................. CYCLE   39 ..............................
........................................................................
   1   -437.9083126 -0.437908E+03  0.509E-02    0.64       0.0  T
   2   -437.9083162 -0.359733E-05  0.299E-02    0.64       1.0  T
   3   -437.9082131  0.103095E-03  0.169E-02    0.63       1.0  T
   4   -437.9083239 -0.110804E-03  0.304E-03    0.64       2.0  T
   5   -437.9083267 -0.284803E-05  0.129E-03    0.63       4.8  T
   6   -437.9083270 -0.318754E-06  0.602E-04    0.64      10.3  T
   7   -437.9083271 -0.545294E-07  0.263E-04    0.63      23.5  T
     SCC iter.                  ...        0 min,  0.410 sec
     gradient                   ...        0 min,  0.229 sec
 * total energy  :  -430.6869790 Eh     change       -0.6750264E-03 Eh
   gradient norm :     0.0111431 Eh/α   predicted    -0.6814142E-03 (   0.95%)
   displ. norm   :     0.8235062 α      lambda       -0.7939725E-03
   maximum displ.:     0.3032641 α      in ANC's #9, #15, #8, ...

........................................................................
.............................. CYCLE   40 ..............................
........................................................................
   1   -437.9085905 -0.437909E+03  0.604E-02    0.64       0.0  T
   2   -437.9085984 -0.786271E-05  0.347E-02    0.64       1.0  T
   3   -437.9085165  0.819488E-04  0.147E-02    0.63       1.0  T
   4   -437.9086050 -0.885371E-04  0.309E-03    0.64       2.0  T
   5   -437.9086074 -0.241063E-05  0.153E-03    0.64       4.1  T
   6   -437.9086078 -0.362358E-06  0.704E-04    0.64       8.8  T
   7   -437.9086079 -0.864428E-07  0.279E-04    0.64      22.2  T
     SCC iter.                  ...        0 min,  0.408 sec
     gradient                   ...        0 min,  0.229 sec
 * total energy  :  -430.6876553 Eh     change       -0.6763439E-03 Eh
   gradient norm :     0.0099430 Eh/α   predicted    -0.6662118E-03 (  -1.50%)
   displ. norm   :     0.8291553 α      lambda       -0.7776416E-03
   maximum displ.:     0.3049729 α      in ANC's #9, #15, #8, ...

........................................................................
.............................. CYCLE   41 ..............................
........................................................................
   1   -437.9078079 -0.437908E+03  0.564E-02    0.64       0.0  T
   2   -437.9078149 -0.700632E-05  0.324E-02    0.64       1.0  T
   3   -437.9077630  0.518665E-04  0.125E-02    0.64       1.0  T
   4   -437.9078194 -0.564223E-04  0.271E-03    0.64       2.3  T
   5   -437.9078212 -0.177173E-05  0.140E-03    0.64       4.4  T
   6   -437.9078215 -0.344732E-06  0.624E-04    0.64       9.9  T
   7   -437.9078216 -0.607499E-07  0.264E-04    0.64      23.5  T
     SCC iter.                  ...        0 min,  0.406 sec
     gradient                   ...        0 min,  0.230 sec
 * total energy  :  -430.6883590 Eh     change       -0.7037259E-03 Eh
   gradient norm :     0.0094007 Eh/α   predicted    -0.6561369E-03 (  -6.76%)
   displ. norm   :     0.8307346 α      lambda       -0.7971667E-03
   maximum displ.:     0.3064873 α      in ANC's #15, #9, #8, ...

........................................................................
.............................. CYCLE   42 ..............................
........................................................................
   1   -437.9135183 -0.437914E+03  0.535E-02    0.64       0.0  T
   2   -437.9135282 -0.990513E-05  0.310E-02    0.64       1.0  T
   3   -437.9134688  0.594033E-04  0.143E-02    0.64       1.0  T
   4   -437.9135348 -0.659547E-04  0.268E-03    0.64       2.3  T
   5   -437.9135364 -0.164486E-05  0.117E-03    0.64       5.3  T
   6   -437.9135366 -0.134750E-06  0.660E-04    0.64       9.4  T
   7   -437.9135367 -0.839774E-07  0.304E-04    0.64      20.3  T
     SCC iter.                  ...        0 min,  0.403 sec
     gradient                   ...        0 min,  0.228 sec
 * total energy  :  -430.6890341 Eh     change       -0.6750650E-03 Eh
   gradient norm :     0.0109880 Eh/α   predicted    -0.6736601E-03 (  -0.21%)
   displ. norm   :     0.8466404 α      lambda       -0.8303145E-03
   maximum displ.:     0.3168048 α      in ANC's #9, #8, #15, ...
 * RMSD in coord.:     0.9411599 α      energy gain  -0.1565284E-01 Eh

generating ANC from model Hessian ...
Using Lindh-Hessian (1995)
 Shifting diagonal of input Hessian by   1.002796513585246E-002
 Lowest  eigenvalues of input Hessian
    0.010000    0.010016    0.010022    0.000000    0.000000    0.000000
    0.000000    0.000000    0.000000    0.010031    0.010039    0.010049
    0.010054    0.010095    0.010114    0.010122    0.010142    0.010164
 Highest eigenvalues
    2.279376    2.287443    2.599590    2.608589    2.649539    2.653936
 

........................................................................
.............................. CYCLE   43 ..............................
........................................................................
   1   -437.9067065 -0.437907E+03  0.521E-02    0.64       0.0  T
   2   -437.9067123 -0.588808E-05  0.303E-02    0.64       1.0  T
   3   -437.9066655  0.468644E-04  0.119E-02    0.64       1.0  T
   4   -437.9067155 -0.500117E-04  0.263E-03    0.64       2.3  T
   5   -437.9067174 -0.188211E-05  0.119E-03    0.64       5.2  T
   6   -437.9067176 -0.221985E-06  0.573E-04    0.64      10.8  T
   7   -437.9067176 -0.367627E-07  0.280E-04    0.64      22.1  T
     SCC iter.                  ...        0 min,  0.404 sec
     gradient                   ...        0 min,  0.230 sec
 * total energy  :  -430.6896906 Eh     change       -0.6564715E-03 Eh
   gradient norm :     0.0089142 Eh/α   predicted     0.0000000E+00 (-100.00%)
   displ. norm   :     0.0956566 α      lambda       -0.2361009E-03
   maximum displ.:     0.0355581 α      in ANC's #10, #14, #11, ...

........................................................................
.............................. CYCLE   44 ..............................
........................................................................
   1   -437.9094804 -0.437909E+03  0.156E-02    0.64       0.0  T
   2   -437.9094818 -0.135481E-05  0.885E-03    0.64       1.0  T
   3   -437.9094787  0.311187E-05  0.352E-03    0.64       1.8  T
   4   -437.9094820 -0.328549E-05  0.113E-03    0.64       5.5  T
   5   -437.9094823 -0.353955E-06  0.549E-04    0.64      11.3  T
   6   -437.9094824 -0.798237E-07  0.246E-04    0.64      25.2  T
     SCC iter.                  ...        0 min,  0.348 sec
     gradient                   ...        0 min,  0.230 sec
 * total energy  :  -430.6898648 Eh     change       -0.1742437E-03 Eh
   gradient norm :     0.0042220 Eh/α   predicted    -0.1199166E-03 ( -31.18%)
   displ. norm   :     0.2671516 α      lambda       -0.3792685E-03
   maximum displ.:     0.0990001 α      in ANC's #10, #14, #11, ...

........................................................................
.............................. CYCLE   45 ..............................
........................................................................
   1   -437.9136023 -0.437914E+03  0.523E-02    0.64       0.0  T
   2   -437.9136115 -0.927727E-05  0.291E-02    0.64       1.0  T
   3   -437.9135947  0.168083E-04  0.828E-03    0.64       1.0  T
   4   -437.9136143 -0.196159E-04  0.246E-03    0.64       2.5  T
   5   -437.9136157 -0.132031E-05  0.124E-03    0.64       5.0  T
   6   -437.9136160 -0.307856E-06  0.551E-04    0.64      11.2  T
   7   -437.9136160 -0.499022E-07  0.253E-04    0.64      24.5  T
     SCC iter.                  ...        0 min,  0.406 sec
     gradient                   ...        0 min,  0.230 sec
 * total energy  :  -430.6900279 Eh     change       -0.1631244E-03 Eh
   gradient norm :     0.0079274 Eh/α   predicted    -0.2031995E-03 (  24.57%)
   displ. norm   :     0.2340114 α      lambda       -0.3008131E-03
   maximum displ.:     0.0897566 α      in ANC's #10, #14, #11, ...

........................................................................
.............................. CYCLE   46 ..............................
........................................................................
   1   -437.9145281 -0.437915E+03  0.314E-02    0.64       0.0  T
   2   -437.9145309 -0.270854E-05  0.176E-02    0.64       1.0  T
   3   -437.9145224  0.850068E-05  0.530E-03    0.64       1.2  T
   4   -437.9145318 -0.945184E-05  0.148E-03    0.64       4.2  T
   5   -437.9145324 -0.560747E-06  0.760E-04    0.64       8.1  T
   6   -437.9145325 -0.113318E-06  0.344E-04    0.64      18.0  T
     SCC iter.                  ...        0 min,  0.372 sec
     gradient                   ...        0 min,  0.239 sec
 * total energy  :  -430.6902379 Eh     change       -0.2099329E-03 Eh
   gradient norm :     0.0088032 Eh/α   predicted    -0.1586462E-03 ( -24.43%)
   displ. norm   :     0.3730911 α      lambda       -0.3783778E-03
   maximum displ.:     0.1444317 α      in ANC's #10, #14, #11, ...

........................................................................
.............................. CYCLE   47 ..............................
........................................................................
   1   -437.9124332 -0.437912E+03  0.357E-02    0.64       0.0  T
   2   -437.9124364 -0.327100E-05  0.203E-02    0.64       1.0  T
   3   -437.9124238  0.126634E-04  0.664E-03    0.64       1.0  T
   4   -437.9124376 -0.138727E-04  0.177E-03    0.64       3.5  T
   5   -437.9124384 -0.737085E-06  0.881E-04    0.64       7.0  T
   6   -437.9124385 -0.132776E-06  0.402E-04    0.64      15.4  T
     SCC iter.                  ...        0 min,  0.368 sec
     gradient                   ...        0 min,  0.238 sec
 * total energy  :  -430.6905013 Eh     change       -0.2634031E-03 Eh
   gradient norm :     0.0081229 Eh/α   predicted    -0.2155276E-03 ( -18.18%)
   displ. norm   :     0.5793569 α      lambda       -0.6168899E-03
   maximum displ.:     0.2239094 α      in ANC's #10, #14, #11, ...

........................................................................
.............................. CYCLE   48 ..............................
........................................................................
   1   -437.9072670 -0.437907E+03  0.559E-02    0.64       0.0  T
   2   -437.9072765 -0.949144E-05  0.317E-02    0.64       1.0  T
   3   -437.9072636  0.129355E-04  0.735E-03    0.64       1.0  T
   4   -437.9072800 -0.164451E-04  0.206E-03    0.64       3.0  T
   5   -437.9072806 -0.585650E-06  0.111E-03    0.64       5.6  T
   6   -437.9072807 -0.124182E-06  0.550E-04    0.64      11.3  T
   7   -437.9072808 -0.639320E-07  0.249E-04    0.64      24.9  T
     SCC iter.                  ...        0 min,  0.418 sec
     gradient                   ...        0 min,  0.230 sec
 * total energy  :  -430.6908642 Eh     change       -0.3629079E-03 Eh
   gradient norm :     0.0091624 Eh/α   predicted    -0.4119788E-03 (  13.52%)
   displ. norm   :     0.5193902 α      lambda       -0.5194311E-03
   maximum displ.:     0.2025694 α      in ANC's #10, #14, #11, ...

........................................................................
.............................. CYCLE   49 ..............................
........................................................................
   1   -437.9069938 -0.437907E+03  0.490E-02    0.64       0.0  T
   2   -437.9069998 -0.592508E-05  0.277E-02    0.64       1.0  T
   3   -437.9069761  0.236618E-04  0.915E-03    0.65       1.0  T
   4   -437.9070033 -0.272186E-04  0.180E-03    0.64       3.4  T
   5   -437.9070038 -0.468924E-06  0.108E-03    0.64       5.8  T
   6   -437.9070040 -0.205244E-06  0.416E-04    0.64      14.9  T
   7   -437.9070040 -0.391345E-07  0.166E-04    0.64      37.2  T
     SCC iter.                  ...        0 min,  0.407 sec
     gradient                   ...        0 min,  0.229 sec
 * total energy  :  -430.6912840 Eh     change       -0.4197719E-03 Eh
   gradient norm :     0.0085779 Eh/α   predicted    -0.3297841E-03 ( -21.44%)
   displ. norm   :     0.6359949 α      lambda       -0.6568326E-03
   maximum displ.:     0.2520086 α      in ANC's #10, #11, #14, ...

........................................................................
.............................. CYCLE   50 ..............................
........................................................................
   1   -437.9111015 -0.437911E+03  0.475E-02    0.65       0.0  T
   2   -437.9111060 -0.453890E-05  0.271E-02    0.65       1.0  T
   3   -437.9110968  0.921974E-05  0.636E-03    0.65       1.0  T
   4   -437.9111079 -0.110599E-04  0.162E-03    0.65       3.8  T
   5   -437.9111081 -0.263626E-06  0.990E-04    0.65       6.3  T
   6   -437.9111084 -0.210274E-06  0.391E-04    0.65      15.8  T
     SCC iter.                  ...        0 min,  0.349 sec
     gradient                   ...        0 min,  0.230 sec
 * total energy  :  -430.6918027 Eh     change       -0.5187787E-03 Eh
   gradient norm :     0.0069958 Eh/α   predicted    -0.4612613E-03 ( -11.09%)
   displ. norm   :     0.7337546 α      lambda       -0.6301958E-03
   maximum displ.:     0.2924273 α      in ANC's #10, #11, #14, ...

........................................................................
.............................. CYCLE   51 ..............................
........................................................................
   1   -437.9124912 -0.437912E+03  0.482E-02    0.65       0.0  T
   2   -437.9124963 -0.516705E-05  0.276E-02    0.65       1.0  T
   3   -437.9124593  0.370171E-04  0.105E-02    0.65       1.0  T
   4   -437.9124989 -0.396312E-04  0.251E-03    0.65       2.5  T
   5   -437.9125008 -0.183953E-05  0.110E-03    0.65       5.6  T
   6   -437.9125010 -0.190375E-06  0.442E-04    0.65      14.0  T
   7   -437.9125010 -0.203918E-07  0.219E-04    0.65      28.3  T
     SCC iter.                  ...        0 min,  0.404 sec
     gradient                   ...        0 min,  0.228 sec
 * total energy  :  -430.6923338 Eh     change       -0.5310507E-03 Eh
   gradient norm :     0.0071279 Eh/α   predicted    -0.4847542E-03 (  -8.72%)
   displ. norm   :     0.7824753 α      lambda       -0.6784981E-03
   maximum displ.:     0.3126588 α      in ANC's #10, #11, #14, ...

........................................................................
.............................. CYCLE   52 ..............................
........................................................................
   1   -437.9141909 -0.437914E+03  0.459E-02    0.65       0.0  T
   2   -437.9141954 -0.443838E-05  0.265E-02    0.65       1.0  T
   3   -437.9141573  0.380326E-04  0.108E-02    0.65       1.0  T
   4   -437.9141975 -0.401272E-04  0.264E-03    0.65       2.3  T
   5   -437.9141997 -0.222352E-05  0.112E-03    0.65       5.5  T
   6   -437.9141999 -0.241854E-06  0.522E-04    0.65      11.9  T
   7   -437.9142000 -0.461375E-07  0.249E-04    0.65      24.8  T
     SCC iter.                  ...        0 min,  0.405 sec
     gradient                   ...        0 min,  0.232 sec
 * total energy  :  -430.6929477 Eh     change       -0.6138702E-03 Eh
   gradient norm :     0.0065794 Eh/α   predicted    -0.5469622E-03 ( -10.90%)
   displ. norm   :     0.8307380 α      lambda       -0.7088734E-03
   maximum displ.:     0.3330603 α      in ANC's #10, #11, #14, ...

........................................................................
.............................. CYCLE   53 ..............................
........................................................................
   1   -437.9135666 -0.437914E+03  0.478E-02    0.66       0.0  T
   2   -437.9135705 -0.386932E-05  0.275E-02    0.66       1.0  T
   3   -437.9135095  0.609790E-04  0.127E-02    0.65       1.0  T
   4   -437.9135734 -0.638780E-04  0.295E-03    0.66       2.1  T
   5   -437.9135764 -0.300995E-05  0.112E-03    0.65       5.5  T
   6   -437.9135766 -0.197479E-06  0.536E-04    0.66      11.6  T
   7   -437.9135766 -0.388414E-07  0.246E-04    0.66      25.2  T
     SCC iter.                  ...        0 min,  0.403 sec
     gradient                   ...        0 min,  0.230 sec
 * total energy  :  -430.6935951 Eh     change       -0.6474850E-03 Eh
   gradient norm :     0.0054391 Eh/α   predicted    -0.5990465E-03 (  -7.48%)
   displ. norm   :     0.8735984 α      lambda       -0.6824384E-03
   maximum displ.:     0.3511818 α      in ANC's #10, #11, #14, ...

........................................................................
.............................. CYCLE   54 ..............................
........................................................................
   1   -437.9117877 -0.437912E+03  0.459E-02    0.66       0.0  T
   2   -437.9117909 -0.319095E-05  0.267E-02    0.66       1.0  T
   3   -437.9117292  0.616526E-04  0.127E-02    0.65       1.0  T
   4   -437.9117943 -0.650870E-04  0.255E-03    0.66       2.4  T
   5   -437.9117965 -0.216312E-05  0.989E-04    0.66       6.3  T
   6   -437.9117966 -0.153064E-06  0.492E-04    0.66      12.6  T
   7   -437.9117967 -0.289002E-07  0.225E-04    0.66      27.5  T
     SCC iter.                  ...        0 min,  0.415 sec
     gradient                   ...        0 min,  0.230 sec
 * total energy  :  -430.6942389 Eh     change       -0.6437410E-03 Eh
   gradient norm :     0.0057069 Eh/α   predicted    -0.6016323E-03 (  -6.54%)
   displ. norm   :     0.8806029 α      lambda       -0.7006286E-03
   maximum displ.:     0.3539402 α      in ANC's #10, #11, #14, ...

........................................................................
.............................. CYCLE   55 ..............................
........................................................................
   1   -437.9127459 -0.437913E+03  0.437E-02    0.66       0.0  T
   2   -437.9127487 -0.278031E-05  0.255E-02    0.66       1.0  T
   3   -437.9126841  0.645915E-04  0.130E-02    0.65       1.0  T
   4   -437.9127526 -0.684909E-04  0.250E-03    0.66       2.5  T
   5   -437.9127546 -0.198449E-05  0.962E-04    0.66       6.4  T
   6   -437.9127547 -0.146208E-06  0.466E-04    0.66      13.3  T
   7   -437.9127547 -0.267482E-07  0.211E-04    0.66      29.3  T
     SCC iter.                  ...        0 min,  0.417 sec
     gradient                   ...        0 min,  0.229 sec
 * total energy  :  -430.6949054 Eh     change       -0.6665193E-03 Eh
   gradient norm :     0.0057403 Eh/α   predicted    -0.6219723E-03 (  -6.68%)
   displ. norm   :     0.8917588 α      lambda       -0.7292398E-03
   maximum displ.:     0.3579069 α      in ANC's #10, #11, #14, ...

........................................................................
.............................. CYCLE   56 ..............................
........................................................................
   1   -437.9134256 -0.437913E+03  0.452E-02    0.66       0.0  T
   2   -437.9134290 -0.338307E-05  0.263E-02    0.66       1.0  T
   3   -437.9133671  0.618910E-04  0.130E-02    0.65       1.0  T
   4   -437.9134327 -0.655855E-04  0.275E-03    0.66       2.3  T
   5   -437.9134350 -0.232483E-05  0.108E-03    0.66       5.7  T
   6   -437.9134352 -0.175841E-06  0.489E-04    0.66      12.7  T
   7   -437.9134352 -0.336607E-07  0.218E-04    0.66      28.4  T
     SCC iter.                  ...        0 min,  0.409 sec
     gradient                   ...        0 min,  0.231 sec
 * total energy  :  -430.6955994 Eh     change       -0.6940468E-03 Eh
   gradient norm :     0.0053511 Eh/α   predicted    -0.6545844E-03 (  -5.69%)
   displ. norm   :     0.9000497 α      lambda       -0.7340469E-03
   maximum displ.:     0.3601183 α      in ANC's #10, #11, #14, ...

........................................................................
.............................. CYCLE   57 ..............................
........................................................................
   1   -437.9148898 -0.437915E+03  0.468E-02    0.66       0.0  T
   2   -437.9148938 -0.392091E-05  0.271E-02    0.66       1.0  T
   3   -437.9148327  0.610482E-04  0.130E-02    0.66       1.0  T
   4   -437.9148972 -0.645081E-04  0.301E-03    0.66       2.1  T
   5   -437.9149000 -0.280667E-05  0.117E-03    0.66       5.3  T
   6   -437.9149002 -0.189432E-06  0.513E-04    0.66      12.1  T
   7   -437.9149003 -0.385316E-07  0.230E-04    0.66      26.9  T
     SCC iter.                  ...        0 min,  0.413 sec
     gradient                   ...        0 min,  0.229 sec
 * total energy  :  -430.6962934 Eh     change       -0.6940020E-03 Eh
   gradient norm :     0.0049249 Eh/α   predicted    -0.6643512E-03 (  -4.27%)
   displ. norm   :     0.9213256 α      lambda       -0.7131262E-03
   maximum displ.:     0.3691901 α      in ANC's #10, #11, #14, ...

........................................................................
.............................. CYCLE   58 ..............................
........................................................................
   1   -437.9135654 -0.437914E+03  0.473E-02    0.66       0.0  T
   2   -437.9135689 -0.346007E-05  0.274E-02    0.66       1.0  T
   3   -437.9135121  0.567407E-04  0.125E-02    0.66       1.0  T
   4   -437.9135721 -0.599765E-04  0.280E-03    0.66       2.2  T
   5   -437.9135745 -0.238278E-05  0.108E-03    0.66       5.7  T
   6   -437.9135746 -0.143851E-06  0.491E-04    0.66      12.6  T
   7   -437.9135747 -0.352165E-07  0.220E-04    0.66      28.1  T
     SCC iter.                  ...        0 min,  0.409 sec
     gradient                   ...        0 min,  0.227 sec
 * total energy  :  -430.6969788 Eh     change       -0.6853088E-03 Eh
   gradient norm :     0.0048864 Eh/α   predicted    -0.6592316E-03 (  -3.81%)
   displ. norm   :     0.9063090 α      lambda       -0.7241931E-03
   maximum displ.:     0.3566884 α      in ANC's #10, #11, #14, ...

........................................................................
.............................. CYCLE   59 ..............................
........................................................................
   1   -437.9192138 -0.437919E+03  0.469E-02    0.66       0.0  T
   2   -437.9192174 -0.356347E-05  0.272E-02    0.66       1.0  T
   3   -437.9191551  0.622496E-04  0.132E-02    0.66       1.0  T
   4   -437.9192212 -0.660663E-04  0.292E-03    0.66       2.1  T
   5   -437.9192238 -0.258236E-05  0.113E-03    0.66       5.5  T
   6   -437.9192240 -0.166113E-06  0.514E-04    0.66      12.0  T
   7   -437.9192240 -0.398822E-07  0.229E-04    0.66      27.0  T
     SCC iter.                  ...        0 min,  0.407 sec
     gradient                   ...        0 min,  0.229 sec
 * total energy  :  -430.6976591 Eh     change       -0.6803736E-03 Eh
   gradient norm :     0.0050587 Eh/α   predicted    -0.6595273E-03 (  -3.06%)
   displ. norm   :     0.9404732 α      lambda       -0.7295564E-03
   maximum displ.:     0.3753540 α      in ANC's #10, #11, #14, ...

........................................................................
.............................. CYCLE   60 ..............................
........................................................................
   1   -437.9127249 -0.437913E+03  0.477E-02    0.66       0.0  T
   2   -437.9127278 -0.291614E-05  0.277E-02    0.66       1.0  T
[...]
    20   6 C       21   7 N                                       1.1498559
     1   6 C       22   6 C                                       1.4006881
    22   6 C       23   6 C                                       1.4067899
    23   6 C       24   7 N                                       1.3652913
    24   7 N       25   6 C                                       1.4061446
    25   6 C       26   6 C                                       1.3919426
    26   6 C       27   6 C                                       1.3799774
    27   6 C       28   6 C                                       1.3905183
    28   6 C       30   6 C                                       1.3893156
    25   6 C       31   6 C                                       1.3927257
    30   6 C       31   6 C                                       1.3805830
    24   7 N       32   6 C                                       1.4130101
    32   6 C       33   6 C                                       1.3911965
    33   6 C       34   6 C                                       1.3804002
    34   6 C       35   6 C                                       1.3905141
    35   6 C       37   6 C                                       1.3896529
    32   6 C       38   6 C                                       1.3903613
    37   6 C       38   6 C                                       1.3811484
    23   6 C       39   6 C                                       1.4118063
    39   6 C       40  16 S                                       1.7303637
    40  16 S       41   6 C                                       1.7558863
    41   6 C       42   6 C                                       1.3834992
    42   6 C       43   7 N                                       1.4080777
    43   7 N       44   6 C                                       1.4003096
    44   6 C       45   6 C                                       1.3939180
    45   6 C       46   6 C                                       1.3794890
    46   6 C       47   6 C                                       1.3888016
    47   6 C       49   6 C                                       1.3878634
    44   6 C       50   6 C                                       1.3929945
    49   6 C       50   6 C                                       1.3809131
    43   7 N       51   6 C                                       1.4241262
    51   6 C       52   6 C                                       1.3926379
    52   6 C       53   6 C                                       1.3798975
    53   6 C       54   6 C                                       1.3907944
    54   6 C       56   6 C                                       1.3876898
    51   6 C       57   6 C                                       1.3879944
    56   6 C       57   6 C                                       1.3834064
    39   6 C       58   6 C                                       1.3870689
    42   6 C       58   6 C                                       1.4116345
    58   6 C       59  16 S                                       1.7234029
    41   6 C       60   6 C                                       1.4254467
    60   6 C       61   6 C                                       1.3813429
    62   6 C       63   6 C                                       1.3882754
    63   6 C       64   6 C                                       1.3825786
    64   6 C       65   6 C                                       1.3810976
    65   6 C       66   6 C                                       1.3924697
    67   6 C       68   6 C                                       1.5225326
    62   6 C       69   6 C                                       1.3921886
    66   6 C       69   6 C                                       1.3847628
    61   6 C       70   6 C                                       1.4094928
    70   6 C       71  16 S                                       1.7466133
    71  16 S       72   6 C                                       1.7321305
    72   6 C       73   6 C                                       1.4068982
    73   6 C       74   6 C                                       1.4121351
    74   6 C       75   6 C                                       1.4378115
    75   6 C       76   7 N                                       1.3234355
    76   7 N       77  16 S                                       1.6196434
    74   6 C       78   7 N                                       1.3234586
    77  16 S       78   7 N                                       1.6189762
    75   6 C       79   6 C                                       1.4128704
    79   6 C       80   6 C                                       1.4045975
    80   6 C       81  16 S                                       1.7327201
    81  16 S       82   6 C                                       1.7477222
    82   6 C       83   6 C                                       1.4064613
    84   6 C       85   6 C                                       1.3926222
    85   6 C       86   6 C                                       1.3800419
    86   6 C       87   6 C                                       1.3841561
    87   6 C       88   6 C                                       1.3877470
    89   6 C       90   6 C                                       1.5300303
    84   6 C       91   6 C                                       1.3885655
    88   6 C       91   6 C                                       1.3868696
    83   6 C       92   6 C                                       1.3839094
    82   6 C       94   6 C                                       1.3958835
    93  16 S       94   6 C                                       1.7259108
    80   6 C       95   6 C                                       1.3978141
    94   6 C       95   6 C                                       1.3999900
    95   6 C       96   7 N                                       1.3684416
    79   6 C       97   6 C                                       1.4227490
    96   7 N       97   6 C                                       1.3816012
    73   6 C       98   6 C                                       1.4209841
    97   6 C       98   6 C                                       1.4169016
    98   6 C       99   7 N                                       1.3862803
    72   6 C      100   6 C                                       1.3968646
    99   7 N      100   6 C                                       1.3728367
    70   6 C      101   6 C                                       1.3963429
   100   6 C      101   6 C                                       1.3990307
    60   6 C      102  16 S                                       1.7625292 (max)
   101   6 C      102  16 S                                       1.7272042
    99   7 N      103   6 C                                       1.4469171
   103   6 C      104   6 C                                       1.5290621
    96   7 N      105   6 C                                       1.4446077
   105   6 C      106   6 C                                       1.5294486
    92   6 C      107   6 C                                       1.4214409
   107   6 C      108   6 C                                       1.3915960
   108   6 C      109   7 N                                       1.3845855
   109   7 N      110   6 C                                       1.3959998
   110   6 C      111   6 C                                       1.3939417
   111   6 C      112   6 C                                       1.3810467
   112   6 C      113   6 C                                       1.3884852
   113   6 C      115   6 C                                       1.3910370
   110   6 C      116   6 C                                       1.3942128
   115   6 C      116   6 C                                       1.3789587
   109   7 N      117   6 C                                       1.4093327
   117   6 C      118   6 C                                       1.3919242
   118   6 C      119   6 C                                       1.3795256
   119   6 C      120   6 C                                       1.3894945
   120   6 C      122   6 C                                       1.3886796
   117   6 C      123   6 C                                       1.3899636
   122   6 C      123   6 C                                       1.3808672
   108   6 C      124   6 C                                       1.4140390
   124   6 C      125  16 S                                       1.7262359
   126   6 C      127   6 C                                       1.4227430
   127   6 C      128   7 N                                       1.3693224
   128   7 N      129   6 C                                       1.4084253
   129   6 C      130   6 C                                       1.3928161
   130   6 C      131   6 C                                       1.3804413
   131   6 C      132   6 C                                       1.3901506
   132   6 C      134   6 C                                       1.3901299
   129   6 C      135   6 C                                       1.3928017
   134   6 C      135   6 C                                       1.3803834
   128   7 N      136   6 C                                       1.4070283
   136   6 C      137   6 C                                       1.3925323
   137   6 C      138   6 C                                       1.3791053
   138   6 C      139   6 C                                       1.3913386
   139   6 C      141   6 C                                       1.3882403
   136   6 C      142   6 C                                       1.3915838
   141   6 C      142   6 C                                       1.3810313
   124   6 C      143   6 C                                       1.3907471
   127   6 C      143   6 C                                       1.4020125
   143   6 C      144  16 S                                       1.7366464
   126   6 C      145   6 C                                       1.3894053
   145   6 C      146   6 C                                       1.3815802
   147   6 C      148   8 O                                       1.2207697
   149   6 C      150   6 C                                       1.3634362
   150   6 C      151   6 C                                       1.4137041
   151   6 C      152   6 C                                       1.4090171
   152   6 C      153   6 C                                       1.3676760
   153   6 C      154   6 C                                       1.4005527
   154   6 C      156   6 C                                       1.3672225
   151   6 C      157   6 C                                       1.4243876
   156   6 C      157   6 C                                       1.4080434
   157   6 C      158   6 C                                       1.4156626
   149   6 C      159   6 C                                       1.4230124
   158   6 C      159   6 C                                       1.3681440
   160   6 C      161   6 C                                       1.3761195
   162   6 C      163   7 N                                       1.1502868
   164   6 C      165   7 N                                       1.1490603
     1   6 C      166   1 H                                       1.0849667
     6   6 C      167   1 H                                       1.0797895
     8   6 C      168   1 H                                       1.0797848
     9   6 C      169   1 H                                       1.0784648
    12   6 C      170   1 H                                       1.0788521
    14   6 C      171   1 H                                       1.0786195
    26   6 C      172   1 H                                       1.0796999
    27   6 C      173   1 H                                       1.0802572
    29   6 C      174   1 H                                       1.0874239
    29   6 C      175   1 H                                       1.0906035
    29   6 C      176   1 H                                       1.0873886
    30   6 C      177   1 H                                       1.0802021
    31   6 C      178   1 H                                       1.0803862
    33   6 C      179   1 H                                       1.0798177
    34   6 C      180   1 H                                       1.0801253
    36   6 C      181   1 H                                       1.0873351
    36   6 C      182   1 H                                       1.0905093
    36   6 C      183   1 H                                       1.0876163
    37   6 C      184   1 H                                       1.0800607
    38   6 C      185   1 H                                       1.0803491
    45   6 C      186   1 H                                       1.0791698
    46   6 C      187   1 H                                       1.0808748
    48   6 C      188   1 H                                       1.0901666
    48   6 C      189   1 H                                       1.0871254
    48   6 C      190   1 H                                       1.0892034
    49   6 C      191   1 H                                       1.0809430
    50   6 C      192   1 H                                       1.0795697
    52   6 C      193   1 H                                       1.0806362
    53   6 C      194   1 H                                       1.0806802
    55   6 C      195   1 H                                       1.0881825
    55   6 C      196   1 H                                       1.0871481
    55   6 C      197   1 H                                       1.0903812
    56   6 C      198   1 H                                       1.0808737
    57   6 C      199   1 H                                       1.0774175 (min)
    63   6 C      200   1 H                                       1.0797331
    64   6 C      201   1 H                                       1.0798608
    65   6 C      202   1 H                                       1.0804360
    67   6 C      203   1 H                                       1.0951565
    67   6 C      204   1 H                                       1.0930628
    68   6 C      205   1 H                                       1.0879313
    68   6 C      206   1 H                                       1.0868341
    68   6 C      207   1 H                                       1.0879036
    69   6 C      208   1 H                                       1.0789132
    85   6 C      209   1 H                                       1.0800792
    86   6 C      210   1 H                                       1.0801075
    87   6 C      211   1 H                                       1.0796265
    89   6 C      212   1 H                                       1.0920789
    89   6 C      213   1 H                                       1.0917546
    90   6 C      214   1 H                                       1.0872707
    90   6 C      215   1 H                                       1.0876837
    90   6 C      216   1 H                                       1.0877900
    91   6 C      217   1 H                                       1.0803563
   103   6 C      218   1 H                                       1.0839103
   103   6 C      219   1 H                                       1.0948844
   104   6 C      220   1 H                                       1.0881105
   104   6 C      221   1 H                                       1.0866355
   104   6 C      222   1 H                                       1.0863110
   105   6 C      223   1 H                                       1.0904080
   105   6 C      224   1 H                                       1.0960969
   106   6 C      225   1 H                                       1.0863800
   106   6 C      226   1 H                                       1.0880377
   106   6 C      227   1 H                                       1.0868870
   111   6 C      228   1 H                                       1.0797859
   112   6 C      229   1 H                                       1.0808847
   114   6 C      230   1 H                                       1.0871157
   114   6 C      231   1 H                                       1.0900241
   114   6 C      232   1 H                                       1.0890050
   115   6 C      233   1 H                                       1.0806987
   116   6 C      234   1 H                                       1.0800347
   118   6 C      235   1 H                                       1.0808015
   119   6 C      236   1 H                                       1.0803758
   121   6 C      237   1 H                                       1.0872147
   121   6 C      238   1 H                                       1.0900197
   121   6 C      239   1 H                                       1.0884220
   122   6 C      240   1 H                                       1.0804085
   123   6 C      241   1 H                                       1.0802440
   130   6 C      242   1 H                                       1.0803049
   131   6 C      243   1 H                                       1.0805783
   133   6 C      244   1 H                                       1.0870742
   133   6 C      245   1 H                                       1.0900854
   133   6 C      246   1 H                                       1.0885555
   134   6 C      247   1 H                                       1.0794283
   135   6 C      248   1 H                                       1.0783498
   137   6 C      249   1 H                                       1.0798168
   138   6 C      250   1 H                                       1.0806642
   140   6 C      251   1 H                                       1.0884318
   140   6 C      252   1 H                                       1.0866373
   140   6 C      253   1 H                                       1.0902703
   141   6 C      254   1 H                                       1.0797724
   142   6 C      255   1 H                                       1.0801094
   145   6 C      256   1 H                                       1.0822924
   150   6 C      257   1 H                                       1.0799304
   152   6 C      258   1 H                                       1.0798702
   153   6 C      259   1 H                                       1.0784900
   156   6 C      260   1 H                                       1.0788602
   158   6 C      261   1 H                                       1.0780438

 * 6 distinct bonds (by element types)

   Z      Z             #   av. dist./Å        max./Å        min./Å
   1 H    6 C          96     1.0840778     1.0960969     1.0774175
   6 C    6 C         122     1.3978259     1.5300303     1.3634362
   6 C    7 N          24     1.3515654     1.4469171     1.1490603
   6 C    8 O           2     1.2170448     1.2207697     1.2133199
   6 C   16 S          12     1.7372805     1.7625292     1.7234029
   7 N   16 S           2     1.6193098     1.6196434     1.6189762


optimized geometry written to: xtbopt.mol


           -------------------------------------------------
          | TOTAL ENERGY             -430.763942852197 Eh   |
          | GRADIENT NORM               0.000747188043 Eh/α |
          | HOMO-LUMO GAP               0.669167903947 eV   |
           -------------------------------------------------

------------------------------------------------------------------------
 * finished run on 2022/02/06 at 01:10:00.578     
------------------------------------------------------------------------
 total:
 * wall-time:     0 d,  0 h,  8 min,  2.846 sec
 *  cpu-time:     0 d,  1 h,  4 min, 22.508 sec
 * ratio c/w:     7.999 speedup
 SCF:
 * wall-time:     0 d,  0 h,  0 min,  1.086 sec
 *  cpu-time:     0 d,  0 h,  0 min,  8.666 sec
 * ratio c/w:     7.983 speedup
 ANC optimizer:
 * wall-time:     0 d,  0 h,  8 min,  1.622 sec
 *  cpu-time:     0 d,  1 h,  4 min, 12.851 sec
 * ratio c/w:     8.000 speedup

