      -----------------------------------------------------------      
     |                   =====================                   |     
     |                           x T B                           |     
     |                   =====================                   |     
     |                         S. Grimme                         |     
     |          Mulliken Center for Theoretical Chemistry        |     
     |                    University of Bonn                     |     
     |                Version 6.2 RC2 (SAW190805)                |     
      -----------------------------------------------------------      

   This program is distributed in the hope that it will be useful,
   but WITHOUT ANY WARRANTY; without even the implied warranty of
   MERCHANTABILITY or FITNESS FOR A PARTICULAR PURPOSE.
   
   FOR NON-COMMERCIAL, ACADEMIA USE ONLY.
   
   Cite this work as:
   * S. Grimme, C. Bannwarth, P. Shushkov, J. Chem. Theory Comput., 2017,
     13, 1989-2009. DOI: 10.1021/acs.jctc.7b00118
   * C. Bannwarth, S. Ehlert and S. Grimme., J. Chem. Theory Comput., 2019,
     15, 1652-1671. DOI: 10.1021/acs.jctc.8b01176
   * P. Pracht, E. Caldeweyher, S. Ehlert, S. Grimme, ChemRxiv, 2019, preprint.
     DOI: 10.26434/chemrxiv.8326202.v1
   
   for DFT-D4:
   * E. Caldeweyher, C. Bannwarth and S. Grimme, J. Chem. Phys., 2017,
     147, 034112. DOI: 10.1063/1.4993215
   * E. Caldeweyher, S. Ehlert, A. Hansen, H. Neugebauer, S. Spicher,
     C. Bannwarth and S. Grimme, J. Chem. Phys., 2019, 150, 154122.
     DOI: 10.1063/1.5090222
   
   for sTDA-xTB:
   * S. Grimme and C. Bannwarth, J. Chem. Phys., 2016, 145, 054103.
     DOI: 10.1063/1.4959605
   
   in the mass-spec context:
   * V. Asgeirsson, C. Bauer and S. Grimme, Chem. Sci., 2017, 8, 4879.
     DOI: 10.1039/c7sc00601b
   
   for metadynamics refer to:
   * S. Grimme, J. Chem. Theory Comput., 2019, 155, 2847-2862
     DOI: 10.1021/acs.jctc.9b00143
   
   with help from (in alphabetical order)
   C. Bannwarth, F. Bohle, G. Brandenburg, E. Caldeweyher, M. Checinski,
   S. Dohm, S. Ehlert, S. Ehrlich, F. März, H. Neugebauer, J. Pisarek,
   P. Pracht, P. Shushkov, and S. Spicher.
   
 * started run on 2021/11/17 at 18:02:25.014     

           -------------------------------------------------
          |                Calculation Setup                |
           -------------------------------------------------

          program call               : /ihome/ghutchison/geoffh/xtb/xtb PBQx-TF.xyz -opt
          hostname                   : smp-n118
          coordinate file            : PBQx-TF.xyz
          omp threads                :                    12
          number of atoms            :                   272
          number of electrons        :                   866
          charge                     :                     0
          spin                       :                   0.0
          first test random number   :      0.56954716072022


########################################################################
# WARNING! Please study the warnings concerning your input carefully
#  - XTBPATH is not set, using XTBHOME instead
#  - the use of '-opt' is discouraged, please use '--opt' next time
########################################################################

           ------------------------------------------------- 
          |                 G F N 2 - x T B                 |
          | Geometry, Frequencies, Noncovalent interactions |
          |            JCTC 2019 parametrisation            |
           ------------------------------------------------- 
             KAB for C  - Si     :                1.0500
             KAB for H  - Pd     :                0.9500
             k(s)              :                1.8500
             k(p)              :                2.2300
             k(d)              :                2.2300
             k(f)              :                2.0000
             kEN (H0ij)        :               -2.0000
             D4 a1             :                0.5200
             D4 a2             :                5.0000
             D4 s6             :                1.0000
             D4 s8             :                2.7000
             D4 s9             :                5.0000
             alphaj            :                2.0000

  Z AO/shell   Hii/eV     exponent
  1     Wed Apr 25 08:07:45 CEST 2018   EN: 2.200 GM2: 0.406  GM3: 0.0800  RAES: 1.40
     1s    -10.707211    1.230000
  6     Wed Apr 25 08:07:45 CEST 2018   EN: 2.550 GM2: 0.538  GM3: 0.1500  RAES: 3.00
     2s    -13.970922    2.096432
     2p    -10.063292    1.800000
  7     Wed Apr 25 08:07:45 CEST 2018   EN: 3.040 GM2: 0.461  GM3:-0.0640  RAES: 1.90
     2s    -16.686243    2.339881
     2p    -12.523956    2.014332
  9     Mon Apr 23 13:58:50 CEST 2018   EN: 3.980 GM2: 0.532  GM3: 0.1426  RAES: 2.40
     2s    -23.458179    2.416361
     2p    -15.746583    2.308399
 16     Tue Apr 24 11:44:34 CEST 2018   EN: 2.580 GM2: 0.340  GM3:-0.0502  RAES: 3.10
     3s    -20.029654    1.981333
     3p    -11.377694    2.025643
     3d     -0.420282    1.702555

           ------------------------------------------------- 
          |        Self-Consistent Charge Iterations        |
           ------------------------------------------------- 

          ...................................................
          :                      SETUP                      :
          :.................................................:
          :  # basis functions                 938          :
          :  # atomic orbitals                 914          :
          :  # shells                          470          :
          :  # electrons                       866          :
          :  max. iterations                   250          :
          :  Hamiltonian                  GFN2-xTB          :
          :  restarted?                      false          :
          :  GBSA solvation                  false          :
          :  PC potential                    false          :
          :  electronic temp.          300.0000000     K    :
          :  accuracy                    1.0000000          :
          :  -> integral cutoff          0.2500000E+02      :
          :  -> integral neglect         0.1000000E-07      :
          :  -> SCF convergence          0.1000000E-05 Eh   :
          :  -> wf. convergence          0.1000000E-03 e    :
          :  Broyden damping             0.4000000          :
          ...................................................

 iter      E             dE          RMSdq      gap      omega  full diag
   1   -475.2038754 -0.475204E+03  0.407E+00    1.06       0.0  T
   2   -475.4669516 -0.263076E+00  0.238E+00    1.15       1.0  T
   3   -475.3064236  0.160528E+00  0.116E+00    0.59       1.0  T
   4   -475.5448226 -0.238399E+00  0.430E-01    0.79       1.0  T
   5   -475.5612144 -0.163918E-01  0.166E-01    0.75       1.0  T
   6   -475.5632351 -0.202066E-02  0.825E-02    0.76       1.0  T
   7   -475.5644533 -0.121826E-02  0.358E-02    0.77       1.0  T
   8   -475.5647138 -0.260436E-03  0.142E-02    0.77       1.0  T
   9   -475.5647239 -0.101299E-04  0.798E-03    0.76       1.0  T
  10   -475.5647313 -0.740395E-05  0.322E-03    0.76       1.9  T
  11   -475.5647326 -0.132448E-05  0.165E-03    0.77       3.7  T
  12   -475.5647329 -0.278116E-06  0.875E-04    0.77       6.9  T
  13   -475.5647330 -0.631214E-07  0.460E-04    0.77      13.2  T

   *** convergence criteria satisfied after 13 iterations ***

         #    Occupation            Energy/Eh            Energy/eV
      -------------------------------------------------------------
         1        2.0000           -0.8283419             -22.5403
       ...           ...                  ...                  ...
       427        2.0000           -0.3736913             -10.1687
       428        2.0000           -0.3618918              -9.8476
       429        2.0000           -0.3611392              -9.8271
       430        2.0000           -0.3586480              -9.7593
       431        2.0000           -0.3532360              -9.6120
       432        2.0000           -0.3499262              -9.5220
       433        2.0000           -0.3476770              -9.4608 (HOMO)
       434        0.0000           -0.3195428              -8.6952 (LUMO)
       435        0.0000           -0.3189396              -8.6788
       436                         -0.3170991              -8.6287
       437                         -0.3044811              -8.2854
       438                         -0.3020463              -8.2191
       ...                                ...                  ...
       914                          0.7715259              20.9943
      -------------------------------------------------------------
                  HL-Gap            0.0281342 Eh            0.7656 eV
             Fermi-level           -0.3337912 Eh           -9.0829 eV

 SCC (total)                   0 d,  0 h,  0 min,  2.072 sec
 SCC setup                      ...        0 min,  0.015 sec (  0.740%)
 Dispersion                     ...        0 min,  0.039 sec (  1.883%)
 integral evaluation            ...        0 min,  0.139 sec (  6.720%)
 zeroth order Hamiltonian       ...        0 min,  0.005 sec (  0.264%)
 iterations                     ...        0 min,  1.734 sec ( 83.697%)
 molecular gradient             ...        0 min,  0.104 sec (  5.026%)
 printout                       ...        0 min,  0.034 sec (  1.662%)

         :::::::::::::::::::::::::::::::::::::::::::::::::::::
         ::                     SUMMARY                     ::
         :::::::::::::::::::::::::::::::::::::::::::::::::::::
         :: total energy            -469.087166833077 Eh    ::
         :: gradient norm              0.337904692459 Eh/a0 ::
         :: HOMO-LUMO gap              0.765570103355 eV    ::
         ::.................................................::
         :: SCC energy              -475.564732961216 Eh    ::
         :: -> isotropic ES            0.114655640305 Eh    ::
         :: -> anisotropic ES          0.030138019087 Eh    ::
         :: -> anisotropic XC          0.193608724723 Eh    ::
         :: -> dispersion             -0.442215778404 Eh    ::
         :: repulsion energy           6.480977168647 Eh    ::
         :: add. restraining           0.000000000000 Eh    ::
         :::::::::::::::::::::::::::::::::::::::::::::::::::::

      ----------------------------------------------------------- 
     |                   =====================                   |
     |                        A N C O P T                        |
     |                   =====================                   |
     |               Approximate Normal Coordinate               |
     |                Rational Function Optimizer                |
      ----------------------------------------------------------- 

          ...................................................
          :                      SETUP                      :
          :.................................................:
          :   optimization level            normal          :
          :   max. optcycles                   816          :
          :   ANC micro-cycles                  20          :
          :   degrees of freedom               810          :
          :.................................................:
          :   RF solver                   davidson          :
          :   input Hessian                  false          :
          :   write xtbopt.log                true          :
          :   linear?                        false          :
          :   energy convergence         0.5000000E-05 Eh   :
          :   grad. convergence          0.1000000E-02 Eh/α :
          :   maximium RF displ.         2.0000000          :
          :   Hlow (freq-cutoff)         0.5000000E-02      :
          :   Hmax (freq-cutoff)         5.0000000          :
          :   S6 in model hess.         20.0000000          :
          ...................................................

generating ANC from model Hessian ...
Using Lindh-Hessian (1995)
 Shifting diagonal of input Hessian by   4.997059736044901E-003
 Lowest  eigenvalues of input Hessian
   -0.000000   -0.000000   -0.000000   -0.000000    0.000000    0.000000
    0.005000    0.005003    0.005007    0.005012    0.005016    0.005017
    0.005022    0.005024    0.005027    0.005044    0.005058    0.005071
 Highest eigenvalues
    2.104688    2.107643    2.111475    2.119038    2.129148    2.129749
 

........................................................................
.............................. CYCLE    1 ..............................
........................................................................
   1   -475.5647330 -0.475565E+03  0.265E-04    0.77       0.0  T
   2   -475.5647330  0.307091E-08  0.257E-04    0.77      23.6  T
   3   -475.5647330 -0.141056E-07  0.120E-04    0.77      50.7  T
     SCC iter.                  ...        0 min,  0.247 sec
     gradient                   ...        0 min,  0.095 sec
 * total energy  :  -469.0871668 Eh     change        0.7758570E-07 Eh
   gradient norm :     0.3379012 Eh/α   predicted     0.0000000E+00 (-100.00%)
   displ. norm   :     0.6042197 α      lambda       -0.1390243E+00
   maximum displ.:     0.0970576 α      in ANC's #111, #124, #237, ...

........................................................................
.............................. CYCLE    2 ..............................
........................................................................
   1   -475.7356756 -0.475736E+03  0.408E-01    0.93       0.0  T
   2   -475.7370788 -0.140319E-02  0.209E-01    0.89       1.0  T
   3   -475.7347062  0.237258E-02  0.116E-01    0.89       1.0  T
   4   -475.7379992 -0.329298E-02  0.380E-02    0.88       1.0  T
   5   -475.7381204 -0.121220E-03  0.218E-02    0.88       1.0  T
   6   -475.7381743 -0.538851E-04  0.778E-03    0.88       1.0  T
   7   -475.7381866 -0.123255E-04  0.262E-03    0.88       2.3  T
   8   -475.7381877 -0.106038E-05  0.139E-03    0.88       4.4  T
   9   -475.7381879 -0.216959E-06  0.733E-04    0.88       8.3  T
     SCC iter.                  ...        0 min,  0.720 sec
     gradient                   ...        0 min,  0.092 sec
 * total energy  :  -469.1962598 Eh     change       -0.1090931E+00 Eh
   gradient norm :     0.1799433 Eh/α   predicted    -0.9489083E-01 ( -13.02%)
   displ. norm   :     0.6736250 α      lambda       -0.8035811E-01
   maximum displ.:     0.1453049 α      in ANC's #124, #111, #106, ...

........................................................................
.............................. CYCLE    3 ..............................
........................................................................
   1   -475.8646392 -0.475865E+03  0.403E-01    0.97       0.0  T
   2   -475.8659038 -0.126459E-02  0.199E-01    0.95       1.0  T
   3   -475.8641365  0.176730E-02  0.993E-02    0.95       1.0  T
   4   -475.8665170 -0.238052E-02  0.350E-02    0.94       1.0  T
   5   -475.8666197 -0.102630E-03  0.193E-02    0.94       1.0  T
   6   -475.8666603 -0.405764E-04  0.751E-03    0.95       1.0  T
   7   -475.8666714 -0.111513E-04  0.241E-03    0.95       2.5  T
   8   -475.8666724 -0.104167E-05  0.123E-03    0.95       4.9  T
   9   -475.8666726 -0.128825E-06  0.678E-04    0.95       8.9  T
     SCC iter.                  ...        0 min,  0.729 sec
     gradient                   ...        0 min,  0.093 sec
 * total energy  :  -469.2556551 Eh     change       -0.5939525E-01 Eh
   gradient norm :     0.0707988 Eh/α   predicted    -0.5841114E-01 (  -1.66%)
   displ. norm   :     0.7942798 α      lambda       -0.4182036E-01
   maximum displ.:     0.2161120 α      in ANC's #111, #124, #106, ...

........................................................................
.............................. CYCLE    4 ..............................
........................................................................
   1   -475.9224519 -0.475922E+03  0.333E-01    0.96       0.0  T
   2   -475.9228867 -0.434704E-03  0.159E-01    0.96       1.0  T
   3   -475.9225867  0.299944E-03  0.463E-02    0.96       1.0  T
   4   -475.9229853 -0.398549E-03  0.233E-02    0.96       1.0  T
   5   -475.9230174 -0.321846E-04  0.106E-02    0.96       1.0  T
   6   -475.9230383 -0.208605E-04  0.362E-03    0.96       1.7  T
   7   -475.9230412 -0.288774E-05  0.130E-03    0.96       4.7  T
   8   -475.9230413 -0.139359E-06  0.834E-04    0.96       7.3  T
     SCC iter.                  ...        0 min,  0.640 sec
     gradient                   ...        0 min,  0.092 sec
 * total energy  :  -469.2909797 Eh     change       -0.3532465E-01 Eh
   gradient norm :     0.0453287 Eh/α   predicted    -0.3410262E-01 (  -3.46%)
   displ. norm   :     0.8375696 α      lambda       -0.3117420E-01
   maximum displ.:     0.2356706 α      in ANC's #111, #124, #106, ...

........................................................................
.............................. CYCLE    5 ..............................
........................................................................
   1   -475.9698294 -0.475970E+03  0.278E-01    0.97       0.0  T
   2   -475.9700724 -0.242968E-03  0.135E-01    0.98       1.0  T
   3   -475.9699757  0.967068E-04  0.324E-02    0.98       1.0  T
   4   -475.9701003 -0.124615E-03  0.199E-02    0.98       1.0  T
   5   -475.9701378 -0.374575E-04  0.691E-03    0.98       1.0  T
   6   -475.9701497 -0.119046E-04  0.181E-03    0.98       3.4  T
   7   -475.9701500 -0.374461E-06  0.101E-03    0.98       6.0  T
   8   -475.9701501 -0.431084E-07  0.609E-04    0.98      10.0  T
     SCC iter.                  ...        0 min,  0.645 sec
     gradient                   ...        0 min,  0.092 sec
 * total energy  :  -469.3183166 Eh     change       -0.2733690E-01 Eh
   gradient norm :     0.0410306 Eh/α   predicted    -0.2652199E-01 (  -2.98%)
   displ. norm   :     0.8432872 α      lambda       -0.2487732E-01
   maximum displ.:     0.2325365 α      in ANC's #111, #94, #124, ...

........................................................................
.............................. CYCLE    6 ..............................
........................................................................
   1   -476.0079353 -0.476008E+03  0.254E-01    0.99       0.0  T
   2   -476.0081358 -0.200516E-03  0.125E-01    0.99       1.0  T
   3   -476.0081039  0.318989E-04  0.268E-02    1.00       1.0  T
   4   -476.0081514 -0.474782E-04  0.175E-02    1.00       1.0  T
   5   -476.0081871 -0.356614E-04  0.541E-03    1.00       1.1  T
   6   -476.0081934 -0.629762E-05  0.179E-03    1.00       3.4  T
   7   -476.0081938 -0.477040E-06  0.911E-04    1.00       6.7  T
   8   -476.0081939 -0.134780E-07  0.564E-04    1.00      10.7  T
     SCC iter.                  ...        0 min,  0.635 sec
     gradient                   ...        0 min,  0.092 sec
 * total energy  :  -469.3402232 Eh     change       -0.2190658E-01 Eh
   gradient norm :     0.0353021 Eh/α   predicted    -0.2128421E-01 (  -2.84%)
   displ. norm   :     0.8424123 α      lambda       -0.1971541E-01
   maximum displ.:     0.2221329 α      in ANC's #94, #111, #106, ...

........................................................................
.............................. CYCLE    7 ..............................
........................................................................
   1   -476.0360105 -0.476036E+03  0.231E-01    1.01       0.0  T
   2   -476.0361856 -0.175154E-03  0.115E-01    1.02       1.0  T
   3   -476.0361407  0.449744E-04  0.265E-02    1.02       1.0  T
   4   -476.0362070 -0.662934E-04  0.158E-02    1.02       1.0  T
   5   -476.0362308 -0.238165E-04  0.560E-03    1.02       1.1  T
   6   -476.0362366 -0.586440E-05  0.215E-03    1.02       2.8  T
   7   -476.0362377 -0.110056E-05  0.888E-04    1.02       6.8  T
     SCC iter.                  ...        0 min,  0.561 sec
     gradient                   ...        0 min,  0.092 sec
 * total energy  :  -469.3575173 Eh     change       -0.1729406E-01 Eh
   gradient norm :     0.0267439 Eh/α   predicted    -0.1685343E-01 (  -2.55%)
   displ. norm   :     0.8419047 α      lambda       -0.1528859E-01
   maximum displ.:     0.2297746 α      in ANC's #94, #111, #71, ...

........................................................................
.............................. CYCLE    8 ..............................
........................................................................
   1   -476.0536967 -0.476054E+03  0.216E-01    1.03       0.0  T
   2   -476.0538479 -0.151220E-03  0.108E-01    1.04       1.0  T
   3   -476.0537780  0.699008E-04  0.271E-02    1.04       1.0  T
   4   -476.0538678 -0.897656E-04  0.152E-02    1.04       1.0  T
   5   -476.0538898 -0.219683E-04  0.566E-03    1.04       1.1  T
   6   -476.0538964 -0.660650E-05  0.191E-03    1.04       3.2  T
   7   -476.0538972 -0.784582E-06  0.850E-04    1.04       7.1  T
   8   -476.0538972 -0.225162E-08  0.504E-04    1.04      12.0  T
     SCC iter.                  ...        0 min,  0.640 sec
     gradient                   ...        0 min,  0.094 sec
 * total energy  :  -469.3708985 Eh     change       -0.1338118E-01 Eh
   gradient norm :     0.0191345 Eh/α   predicted    -0.1306260E-01 (  -2.38%)
   displ. norm   :     0.8441137 α      lambda       -0.1180135E-01
   maximum displ.:     0.2266510 α      in ANC's #94, #54, #71, ...

........................................................................
.............................. CYCLE    9 ..............................
........................................................................
   1   -476.0623672 -0.476062E+03  0.192E-01    1.05       0.0  T
   2   -476.0624820 -0.114818E-03  0.970E-02    1.05       1.0  T
   3   -476.0623894  0.925733E-04  0.271E-02    1.05       1.0  T
   4   -476.0625079 -0.118508E-03  0.131E-02    1.05       1.0  T
   5   -476.0625204 -0.125200E-04  0.468E-03    1.05       1.3  T
   6   -476.0625254 -0.497406E-05  0.148E-03    1.05       4.1  T
   7   -476.0625257 -0.326575E-06  0.789E-04    1.05       7.7  T
   8   -476.0625257 -0.733343E-08  0.439E-04    1.05      13.8  T
     SCC iter.                  ...        0 min,  0.639 sec
     gradient                   ...        0 min,  0.092 sec
 * total energy  :  -469.3812577 Eh     change       -0.1035925E-01 Eh
   gradient norm :     0.0154863 Eh/α   predicted    -0.1010508E-01 (  -2.45%)
   displ. norm   :     0.8483051 α      lambda       -0.9351685E-02
   maximum displ.:     0.2271612 α      in ANC's #54, #94, #71, ...

........................................................................
.............................. CYCLE   10 ..............................
........................................................................
   1   -476.0684345 -0.476068E+03  0.173E-01    1.06       0.0  T
   2   -476.0685293 -0.947661E-04  0.885E-02    1.06       1.0  T
   3   -476.0684734  0.559157E-04  0.229E-02    1.06       1.0  T
   4   -476.0685492 -0.758272E-04  0.116E-02    1.06       1.0  T
   5   -476.0685610 -0.117883E-04  0.350E-03    1.06       1.7  T
   6   -476.0685637 -0.275883E-05  0.123E-03    1.06       4.9  T
   7   -476.0685639 -0.144790E-06  0.733E-04    1.06       8.3  T
     SCC iter.                  ...        0 min,  0.559 sec
     gradient                   ...        0 min,  0.091 sec
 * total energy  :  -469.3894429 Eh     change       -0.8185212E-02 Eh
   gradient norm :     0.0151433 Eh/α   predicted    -0.8040683E-02 (  -1.77%)
   displ. norm   :     0.8624540 α      lambda       -0.7977328E-02
   maximum displ.:     0.2467386 α      in ANC's #54, #71, #94, ...

........................................................................
.............................. CYCLE   11 ..............................
........................................................................
   1   -476.0659052 -0.476066E+03  0.146E-01    1.06       0.0  T
   2   -476.0659761 -0.709132E-04  0.767E-02    1.06       1.0  T
   3   -476.0658646  0.111467E-03  0.259E-02    1.06       1.0  T
   4   -476.0660050 -0.140324E-03  0.940E-03    1.06       1.0  T
   5   -476.0660069 -0.189524E-05  0.406E-03    1.06       1.5  T
   6   -476.0660103 -0.340331E-05  0.133E-03    1.06       4.6  T
   7   -476.0660104 -0.137642E-06  0.853E-04    1.06       7.1  T
   8   -476.0660104 -0.472832E-07  0.420E-04    1.06      14.4  T
     SCC iter.                  ...        0 min,  0.638 sec
     gradient                   ...        0 min,  0.092 sec
 * total energy  :  -469.3958904 Eh     change       -0.6447480E-02 Eh
   gradient norm :     0.0235955 Eh/α   predicted    -0.6955565E-02 (   7.88%)
   displ. norm   :     0.8341478 α      lambda       -0.7234854E-02
   maximum displ.:     0.2538922 α      in ANC's #54, #71, #94, ...

........................................................................
.............................. CYCLE   12 ..............................
........................................................................
   1   -476.0680873 -0.476068E+03  0.135E-01    1.06       0.0  T
   2   -476.0681519 -0.646470E-04  0.710E-02    1.06       1.0  T
   3   -476.0681292  0.227729E-04  0.168E-02    1.07       1.0  T
   4   -476.0681654 -0.362026E-04  0.853E-03    1.06       1.0  T
   5   -476.0681718 -0.642320E-05  0.329E-03    1.06       1.8  T
   6   -476.0681739 -0.210049E-05  0.113E-03    1.07       5.3  T
   7   -476.0681740 -0.151649E-06  0.640E-04    1.06       9.5  T
     SCC iter.                  ...        0 min,  0.570 sec
     gradient                   ...        0 min,  0.092 sec
 * total energy  :  -469.4016915 Eh     change       -0.5801127E-02 Eh
   gradient norm :     0.0177640 Eh/α   predicted    -0.6134448E-02 (   5.75%)
   displ. norm   :     0.8273843 α      lambda       -0.5826135E-02
   maximum displ.:     0.2635999 α      in ANC's #54, #42, #71, ...

........................................................................
.............................. CYCLE   13 ..............................
........................................................................
   1   -476.0713434 -0.476071E+03  0.127E-01    1.06       0.0  T
   2   -476.0714026 -0.591387E-04  0.675E-02    1.07       1.0  T
   3   -476.0713776  0.249757E-04  0.162E-02    1.06       1.0  T
   4   -476.0714164 -0.387862E-04  0.793E-03    1.07       1.0  T
   5   -476.0714216 -0.522823E-05  0.302E-03    1.06       2.0  T
   6   -476.0714233 -0.174060E-05  0.110E-03    1.07       5.5  T
   7   -476.0714235 -0.125160E-06  0.627E-04    1.07       9.7  T
     SCC iter.                  ...        0 min,  0.555 sec
     gradient                   ...        0 min,  0.093 sec
 * total energy  :  -469.4065660 Eh     change       -0.4874413E-02 Eh
   gradient norm :     0.0223386 Eh/α   predicted    -0.4907259E-02 (   0.67%)
   displ. norm   :     0.8339302 α      lambda       -0.5641855E-02
   maximum displ.:     0.2653599 α      in ANC's #54, #42, #20, ...

........................................................................
.............................. CYCLE   14 ..............................
........................................................................
   1   -476.0674533 -0.476067E+03  0.119E-01    1.06       0.0  T
   2   -476.0675045 -0.512694E-04  0.631E-02    1.06       1.0  T
   3   -476.0674600  0.445093E-04  0.181E-02    1.06       1.0  T
   4   -476.0675199 -0.598558E-04  0.764E-03    1.06       1.0  T
   5   -476.0675227 -0.276433E-05  0.362E-03    1.06       1.7  T
   6   -476.0675252 -0.252066E-05  0.108E-03    1.06       5.6  T
     SCC iter.                  ...        0 min,  0.476 sec
     gradient                   ...        0 min,  0.092 sec
 * total energy  :  -469.4114120 Eh     change       -0.4846001E-02 Eh
   gradient norm :     0.0141621 Eh/α   predicted    -0.4782717E-02 (  -1.31%)
   displ. norm   :     0.8528263 α      lambda       -0.5344611E-02
   maximum displ.:     0.2706500 α      in ANC's #54, #20, #42, ...

........................................................................
.............................. CYCLE   15 ..............................
........................................................................
   1   -476.0726054 -0.476073E+03  0.130E-01    1.05       0.0  T
   2   -476.0726663 -0.608687E-04  0.685E-02    1.05       1.0  T
   3   -476.0726370  0.292836E-04  0.174E-02    1.05       1.0  T
   4   -476.0726809 -0.438500E-04  0.858E-03    1.05       1.0  T
   5   -476.0726850 -0.409943E-05  0.389E-03    1.05       1.6  T
   6   -476.0726882 -0.322575E-05  0.111E-03    1.05       5.5  T
   7   -476.0726883 -0.111729E-06  0.638E-04    1.05       9.5  T
   8   -476.0726883 -0.171647E-07  0.322E-04    1.05      18.9  T
     SCC iter.                  ...        0 min,  0.638 sec
     gradient                   ...        0 min,  0.092 sec
 * total energy  :  -469.4157545 Eh     change       -0.4342507E-02 Eh
   gradient norm :     0.0233456 Eh/α   predicted    -0.4615915E-02 (   6.30%)
   displ. norm   :     0.8398241 α      lambda       -0.5221528E-02
   maximum displ.:     0.2584328 α      in ANC's #54, #20, #42, ...

........................................................................
.............................. CYCLE   16 ..............................
........................................................................
   1   -476.0725424 -0.476073E+03  0.144E-01    1.04       0.0  T
   2   -476.0726128 -0.704124E-04  0.751E-02    1.04       1.0  T
   3   -476.0725959  0.169477E-04  0.167E-02    1.04       1.0  T
   4   -476.0726231 -0.272581E-04  0.970E-03    1.04       1.0  T
   5   -476.0726333 -0.101877E-04  0.304E-03    1.04       2.0  T
   6   -476.0726354 -0.211172E-05  0.107E-03    1.04       5.7  T
   7   -476.0726356 -0.138335E-06  0.586E-04    1.04      10.3  T
     SCC iter.                  ...        0 min,  0.568 sec
     gradient                   ...        0 min,  0.094 sec
 * total energy  :  -469.4201884 Eh     change       -0.4433986E-02 Eh
   gradient norm :     0.0155538 Eh/α   predicted    -0.4452154E-02 (   0.41%)
   displ. norm   :     0.8659529 α      lambda       -0.4429695E-02
   maximum displ.:     0.2614483 α      in ANC's #20, #54, #30, ...

........................................................................
.............................. CYCLE   17 ..............................
........................................................................
   1   -476.0683155 -0.476068E+03  0.147E-01    1.03       0.0  T
   2   -476.0683863 -0.708816E-04  0.764E-02    1.04       1.0  T
   3   -476.0683684  0.179181E-04  0.172E-02    1.04       1.0  T
   4   -476.0683981 -0.296550E-04  0.982E-03    1.04       1.0  T
   5   -476.0684074 -0.932513E-05  0.320E-03    1.04       1.9  T
   6   -476.0684095 -0.213633E-05  0.114E-03    1.04       5.3  T
   7   -476.0684097 -0.143092E-06  0.661E-04    1.04       9.2  T
     SCC iter.                  ...        0 min,  0.561 sec
     gradient                   ...        0 min,  0.092 sec
 * total energy  :  -469.4238199 Eh     change       -0.3631487E-02 Eh
   gradient norm :     0.0202580 Eh/α   predicted    -0.3875707E-02 (   6.73%)
   displ. norm   :     0.8474565 α      lambda       -0.4345160E-02
   maximum displ.:     0.2662505 α      in ANC's #20, #30, #54, ...

........................................................................
.............................. CYCLE   18 ..............................
........................................................................
   1   -476.0642114 -0.476064E+03  0.134E-01    1.03       0.0  T
   2   -476.0642705 -0.591383E-04  0.702E-02    1.03       1.0  T
   3   -476.0642532  0.173730E-04  0.164E-02    1.03       1.0  T
   4   -476.0642824 -0.292235E-04  0.889E-03    1.03       1.0  T
   5   -476.0642881 -0.570467E-05  0.330E-03    1.03       1.8  T
   6   -476.0642903 -0.225887E-05  0.111E-03    1.03       5.5  T
     SCC iter.                  ...        0 min,  0.476 sec
     gradient                   ...        0 min,  0.092 sec
 * total energy  :  -469.4273475 Eh     change       -0.3527529E-02 Eh
   gradient norm :     0.0161692 Eh/α   predicted    -0.3732893E-02 (   5.82%)
   displ. norm   :     0.8260666 α      lambda       -0.3952436E-02
   maximum displ.:     0.2807777 α      in ANC's #20, #30, #54, ...

........................................................................
.............................. CYCLE   19 ..............................
........................................................................
   1   -476.0712968 -0.476071E+03  0.124E-01    1.02       0.0  T
   2   -476.0713519 -0.551085E-04  0.653E-02    1.02       1.0  T
   3   -476.0713325  0.193670E-04  0.156E-02    1.02       1.0  T
   4   -476.0713631 -0.305752E-04  0.824E-03    1.02       1.0  T
   5   -476.0713687 -0.566549E-05  0.284E-03    1.02       2.1  T
   6   -476.0713703 -0.159214E-05  0.109E-03    1.02       5.6  T
   7   -476.0713705 -0.123008E-06  0.591E-04    1.02      10.3  T
     SCC iter.                  ...        0 min,  0.563 sec
     gradient                   ...        0 min,  0.093 sec
 * total energy  :  -469.4298268 Eh     change       -0.2479350E-02 Eh
   gradient norm :     0.0294893 Eh/α   predicted    -0.3324764E-02 (  34.10%)
   displ. norm   :     0.7219298 α      lambda       -0.4090603E-02
   maximum displ.:     0.2476409 α      in ANC's #20, #30, #28, ...

........................................................................
.............................. CYCLE   20 ..............................
........................................................................
   1   -476.0715488 -0.476072E+03  0.102E-01    1.03       0.0  T
   2   -476.0715891 -0.403392E-04  0.543E-02    1.03       1.0  T
   3   -476.0715589  0.302257E-04  0.154E-02    1.03       1.0  T
   4   -476.0716015 -0.425871E-04  0.649E-03    1.03       1.0  T
   5   -476.0716030 -0.152883E-05  0.293E-03    1.03       2.1  T
   6   -476.0716048 -0.175930E-05  0.999E-04    1.03       6.1  T
     SCC iter.                  ...        0 min,  0.480 sec
     gradient                   ...        0 min,  0.091 sec
 * total energy  :  -469.4327744 Eh     change       -0.2947611E-02 Eh
   gradient norm :     0.0164057 Eh/α   predicted    -0.3111277E-02 (   5.55%)
   displ. norm   :     0.7725448 α      lambda       -0.3437381E-02
   maximum displ.:     0.2713937 α      in ANC's #20, #30, #28, ...
 * RMSD in coord.:     0.7947715 α      energy gain  -0.3456076E+00 Eh

generating ANC from model Hessian ...
Using Lindh-Hessian (1995)
 Shifting diagonal of input Hessian by   4.996559462720400E-003
 Lowest  eigenvalues of input Hessian
   -0.000000    0.000000    0.000000    0.000000    0.000000    0.000000
    0.005000    0.005003    0.005008    0.005012    0.005016    0.005020
    0.005022    0.005023    0.005023    0.005036    0.005054    0.005061
 Highest eigenvalues
    2.073042    2.082333    2.082768    2.084036    2.087798    2.095184
 

........................................................................
.............................. CYCLE   21 ..............................
........................................................................
   1   -476.0676137 -0.476068E+03  0.111E-01    1.02       0.0  T
   2   -476.0676577 -0.439710E-04  0.589E-02    1.02       1.0  T
   3   -476.0676184  0.392783E-04  0.170E-02    1.03       1.0  T
   4   -476.0676701 -0.517172E-04  0.743E-03    1.02       1.0  T
   5   -476.0676732 -0.303747E-05  0.326E-03    1.02       1.9  T
   6   -476.0676752 -0.208611E-05  0.101E-03    1.02       6.0  T
   7   -476.0676753 -0.784847E-07  0.631E-04    1.02       9.6  T
   8   -476.0676753 -0.218081E-07  0.310E-04    1.02      19.5  T
     SCC iter.                  ...        0 min,  0.631 sec
     gradient                   ...        0 min,  0.096 sec
 * total energy  :  -469.4350458 Eh     change       -0.2271360E-02 Eh
   gradient norm :     0.0230703 Eh/α   predicted     0.0000000E+00 (-100.00%)
   displ. norm   :     0.4189363 α      lambda       -0.2263511E-02
   maximum displ.:     0.1700631 α      in ANC's #20, #34, #30, ...

........................................................................
.............................. CYCLE   22 ..............................
........................................................................
   1   -476.0762645 -0.476076E+03  0.637E-02    1.03       0.0  T
   2   -476.0762797 -0.151968E-04  0.327E-02    1.03       1.0  T
   3   -476.0762712  0.843609E-05  0.882E-03    1.03       1.0  T
   4   -476.0762830 -0.118100E-04  0.453E-03    1.03       1.3  T
   5   -476.0762844 -0.133680E-05  0.184E-03    1.03       3.3  T
   6   -476.0762851 -0.712989E-06  0.564E-04    1.03      10.8  T
     SCC iter.                  ...        0 min,  0.487 sec
     gradient                   ...        0 min,  0.092 sec
 * total energy  :  -469.4369206 Eh     change       -0.1874805E-02 Eh
   gradient norm :     0.0085134 Eh/α   predicted    -0.1334109E-02 ( -28.84%)
   displ. norm   :     0.4408489 α      lambda       -0.1611386E-02
   maximum displ.:     0.1637217 α      in ANC's #20, #34, #30, ...

........................................................................
.............................. CYCLE   23 ..............................
........................................................................
   1   -476.0813423 -0.476081E+03  0.682E-02    1.03       0.0  T
   2   -476.0813586 -0.162926E-04  0.356E-02    1.03       1.0  T
   3   -476.0813519  0.667120E-05  0.860E-03    1.03       1.0  T
   4   -476.0813617 -0.981199E-05  0.473E-03    1.03       1.3  T
   5   -476.0813636 -0.186479E-05  0.174E-03    1.03       3.5  T
   6   -476.0813643 -0.687001E-06  0.571E-04    1.03      10.6  T
     SCC iter.                  ...        0 min,  0.474 sec
     gradient                   ...        0 min,  0.093 sec
 * total energy  :  -469.4383284 Eh     change       -0.1407764E-02 Eh
   gradient norm :     0.0069412 Eh/α   predicted    -0.9622811E-03 ( -31.64%)
   displ. norm   :     0.7661956 α      lambda       -0.2273645E-02
   maximum displ.:     0.2870265 α      in ANC's #20, #34, #30, ...

........................................................................
.............................. CYCLE   24 ..............................
........................................................................
   1   -476.0818564 -0.476082E+03  0.107E-01    1.03       0.0  T
   2   -476.0818944 -0.380629E-04  0.568E-02    1.03       1.0  T
   3   -476.0818873  0.709557E-05  0.117E-02    1.04       1.0  T
   4   -476.0818994 -0.120329E-04  0.732E-03    1.04       1.0  T
   5   -476.0819060 -0.665919E-05  0.218E-03    1.04       2.8  T
   6   -476.0819071 -0.101529E-05  0.857E-04    1.04       7.1  T
   7   -476.0819071 -0.425168E-07  0.530E-04    1.04      11.4  T
     SCC iter.                  ...        0 min,  0.561 sec
     gradient                   ...        0 min,  0.092 sec
 * total energy  :  -469.4403906 Eh     change       -0.2062234E-02 Eh
   gradient norm :     0.0147965 Eh/α   predicted    -0.1804217E-02 ( -12.51%)
   displ. norm   :     0.8472008 α      lambda       -0.2352373E-02
   maximum displ.:     0.3214350 α      in ANC's #20, #34, #30, ...

........................................................................
.............................. CYCLE   25 ..............................
........................................................................
   1   -476.0787762 -0.476079E+03  0.115E-01    1.03       0.0  T
   2   -476.0788175 -0.413084E-04  0.610E-02    1.04       1.0  T
   3   -476.0788187 -0.121484E-05  0.110E-02    1.04       1.0  T
   4   -476.0788196 -0.880432E-06  0.779E-03    1.04       1.0  T
   5   -476.0788299 -0.102610E-04  0.181E-03    1.04       3.4  T
   6   -476.0788305 -0.611394E-06  0.882E-04    1.04       6.9  T
   7   -476.0788305 -0.275080E-07  0.526E-04    1.04      11.5  T
     SCC iter.                  ...        0 min,  0.565 sec
     gradient                   ...        0 min,  0.093 sec
 * total energy  :  -469.4426019 Eh     change       -0.2211356E-02 Eh
   gradient norm :     0.0158311 Eh/α   predicted    -0.2020429E-02 (  -8.63%)
   displ. norm   :     0.8714747 α      lambda       -0.2432439E-02
   maximum displ.:     0.3418277 α      in ANC's #20, #34, #30, ...

........................................................................
.............................. CYCLE   26 ..............................
........................................................................
   1   -476.0763458 -0.476076E+03  0.114E-01    1.04       0.0  T
   2   -476.0763840 -0.382068E-04  0.604E-02    1.04       1.0  T
   3   -476.0763883 -0.424625E-05  0.104E-02    1.04       1.0  T
   4   -476.0763857  0.261156E-05  0.737E-03    1.04       1.0  T
   5   -476.0763953 -0.962267E-05  0.171E-03    1.04       3.6  T
   6   -476.0763958 -0.485710E-06  0.878E-04    1.04       6.9  T
   7   -476.0763958 -0.241277E-07  0.501E-04    1.04      12.1  T
     SCC iter.                  ...        0 min,  0.572 sec
     gradient                   ...        0 min,  0.091 sec
 * total energy  :  -469.4448497 Eh     change       -0.2247742E-02 Eh
   gradient norm :     0.0102883 Eh/α   predicted    -0.2139901E-02 (  -4.80%)
   displ. norm   :     0.8795243 α      lambda       -0.2218486E-02
   maximum displ.:     0.3562506 α      in ANC's #20, #34, #30, ...

........................................................................
.............................. CYCLE   27 ..............................
........................................................................
   1   -476.0753444 -0.476075E+03  0.114E-01    1.03       0.0  T
   2   -476.0753816 -0.371509E-04  0.602E-02    1.03       1.0  T
   3   -476.0753851 -0.353139E-05  0.108E-02    1.04       1.0  T
   4   -476.0753827  0.238182E-05  0.749E-03    1.04       1.0  T
   5   -476.0753922 -0.953138E-05  0.179E-03    1.04       3.4  T
   6   -476.0753927 -0.504142E-06  0.907E-04    1.04       6.7  T
   7   -476.0753928 -0.382125E-07  0.520E-04    1.04      11.7  T
     SCC iter.                  ...        0 min,  0.563 sec
     gradient                   ...        0 min,  0.092 sec
 * total energy  :  -469.4468674 Eh     change       -0.2017681E-02 Eh
   gradient norm :     0.0064400 Eh/α   predicted    -0.1967316E-02 (  -2.50%)
   displ. norm   :     0.8871812 α      lambda       -0.1919338E-02
   maximum displ.:     0.3683530 α      in ANC's #20, #34, #30, ...

........................................................................
.............................. CYCLE   28 ..............................
........................................................................
   1   -476.0733771 -0.476073E+03  0.110E-01    1.03       0.0  T
   2   -476.0734105 -0.333858E-04  0.584E-02    1.03       1.0  T
   3   -476.0734128 -0.231527E-05  0.105E-02    1.03       1.0  T
   4   -476.0734102  0.268499E-05  0.741E-03    1.03       1.0  T
   5   -476.0734203 -0.101217E-04  0.170E-03    1.03       3.6  T
   6   -476.0734207 -0.432305E-06  0.887E-04    1.03       6.8  T
   7   -476.0734208 -0.390755E-07  0.501E-04    1.03      12.1  T
     SCC iter.                  ...        0 min,  0.546 sec
     gradient                   ...        0 min,  0.092 sec
 * total energy  :  -469.4486350 Eh     change       -0.1767682E-02 Eh
   gradient norm :     0.0068246 Eh/α   predicted    -0.1715019E-02 (  -2.98%)
   displ. norm   :     0.8795645 α      lambda       -0.1713809E-02
   maximum displ.:     0.3761931 α      in ANC's #20, #19, #30, ...

........................................................................
.............................. CYCLE   29 ..............................
........................................................................
   1   -476.0748073 -0.476075E+03  0.107E-01    1.03       0.0  T
   2   -476.0748384 -0.311094E-04  0.566E-02    1.03       1.0  T
   3   -476.0748407 -0.234704E-05  0.103E-02    1.03       1.0  T
   4   -476.0748372  0.354311E-05  0.740E-03    1.03       1.0  T
   5   -476.0748473 -0.101097E-04  0.160E-03    1.03       3.8  T
   6   -476.0748477 -0.370911E-06  0.867E-04    1.03       7.0  T
   7   -476.0748477 -0.359354E-07  0.503E-04    1.03      12.1  T
     SCC iter.                  ...        0 min,  0.553 sec
     gradient                   ...        0 min,  0.091 sec
 * total energy  :  -469.4502126 Eh     change       -0.1577595E-02 Eh
   gradient norm :     0.0062704 Eh/α   predicted    -0.1519837E-02 (  -3.66%)
   displ. norm   :     0.8815638 α      lambda       -0.1522133E-02
   maximum displ.:     0.3864594 α      in ANC's #20, #19, #30, ...

........................................................................
.............................. CYCLE   30 ..............................
........................................................................
   1   -476.0752447 -0.476075E+03  0.103E-01    1.03       0.0  T
   2   -476.0752733 -0.285855E-04  0.548E-02    1.03       1.0  T
   3   -476.0752753 -0.200832E-05  0.985E-03    1.03       1.0  T
   4   -476.0752712  0.404729E-05  0.729E-03    1.03       1.0  T
   5   -476.0752816 -0.103501E-04  0.155E-03    1.03       3.9  T
   6   -476.0752819 -0.377346E-06  0.825E-04    1.03       7.3  T
   7   -476.0752820 -0.245597E-07  0.488E-04    1.03      12.4  T
     SCC iter.                  ...        0 min,  0.573 sec
     gradient                   ...        0 min,  0.093 sec
 * total energy  :  -469.4516157 Eh     change       -0.1403086E-02 Eh
   gradient norm :     0.0051822 Eh/α   predicted    -0.1352538E-02 (  -3.60%)
   displ. norm   :     0.8734235 α      lambda       -0.1353071E-02
   maximum displ.:     0.3957845 α      in ANC's #20, #19, #30, ...

........................................................................
.............................. CYCLE   31 ..............................
........................................................................
   1   -476.0788025 -0.476079E+03  0.100E-01    1.03       0.0  T
   2   -476.0788293 -0.267816E-04  0.531E-02    1.03       1.0  T
   3   -476.0788304 -0.106270E-05  0.984E-03    1.03       1.0  T
   4   -476.0788267  0.360850E-05  0.744E-03    1.03       1.0  T
   5   -476.0788370 -0.102963E-04  0.149E-03    1.03       4.1  T
   6   -476.0788374 -0.353874E-06  0.808E-04    1.03       7.5  T
   7   -476.0788374 -0.228599E-07  0.494E-04    1.03      12.3  T
     SCC iter.                  ...        0 min,  0.555 sec
     gradient                   ...        0 min,  0.091 sec
 * total energy  :  -469.4528557 Eh     change       -0.1239954E-02 Eh
   gradient norm :     0.0039860 Eh/α   predicted    -0.1192656E-02 (  -3.81%)
   displ. norm   :     0.8823744 α      lambda       -0.1203961E-02
   maximum displ.:     0.4030126 α      in ANC's #20, #19, #30, ...

........................................................................
.............................. CYCLE   32 ..............................
........................................................................
   1   -476.0752833 -0.476075E+03  0.100E-01    1.03       0.0  T
   2   -476.0753105 -0.271991E-04  0.532E-02    1.03       1.0  T
   3   -476.0753119 -0.145164E-05  0.955E-03    1.03       1.0  T
   4   -476.0753075  0.443138E-05  0.733E-03    1.04       1.0  T
   5   -476.0753184 -0.109302E-04  0.147E-03    1.03       4.1  T
   6   -476.0753187 -0.332470E-06  0.778E-04    1.04       7.8  T
   7   -476.0753188 -0.200488E-07  0.461E-04    1.04      13.2  T
     SCC iter.                  ...        0 min,  0.559 sec
     gradient                   ...        0 min,  0.095 sec
 * total energy  :  -469.4539532 Eh     change       -0.1097555E-02 Eh
   gradient norm :     0.0042265 Eh/α   predicted    -0.1070680E-02 (  -2.45%)
   displ. norm   :     0.8661061 α      lambda       -0.1109990E-02
   maximum displ.:     0.4116186 α      in ANC's #20, #19, #13, ...

........................................................................
.............................. CYCLE   33 ..............................
........................................................................
   1   -476.0825845 -0.476083E+03  0.921E-02    1.04       0.0  T
   2   -476.0826064 -0.219787E-04  0.487E-02    1.04       1.0  T
   3   -476.0826060  0.420988E-06  0.927E-03    1.04       1.0  T
   4   -476.0826037  0.226315E-05  0.704E-03    1.04       1.0  T
   5   -476.0826128 -0.904705E-05  0.144E-03    1.04       4.2  T
   6   -476.0826131 -0.303413E-06  0.759E-04    1.04       8.0  T
   7   -476.0826131 -0.261060E-07  0.466E-04    1.04      13.0  T
     SCC iter.                  ...        0 min,  0.566 sec
     gradient                   ...        0 min,  0.092 sec
 * total energy  :  -469.4549377 Eh     change       -0.9844483E-03 Eh
   gradient norm :     0.0038847 Eh/α   predicted    -0.9713212E-03 (  -1.33%)
   displ. norm   :     0.8724140 α      lambda       -0.9854516E-03
   maximum displ.:     0.4101066 α      in ANC's #20, #19, #13, ...

........................................................................
.............................. CYCLE   34 ..............................
........................................................................
   1   -476.0777737 -0.476078E+03  0.952E-02    1.04       0.0  T
   2   -476.0777980 -0.242798E-04  0.503E-02    1.04       1.0  T
   3   -476.0778003 -0.232540E-05  0.893E-03    1.04       1.0  T
   4   -476.0777956  0.466003E-05  0.671E-03    1.04       1.0  T
   5   -476.0778048 -0.917391E-05  0.138E-03    1.04       4.4  T
   6   -476.0778051 -0.292139E-06  0.737E-04    1.04       8.2  T
   7   -476.0778051 -0.257778E-07  0.427E-04    1.04      14.2  T
     SCC iter.                  ...        0 min,  0.551 sec
     gradient                   ...        0 min,  0.095 sec
 * total energy  :  -469.4558241 Eh     change       -0.8863742E-03 Eh
   gradient norm :     0.0034220 Eh/α   predicted    -0.8677430E-03 (  -2.10%)
   displ. norm   :     0.8536982 α      lambda       -0.8739852E-03
   maximum displ.:     0.4077025 α      in ANC's #20, #19, #13, ...

........................................................................
.............................. CYCLE   35 ..............................
........................................................................
   1   -476.0793740 -0.476079E+03  0.862E-02    1.04       0.0  T
   2   -476.0793924 -0.184139E-04  0.457E-02    1.04       1.0  T
   3   -476.0793946 -0.219100E-05  0.803E-03    1.04       1.0  T
   4   -476.0793907  0.397563E-05  0.590E-03    1.04       1.0  T
   5   -476.0793977 -0.703125E-05  0.117E-03    1.04       5.2  T
   6   -476.0793979 -0.174086E-06  0.660E-04    1.04       9.2  T
   7   -476.0793979 -0.138258E-07  0.377E-04    1.04      16.1  T
     SCC iter.                  ...        0 min,  0.556 sec
     gradient                   ...        0 min,  0.096 sec
 * total energy  :  -469.4566304 Eh     change       -0.8062959E-03 Eh
   gradient norm :     0.0030720 Eh/α   predicted    -0.7554768E-03 (  -6.30%)
   displ. norm   :     0.8647583 α      lambda       -0.8380347E-03
   maximum displ.:     0.4093769 α      in ANC's #20, #19, #13, ...

........................................................................
.............................. CYCLE   36 ..............................
........................................................................
   1   -476.0828174 -0.476083E+03  0.834E-02    1.03       0.0  T
   2   -476.0828332 -0.158371E-04  0.443E-02    1.03       1.0  T
   3   -476.0828351 -0.185259E-05  0.783E-03    1.04       1.0  T
   4   -476.0828319  0.316868E-05  0.552E-03    1.03       1.1  T
   5   -476.0828377 -0.576620E-05  0.109E-03    1.04       5.5  T
   6   -476.0828378 -0.150326E-06  0.629E-04    1.04       9.6  T
   7   -476.0828379 -0.146573E-07  0.355E-04    1.04      17.1  T
     SCC iter.                  ...        0 min,  0.558 sec
     gradient                   ...        0 min,  0.097 sec
 * total energy  :  -469.4573997 Eh     change       -0.7693160E-03 Eh
   gradient norm :     0.0040295 Eh/α   predicted    -0.7323631E-03 (  -4.80%)
   displ. norm   :     0.8698771 α      lambda       -0.8168716E-03
   maximum displ.:     0.4012035 α      in ANC's #20, #13, #19, ...

........................................................................
.............................. CYCLE   37 ..............................
........................................................................
   1   -476.0831007 -0.476083E+03  0.842E-02    1.03       0.0  T
   2   -476.0831172 -0.165234E-04  0.449E-02    1.03       1.0  T
   3   -476.0831190 -0.173408E-05  0.790E-03    1.03       1.0  T
   4   -476.0831161  0.285094E-05  0.562E-03    1.03       1.1  T
   5   -476.0831219 -0.577282E-05  0.106E-03    1.03       5.7  T
   6   -476.0831220 -0.128227E-06  0.618E-04    1.03       9.8  T
   7   -476.0831220 -0.201205E-07  0.367E-04    1.03      16.5  T
     SCC iter.                  ...        0 min,  0.557 sec
     gradient                   ...        0 min,  0.093 sec
 * total energy  :  -469.4581265 Eh     change       -0.7268765E-03 Eh
   gradient norm :     0.0044158 Eh/α   predicted    -0.7174948E-03 (  -1.29%)
   displ. norm   :     0.8581993 α      lambda       -0.7764265E-03
   maximum displ.:     0.3819042 α      in ANC's #20, #13, #19, ...

........................................................................
.............................. CYCLE   38 ..............................
........................................................................
   1   -476.0859721 -0.476086E+03  0.812E-02    1.03       0.0  T
   2   -476.0859854 -0.132665E-04  0.435E-02    1.03       1.0  T
   3   -476.0859866 -0.121236E-05  0.764E-03    1.03       1.0  T
   4   -476.0859837  0.287177E-05  0.516E-03    1.03       1.2  T
   5   -476.0859890 -0.524901E-05  0.985E-04    1.03       6.2  T
   6   -476.0859891 -0.117521E-06  0.578E-04    1.03      10.5  T
   7   -476.0859891 -0.222694E-07  0.347E-04    1.03      17.5  T
     SCC iter.                  ...        0 min,  0.562 sec
     gradient                   ...        0 min,  0.092 sec
 * total energy  :  -469.4588169 Eh     change       -0.6903596E-03 Eh
   gradient norm :     0.0046186 Eh/α   predicted    -0.6741376E-03 (  -2.35%)
   displ. norm   :     0.8479356 α      lambda       -0.7170077E-03
   maximum displ.:     0.3606443 α      in ANC's #20, #13, #19, ...

........................................................................
.............................. CYCLE   39 ..............................
........................................................................
   1   -476.0855348 -0.476086E+03  0.821E-02    1.02       0.0  T
   2   -476.0855481 -0.133062E-04  0.440E-02    1.02       1.0  T
   3   -476.0855482 -0.703555E-07  0.793E-03    1.03       1.0  T
   4   -476.0855458  0.233471E-05  0.571E-03    1.02       1.1  T
   5   -476.0855519 -0.608039E-05  0.102E-03    1.02       6.0  T
   6   -476.0855521 -0.159594E-06  0.574E-04    1.02      10.6  T
   7   -476.0855521 -0.202236E-07  0.324E-04    1.02      18.7  T
     SCC iter.                  ...        0 min,  0.551 sec
     gradient                   ...        0 min,  0.092 sec
 * total energy  :  -469.4594601 Eh     change       -0.6431745E-03 Eh
   gradient norm :     0.0039721 Eh/α   predicted    -0.6162669E-03 (  -4.18%)
   displ. norm   :     0.8383109 α      lambda       -0.6634268E-03
   maximum displ.:     0.3492561 α      in ANC's #13, #20, #19, ...

........................................................................
.............................. CYCLE   40 ..............................
........................................................................
   1   -476.0892105 -0.476089E+03  0.848E-02    1.02       0.0  T
   2   -476.0892242 -0.137566E-04  0.453E-02    1.02       1.0  T
   3   -476.0892239  0.324182E-06  0.828E-03    1.02       1.0  T
   4   -476.0892213  0.261462E-05  0.600E-03    1.02       1.0  T
   5   -476.0892281 -0.682761E-05  0.102E-03    1.02       6.0  T
   6   -476.0892283 -0.176013E-06  0.570E-04    1.02      10.6  T
   7   -476.0892283 -0.222610E-07  0.329E-04    1.02      18.4  T
     SCC iter.                  ...        0 min,  0.563 sec
     gradient                   ...        0 min,  0.096 sec
 * total energy  :  -469.4600627 Eh     change       -0.6025805E-03 Eh
   gradient norm :     0.0042418 Eh/α   predicted    -0.5648332E-03 (  -6.26%)
   displ. norm   :     0.8446359 α      lambda       -0.6405333E-03
   maximum displ.:     0.3651663 α      in ANC's #13, #20, #19, ...

........................................................................
.............................. CYCLE   41 ..............................
........................................................................
   1   -476.0879025 -0.476088E+03  0.881E-02    1.02       0.0  T
   2   -476.0879174 -0.149591E-04  0.470E-02    1.02       1.0  T
   3   -476.0879176 -0.129492E-06  0.844E-03    1.02       1.0  T
   4   -476.0879134  0.413089E-05  0.621E-03    1.02       1.0  T
   5   -476.0879215 -0.802405E-05  0.110E-03    1.02       5.5  T
   6   -476.0879217 -0.211826E-06  0.580E-04    1.02      10.5  T
   7   -476.0879217 -0.278777E-07  0.338E-04    1.02      18.0  T
     SCC iter.                  ...        0 min,  0.553 sec
     gradient                   ...        0 min,  0.092 sec
 * total energy  :  -469.4606281 Eh     change       -0.5654541E-03 Eh
   gradient norm :     0.0044601 Eh/α   predicted    -0.5487559E-03 (  -2.95%)
   displ. norm   :     0.8210237 α      lambda       -0.6163176E-03
   maximum displ.:     0.3636543 α      in ANC's #13, #20, #19, ...

........................................................................
.............................. CYCLE   42 ..............................
........................................................................
   1   -476.0898414 -0.476090E+03  0.916E-02    1.02       0.0  T
   2   -476.0898579 -0.165144E-04  0.487E-02    1.02       1.0  T
   3   -476.0898581 -0.210729E-06  0.883E-03    1.02       1.0  T
   4   -476.0898541  0.403223E-05  0.642E-03    1.02       1.0  T
   5   -476.0898624 -0.826074E-05  0.113E-03    1.02       5.4  T
   6   -476.0898626 -0.228773E-06  0.571E-04    1.02      10.6  T
   7   -476.0898626 -0.242135E-07  0.335E-04    1.02      18.1  T
     SCC iter.                  ...        0 min,  0.562 sec
     gradient                   ...        0 min,  0.094 sec
 * total energy  :  -469.4611678 Eh     change       -0.5396616E-03 Eh
   gradient norm :     0.0044055 Eh/α   predicted    -0.5158957E-03 (  -4.40%)
   displ. norm   :     0.8332200 α      lambda       -0.5590936E-03
   maximum displ.:     0.3781613 α      in ANC's #13, #19, #20, ...
 * RMSD in coord.:     0.9761261 α      energy gain  -0.2839335E-01 Eh

generating ANC from model Hessian ...
Using Lindh-Hessian (1995)
 Shifting diagonal of input Hessian by   4.996276988459110E-003
 Lowest  eigenvalues of input Hessian
   -0.000000   -0.000000   -0.000000   -0.000000    0.000000    0.000000
    0.005000    0.005003    0.005009    0.005011    0.005015    0.005019
    0.005021    0.005023    0.005026    0.005034    0.005051    0.005060
 Highest eigenvalues
    2.079738    2.081078    2.082166    2.083779    2.086606    2.087421
 

........................................................................
.............................. CYCLE   43 ..............................
........................................................................
   1   -476.0910706 -0.476091E+03  0.910E-02    1.02       0.0  T
   2   -476.0910866 -0.159864E-04  0.485E-02    1.02       1.0  T
   3   -476.0910867 -0.471017E-07  0.879E-03    1.02       1.0  T
   4   -476.0910829  0.370624E-05  0.638E-03    1.02       1.0  T
   5   -476.0910910 -0.801381E-05  0.110E-03    1.02       5.5  T
   6   -476.0910912 -0.211089E-06  0.580E-04    1.02      10.5  T
   7   -476.0910912 -0.261379E-07  0.333E-04    1.02      18.2  T
     SCC iter.                  ...        0 min,  0.557 sec
     gradient                   ...        0 min,  0.097 sec
 * total energy  :  -469.4616698 Eh     change       -0.5020168E-03 Eh
   gradient norm :     0.0043213 Eh/α   predicted     0.0000000E+00 (-100.00%)
   displ. norm   :     0.1411209 α      lambda       -0.1592591E-03
   maximum displ.:     0.0683342 α      in ANC's #13, #11, #19, ...

........................................................................
.............................. CYCLE   44 ..............................
........................................................................
   1   -476.0918588 -0.476092E+03  0.187E-02    1.02       0.0  T
   2   -476.0918598 -0.105484E-05  0.983E-03    1.02       1.0  T
   3   -476.0918597  0.861256E-07  0.198E-03    1.02       3.1  T
   4   -476.0918599 -0.130859E-06  0.129E-03    1.02       4.7  T
     SCC iter.                  ...        0 min,  0.325 sec
     gradient                   ...        0 min,  0.093 sec
 * total energy  :  -469.4618107 Eh     change       -0.1408977E-03 Eh
   gradient norm :     0.0021375 Eh/α   predicted    -0.8122203E-04 ( -42.35%)
   displ. norm   :     0.1729202 α      lambda       -0.1619871E-03
   maximum displ.:     0.0697877 α      in ANC's #13, #11, #19, ...

........................................................................
.............................. CYCLE   45 ..............................
........................................................................
   1   -476.0921483 -0.476092E+03  0.274E-02    1.02       0.0  T
   2   -476.0921505 -0.213164E-05  0.144E-02    1.02       1.0  T
   3   -476.0921498  0.672380E-06  0.311E-03    1.02       1.9  T
   4   -476.0921505 -0.714587E-06  0.200E-03    1.02       3.0  T
   5   -476.0921511 -0.618355E-06  0.448E-04    1.02      13.5  T
   6   -476.0921512 -0.401364E-07  0.176E-04    1.02      34.5  T
     SCC iter.                  ...        0 min,  0.479 sec
     gradient                   ...        0 min,  0.095 sec
 * total energy  :  -469.4619548 Eh     change       -0.1440727E-03 Eh
   gradient norm :     0.0015200 Eh/α   predicted    -0.8341605E-04 ( -42.10%)
   displ. norm   :     0.7744444 α      lambda       -0.3908966E-03
   maximum displ.:     0.3104956 α      in ANC's #13, #11, #19, ...

........................................................................
.............................. CYCLE   46 ..............................
........................................................................
   1   -476.0878145 -0.476088E+03  0.114E-01    1.03       0.0  T
   2   -476.0878497 -0.351835E-04  0.607E-02    1.02       1.0  T
   3   -476.0878480  0.167234E-05  0.112E-02    1.02       1.0  T
   4   -476.0878489 -0.901807E-06  0.794E-03    1.02       1.0  T
   5   -476.0878598 -0.108660E-04  0.174E-03    1.02       3.5  T
   6   -476.0878604 -0.649225E-06  0.675E-04    1.02       9.0  T
   7   -476.0878605 -0.436348E-07  0.382E-04    1.02      15.9  T
     SCC iter.                  ...        0 min,  0.561 sec
     gradient                   ...        0 min,  0.096 sec
 * total energy  :  -469.4623272 Eh     change       -0.3724638E-03 Eh
   gradient norm :     0.0076116 Eh/α   predicted    -0.2475644E-03 ( -33.53%)
   displ. norm   :     0.3060570 α      lambda       -0.1789720E-03
   maximum displ.:     0.1338472 α      in ANC's #13, #11, #19, ...

........................................................................
.............................. CYCLE   47 ..............................
........................................................................
   1   -476.0880481 -0.476088E+03  0.389E-02    1.02       0.0  T
   2   -476.0880516 -0.349752E-05  0.208E-02    1.02       1.0  T
   3   -476.0880516 -0.153655E-07  0.370E-03    1.02       1.6  T
   4   -476.0880512  0.396912E-06  0.273E-03    1.02       2.2  T
   5   -476.0880526 -0.139526E-05  0.466E-04    1.02      13.0  T
     SCC iter.                  ...        0 min,  0.398 sec
     gradient                   ...        0 min,  0.092 sec
 * total energy  :  -469.4624883 Eh     change       -0.1610592E-03 Eh
   gradient norm :     0.0068234 Eh/α   predicted    -0.9787475E-04 ( -39.23%)
   displ. norm   :     0.5542315 α      lambda       -0.3719261E-03
   maximum displ.:     0.2476507 α      in ANC's #13, #11, #9, ...

........................................................................
.............................. CYCLE   48 ..............................
........................................................................
   1   -476.0888479 -0.476089E+03  0.640E-02    1.02       0.0  T
   2   -476.0888569 -0.895819E-05  0.343E-02    1.02       1.0  T
   3   -476.0888562  0.664508E-06  0.631E-03    1.02       1.0  T
   4   -476.0888560  0.201941E-06  0.443E-03    1.02       1.4  T
   5   -476.0888594 -0.338951E-05  0.931E-04    1.02       6.5  T
   6   -476.0888596 -0.185081E-06  0.384E-04    1.02      15.8  T
   7   -476.0888596 -0.146820E-07  0.216E-04    1.02      28.1  T
     SCC iter.                  ...        0 min,  0.563 sec
     gradient                   ...        0 min,  0.093 sec
 * total energy  :  -469.4627989 Eh     change       -0.3106163E-03 Eh
   gradient norm :     0.0033761 Eh/α   predicted    -0.2430947E-03 ( -21.74%)
   displ. norm   :     0.6252281 α      lambda       -0.3446479E-03
   maximum displ.:     0.2862373 α      in ANC's #13, #11, #9, ...

........................................................................
.............................. CYCLE   49 ..............................
........................................................................
   1   -476.0878705 -0.476088E+03  0.682E-02    1.02       0.0  T
   2   -476.0878806 -0.101164E-04  0.366E-02    1.02       1.0  T
   3   -476.0878797  0.914563E-06  0.685E-03    1.02       1.0  T
   4   -476.0878795  0.232042E-06  0.481E-03    1.02       1.3  T
   5   -476.0878834 -0.394298E-05  0.101E-03    1.02       6.0  T
   6   -476.0878836 -0.203965E-06  0.422E-04    1.02      14.4  T
   7   -476.0878837 -0.176500E-07  0.243E-04    1.02      24.9  T
     SCC iter.                  ...        0 min,  0.552 sec
     gradient                   ...        0 min,  0.093 sec
 * total energy  :  -469.4630853 Eh     change       -0.2864403E-03 Eh
   gradient norm :     0.0042476 Eh/α   predicted    -0.2396917E-03 ( -16.32%)
   displ. norm   :     0.6146834 α      lambda       -0.3077108E-03
   maximum displ.:     0.2876913 α      in ANC's #13, #11, #9, ...

........................................................................
.............................. CYCLE   50 ..............................
........................................................................
   1   -476.0876721 -0.476088E+03  0.645E-02    1.01       0.0  T
   2   -476.0876812 -0.906382E-05  0.344E-02    1.01       1.0  T
   3   -476.0876806  0.587039E-06  0.649E-03    1.01       1.0  T
   4   -476.0876800  0.622792E-06  0.459E-03    1.01       1.3  T
   5   -476.0876837 -0.368246E-05  0.937E-04    1.01       6.5  T
   6   -476.0876838 -0.172739E-06  0.399E-04    1.01      15.2  T
   7   -476.0876838 -0.127010E-07  0.237E-04    1.01      25.6  T
     SCC iter.                  ...        0 min,  0.553 sec
     gradient                   ...        0 min,  0.093 sec
 * total energy  :  -469.4633540 Eh     change       -0.2686388E-03 Eh
   gradient norm :     0.0066539 Eh/α   predicted    -0.2120193E-03 ( -21.08%)
   displ. norm   :     0.6370419 α      lambda       -0.3514739E-03
   maximum displ.:     0.3021478 α      in ANC's #13, #11, #9, ...

........................................................................
.............................. CYCLE   51 ..............................
........................................................................
   1   -476.0888264 -0.476089E+03  0.654E-02    1.01       0.0  T
   2   -476.0888359 -0.947619E-05  0.347E-02    1.01       1.0  T
   3   -476.0888352  0.622694E-06  0.661E-03    1.01       1.0  T
   4   -476.0888347  0.539920E-06  0.469E-03    1.01       1.3  T
   5   -476.0888385 -0.378276E-05  0.942E-04    1.01       6.4  T
   6   -476.0888387 -0.178322E-06  0.397E-04    1.01      15.3  T
   7   -476.0888387 -0.983891E-08  0.241E-04    1.01      25.2  T
     SCC iter.                  ...        0 min,  0.542 sec
     gradient                   ...        0 min,  0.091 sec
 * total energy  :  -469.4636682 Eh     change       -0.3141917E-03 Eh
   gradient norm :     0.0073861 Eh/α   predicted    -0.2470589E-03 ( -21.37%)
   displ. norm   :     0.6998947 α      lambda       -0.4199384E-03
   maximum displ.:     0.3348185 α      in ANC's #13, #11, #9, ...

........................................................................
.............................. CYCLE   52 ..............................
........................................................................
   1   -476.0902163 -0.476090E+03  0.715E-02    1.01       0.0  T
   2   -476.0902277 -0.114105E-04  0.380E-02    1.01       1.0  T
   3   -476.0902268  0.860240E-06  0.719E-03    1.01       1.0  T
   4   -476.0902266  0.198128E-06  0.503E-03    1.01       1.2  T
   5   -476.0902309 -0.427894E-05  0.105E-03    1.01       5.8  T
   6   -476.0902311 -0.238446E-06  0.418E-04    1.01      14.5  T
   7   -476.0902312 -0.942106E-08  0.254E-04    1.01      23.9  T
     SCC iter.                  ...        0 min,  0.548 sec
     gradient                   ...        0 min,  0.091 sec
 * total energy  :  -469.4640394 Eh     change       -0.3712083E-03 Eh
   gradient norm :     0.0058963 Eh/α   predicted    -0.3128247E-03 ( -15.73%)
   displ. norm   :     0.7324809 α      lambda       -0.4080109E-03
   maximum displ.:     0.3551807 α      in ANC's #13, #11, #9, ...

........................................................................
.............................. CYCLE   53 ..............................
........................................................................
   1   -476.0913303 -0.476091E+03  0.736E-02    1.01       0.0  T
   2   -476.0913424 -0.120984E-04  0.393E-02    1.01       1.0  T
   3   -476.0913415  0.943618E-06  0.734E-03    1.01       1.0  T
   4   -476.0913415  0.214577E-07  0.506E-03    1.01       1.2  T
   5   -476.0913458 -0.436287E-05  0.111E-03    1.01       5.5  T
   6   -476.0913461 -0.269131E-06  0.437E-04    1.01      13.9  T
   7   -476.0913461 -0.153839E-07  0.259E-04    1.01      23.4  T
     SCC iter.                  ...        0 min,  0.539 sec
     gradient                   ...        0 min,  0.091 sec
 * total energy  :  -469.4643900 Eh     change       -0.3506231E-03 Eh
   gradient norm :     0.0040796 Eh/α   predicted    -0.3134681E-03 ( -10.60%)
   displ. norm   :     0.7373757 α      lambda       -0.3420140E-03
   maximum displ.:     0.3639590 α      in ANC's #13, #11, #9, ...

........................................................................
.............................. CYCLE   54 ..............................
........................................................................
   1   -476.0918626 -0.476092E+03  0.714E-02    1.01       0.0  T
   2   -476.0918736 -0.110592E-04  0.381E-02    1.01       1.0  T
   3   -476.0918732  0.485708E-06  0.702E-03    1.01       1.0  T
   4   -476.0918723  0.816887E-06  0.485E-03    1.01       1.2  T
   5   -476.0918767 -0.433173E-05  0.104E-03    1.01       5.8  T
   6   -476.0918769 -0.223498E-06  0.431E-04    1.01      14.1  T
   7   -476.0918769 -0.168514E-07  0.257E-04    1.01      23.6  T
     SCC iter.                  ...        0 min,  0.544 sec
     gradient                   ...        0 min,  0.092 sec
 * total energy  :  -469.4646907 Eh     change       -0.3006844E-03 Eh
   gradient norm :     0.0040123 Eh/α   predicted    -0.2639879E-03 ( -12.20%)
   displ. norm   :     0.7150538 α      lambda       -0.3179559E-03
   maximum displ.:     0.3593808 α      in ANC's #13, #9, #11, ...

........................................................................
.............................. CYCLE   55 ..............................
........................................................................
   1   -476.0944608 -0.476094E+03  0.675E-02    1.01       0.0  T
   2   -476.0944706 -0.975711E-05  0.360E-02    1.01       1.0  T
   3   -476.0944703  0.290609E-06  0.662E-03    1.01       1.0  T
   4   -476.0944693  0.102173E-05  0.458E-03    1.01       1.3  T
   5   -476.0944732 -0.393657E-05  0.968E-04    1.01       6.3  T
   6   -476.0944734 -0.183977E-06  0.411E-04    1.01      14.8  T
   7   -476.0944734 -0.145569E-07  0.251E-04    1.01      24.2  T
     SCC iter.                  ...        0 min,  0.547 sec
     gradient                   ...        0 min,  0.092 sec
 * total energy  :  -469.4649741 Eh     change       -0.2833727E-03 Eh
   gradient norm :     0.0043948 Eh/α   predicted    -0.2402644E-03 ( -15.21%)
   displ. norm   :     0.7602803 α      lambda       -0.3266804E-03
   maximum displ.:     0.3834180 α      in ANC's #13, #9, #11, ...

........................................................................
.............................. CYCLE   56 ..............................
........................................................................
   1   -476.0937396 -0.476094E+03  0.699E-02    1.01       0.0  T
   2   -476.0937495 -0.981072E-05  0.372E-02    1.01       1.0  T
   3   -476.0937493  0.136470E-06  0.685E-03    1.01       1.0  T
   4   -476.0937478  0.147088E-05  0.475E-03    1.01       1.3  T
   5   -476.0937521 -0.423166E-05  0.895E-04    1.01       6.8  T
   6   -476.0937522 -0.155393E-06  0.414E-04    1.01      14.6  T
   7   -476.0937522 -0.132712E-07  0.254E-04    1.01      23.9  T
     SCC iter.                  ...        0 min,  0.540 sec
     gradient                   ...        0 min,  0.091 sec
 * total energy  :  -469.4652649 Eh     change       -0.2908635E-03 Eh
   gradient norm :     0.0047398 Eh/α   predicted    -0.2577641E-03 ( -11.38%)
   displ. norm   :     0.7304016 α      lambda       -0.3651476E-03
   maximum displ.:     0.3757420 α      in ANC's #13, #9, #11, ...

........................................................................
.............................. CYCLE   57 ..............................
........................................................................
   1   -476.1003107 -0.476100E+03  0.698E-02    1.00       0.0  T
   2   -476.1003208 -0.101570E-04  0.368E-02    1.00       1.0  T
   3   -476.1003204  0.410827E-06  0.696E-03    1.00       1.0  T
   4   -476.1003192  0.123239E-05  0.496E-03    1.00       1.2  T
   5   -476.1003235 -0.429209E-05  0.958E-04    1.00       6.3  T
   6   -476.1003236 -0.179455E-06  0.450E-04    1.00      13.5  T
   7   -476.1003237 -0.205223E-07  0.265E-04    1.00      22.9  T
     SCC iter.                  ...        0 min,  0.542 sec
     gradient                   ...        0 min,  0.091 sec
 * total energy  :  -469.4655543 Eh     change       -0.2893689E-03 Eh
   gradient norm :     0.0051330 Eh/α   predicted    -0.2799756E-03 (  -3.25%)
   displ. norm   :     0.7848792 α      lambda       -0.3225445E-03
   maximum displ.:     0.4013703 α      in ANC's #13, #9, #11, ...

........................................................................
.............................. CYCLE   58 ..............................
........................................................................
   1   -476.0966021 -0.476097E+03  0.710E-02    1.00       0.0  T
   2   -476.0966119 -0.982659E-05  0.377E-02    1.00       1.0  T
   3   -476.0966121 -0.218040E-06  0.690E-03    1.00       1.0  T
   4   -476.0966100  0.212666E-05  0.488E-03    1.00       1.2  T
   5   -476.0966145 -0.452855E-05  0.828E-04    1.00       7.3  T
   6   -476.0966147 -0.128920E-06  0.410E-04    1.00      14.8  T
   7   -476.0966147 -0.118821E-07  0.241E-04    1.00      25.2  T
     SCC iter.                  ...        0 min,  0.551 sec
     gradient                   ...        0 min,  0.092 sec
 * total energy  :  -469.4658419 Eh     change       -0.2875808E-03 Eh
   gradient norm :     0.0044897 Eh/α   predicted    -0.2606403E-03 (  -9.37%)
   displ. norm   :     0.7427157 α      lambda       -0.3049171E-03
   maximum displ.:     0.3860643 α      in ANC's #13, #9, #11, ...

........................................................................
.............................. CYCLE   59 ..............................
........................................................................
   1   -476.0952174 -0.476095E+03  0.683E-02    1.00       0.0  T
   2   -476.0952270 -0.955331E-05  0.359E-02    1.00       1.0  T
   3   -476.0952265  0.429423E-06  0.689E-03    1.00       1.0  T
   4   -476.0952252  0.136097E-05  0.494E-03    1.00       1.2  T
   5   -476.0952295 -0.432500E-05  0.906E-04    1.00       6.7  T
   6   -476.0952297 -0.158980E-06  0.408E-04    1.00      14.9  T
   7   -476.0952297 -0.114594E-07  0.247E-04    1.00      24.5  T
     SCC iter.                  ...        0 min,  0.548 sec
     gradient                   ...        0 min,  0.092 sec
 * total energy  :  -469.4661112 Eh     change       -0.2693663E-03 Eh
   gradient norm :     0.0037615 Eh/α   predicted    -0.2365595E-03 ( -12.18%)
   displ. norm   :     0.7573420 α      lambda       -0.2968323E-03
   maximum displ.:     0.3955338 α      in ANC's #13, #9, #11, ...

........................................................................
.............................. CYCLE   60 ..............................
........................................................................
   1   -476.0943614 -0.476094E+03  0.708E-02    1.01       0.0  T
   2   -476.0943720 -0.106734E-04  0.371E-02    1.01       1.0  T
   3   -476.0943713  0.721506E-06  0.724E-03    1.01       1.0  T
   4   -476.0943704  0.918191E-06  0.510E-03    1.01       1.2  T
   5   -476.0943748 -0.441511E-05  0.105E-03    1.01       5.8  T
   6   -476.0943750 -0.222178E-06  0.424E-04    1.01      14.3  T
   7   -476.0943750 -0.130246E-07  0.254E-04    1.01      23.8  T
     SCC iter.                  ...        0 min,  0.561 sec
     gradient                   ...        0 min,  0.095 sec
 * total energy  :  -469.4663624 Eh     change       -0.2511107E-03 Eh
   gradient norm :     0.0038464 Eh/α   predicted    -0.2335486E-03 (  -6.99%)
   displ. norm   :     0.7580107 α      lambda       -0.2698713E-03
   maximum displ.:     0.4011075 α      in ANC's #13, #9, #11, ...

........................................................................
.............................. CYCLE   61 ..............................
........................................................................
   1   -476.0948677 -0.476095E+03  0.694E-02    1.01       0.0  T
   2   -476.0948780 -0.102965E-04  0.362E-02    1.01       1.0  T
   3   -476.0948776  0.428389E-06  0.704E-03    1.01       1.0  T
   4   -476.0948766  0.101472E-05  0.494E-03    1.01       1.2  T
   5   -476.0948807 -0.415053E-05  0.103E-03    1.01       5.9  T
   6   -476.0948810 -0.213975E-06  0.425E-04    1.01      14.3  T
   7   -476.0948810 -0.871336E-08  0.255E-04    1.01      23.7  T
     SCC iter.                  ...        0 min,  0.567 sec
     gradient                   ...        0 min,  0.095 sec
 * total energy  :  -469.4665893 Eh     change       -0.2269479E-03 Eh
   gradient norm :     0.0038634 Eh/α   predicted    -0.2124724E-03 (  -6.38%)
   displ. norm   :     0.7652879 α      lambda       -0.2359958E-03
[...]
     5   6 C      6   6 C                                 1.3913431
     4   6 C      7   6 C                                 1.4140928
     7   6 C      8   6 C                                 1.3666223
     5   6 C      9  16 S                                 1.7428159
     8   6 C      9  16 S                                 1.7534647
     1   6 C     10   6 C                                 1.4263379
    10   6 C     11   6 C                                 1.3477092
     2   6 C     12  16 S                                 1.7433419
    11   6 C     12  16 S                                 1.7286075
     8   6 C     15   6 C                                 1.4238996
    13   6 C     16   6 C                                 1.3657905
    16   6 C     17   6 C                                 1.4082830
    17   6 C     18   6 C                                 1.3626556
    13   6 C     19  16 S                                 1.7432685
    18   6 C     19  16 S                                 1.7300972
    14   6 C     20   6 C                                 1.3663777
    20   6 C     21   6 C                                 1.4081382
    21   6 C     22   6 C                                 1.3629652
    14   6 C     23  16 S                                 1.7441542
    22   6 C     23  16 S                                 1.7292177
    15   6 C     24  16 S                                 1.7466627
    24  16 S     25   6 C                                 1.7368273
    25   6 C     26   6 C                                 1.3754013
    15   6 C     27   6 C                                 1.3856485
    26   6 C     27   6 C                                 1.4030466
    17   6 C     28   9 F                                 1.3463193
    29   6 C     30   6 C                                 1.5293121
    21   6 C     31   9 F                                 1.3463016
    32   6 C     33   6 C                                 1.5292980
    34   6 C     35   6 C                                 1.5231903
    25   6 C     36   6 C                                 1.4192328
    36   6 C     37  16 S                                 1.7461145
    37  16 S     38   6 C                                 1.7313106
    38   6 C     39   6 C                                 1.3865934
    36   6 C     40   6 C                                 1.3792187
    39   6 C     40   6 C                                 1.3925470
    38   6 C     41   6 C                                 1.4198915
    41   6 C     42   6 C                                 1.3866234
    42   6 C     43   6 C                                 1.5002465
    39   6 C     44   6 C                                 1.4997860
    43   6 C     44   6 C                                 1.5365384
    41   6 C     45  16 S                                 1.7317379
    45  16 S     46   6 C                                 1.7457797
    42   6 C     47   6 C                                 1.3925495
    46   6 C     47   6 C                                 1.3793471
    46   6 C     48   6 C                                 1.4193276
    48   6 C     49   6 C                                 1.3755809
    49   6 C     50   6 C                                 1.4032493
    50   6 C     51   6 C                                 1.3855998
    48   6 C     52  16 S                                 1.7368551
    51   6 C     52  16 S                                 1.7466210
    53   6 C     54   6 C                                 1.5231002
    55   7 N     56   6 C                                 1.2661711
    57   6 C     58   7 N                                 1.2661852
    59   6 C     60   6 C                                 1.4163119
    60   6 C     61   6 C                                 1.3918013
    61   6 C     62   6 C                                 1.4113035
    62   6 C     63   6 C                                 1.4164980
    59   6 C     64   6 C                                 1.4087819
    63   6 C     64   6 C                                 1.3897272
    62   6 C     65   6 C                                 1.4142395
    65   6 C     66   6 C                                 1.3678476
    63   6 C     67  16 S                                 1.7400867
    66   6 C     67  16 S                                 1.7532826
    59   6 C     68   6 C                                 1.4117895
    51   6 C     69   6 C                                 1.4233846
    68   6 C     69   6 C                                 1.3670351
    60   6 C     70  16 S                                 1.7447414
    69   6 C     70  16 S                                 1.7536609 (max)
    66   6 C     73   6 C                                 1.4229291
    71   6 C     74   6 C                                 1.3664761
    74   6 C     75   6 C                                 1.4079345
    75   6 C     76   6 C                                 1.3627559
    71   6 C     77  16 S                                 1.7439394
    76   6 C     77  16 S                                 1.7295107
    72   6 C     78   6 C                                 1.3669098
    78   6 C     79   6 C                                 1.4077657
    79   6 C     80   6 C                                 1.3629188
    72   6 C     81  16 S                                 1.7442023
    80   6 C     81  16 S                                 1.7291812
    73   6 C     82  16 S                                 1.7466682
    82  16 S     83   6 C                                 1.7354341
    83   6 C     84   6 C                                 1.3779612
    73   6 C     85   6 C                                 1.3870962
    84   6 C     85   6 C                                 1.4004374
    75   6 C     86   9 F                                 1.3468395
    87   6 C     88   6 C                                 1.5294329
    79   6 C     89   9 F                                 1.3465761
    90   6 C     91   6 C                                 1.5297276
    92   6 C     93   6 C                                 1.5233666
    83   6 C     94   6 C                                 1.4211062
    94   6 C     95  16 S                                 1.7447808
    95  16 S     96   6 C                                 1.7303264
    96   6 C     97   6 C                                 1.3870246
    94   6 C     98   6 C                                 1.3813001
    97   6 C     98   6 C                                 1.3920233
    96   6 C     99   6 C                                 1.4199928
    99   6 C    100   6 C                                 1.3869574
   100   6 C    101   6 C                                 1.4999153
    97   6 C    102   6 C                                 1.5002521
   101   6 C    102   6 C                                 1.5361325
    99   6 C    103  16 S                                 1.7304325
   103  16 S    104   6 C                                 1.7446959
   100   6 C    105   6 C                                 1.3919057
   104   6 C    105   6 C                                 1.3814701
   104   6 C    106   6 C                                 1.4211046
   106   6 C    107   6 C                                 1.3779265
   107   6 C    108   6 C                                 1.4005668
   108   6 C    109   6 C                                 1.3868757
   106   6 C    110  16 S                                 1.7356248
   109   6 C    110  16 S                                 1.7464754
   111   6 C    112   6 C                                 1.5234033
   113   7 N    114   6 C                                 1.2662717
   115   6 C    116   7 N                                 1.2662630
   117   6 C    118   6 C                                 1.4161537
   118   6 C    119   6 C                                 1.3902692
   119   6 C    120   6 C                                 1.4092838
   120   6 C    121   6 C                                 1.4163797
   117   6 C    122   6 C                                 1.4107060
   121   6 C    122   6 C                                 1.3913467
   120   6 C    123   6 C                                 1.4125345
   123   6 C    124   6 C                                 1.3671034
   121   6 C    125  16 S                                 1.7435198
   124   6 C    125  16 S                                 1.7534278
   117   6 C    126   6 C                                 1.4141274
   109   6 C    127   6 C                                 1.4232316
   126   6 C    127   6 C                                 1.3676938
   118   6 C    128  16 S                                 1.7405467
   127   6 C    128  16 S                                 1.7536411
   124   6 C    131   6 C                                 1.4231343
   129   6 C    132   6 C                                 1.3666767
   132   6 C    133   6 C                                 1.4077711
   133   6 C    134   6 C                                 1.3629013
   129   6 C    135  16 S                                 1.7443119
   134   6 C    135  16 S                                 1.7295708
   130   6 C    136   6 C                                 1.3665415
   136   6 C    137   6 C                                 1.4079749
   137   6 C    138   6 C                                 1.3627438
   130   6 C    139  16 S                                 1.7439068
   138   6 C    139  16 S                                 1.7295525
   131   6 C    140  16 S                                 1.7458329
   140  16 S    141   6 C                                 1.7349310
   141   6 C    142   6 C                                 1.3775139
   131   6 C    143   6 C                                 1.3859274
   142   6 C    143   6 C                                 1.4022297
   133   6 C    144   9 F                                 1.3466050
   145   6 C    146   6 C                                 1.5294669
   137   6 C    147   9 F                                 1.3470190
   148   6 C    149   6 C                                 1.5293849
   150   6 C    151   6 C                                 1.5232561
   141   6 C    152   6 C                                 1.4215222
   152   6 C    153  16 S                                 1.7452171
   153  16 S    154   6 C                                 1.7278467
   154   6 C    155   6 C                                 1.3859719
   152   6 C    156   6 C                                 1.3806376
   155   6 C    156   6 C                                 1.3940043
   154   6 C    157   6 C                                 1.4196705
   157   6 C    158   6 C                                 1.3844631
   158   6 C    159   6 C                                 1.5006651
   155   6 C    160   6 C                                 1.5008255
   159   6 C    160   6 C                                 1.5373013
   157   6 C    161  16 S                                 1.7304896
   161  16 S    162   6 C                                 1.7451966
   158   6 C    163   6 C                                 1.3958523
   162   6 C    163   6 C                                 1.3769339
   162   6 C    164   6 C                                 1.4236253
   164   6 C    165   6 C                                 1.3709624
   165   6 C    166   6 C                                 1.4118163
   166   6 C    167   6 C                                 1.3626242
   164   6 C    168  16 S                                 1.7424425
   167   6 C    168  16 S                                 1.7189083
   166   6 C    169   6 C                                 1.4962952
   169   6 C    170   6 C                                 1.5296391
   171   7 N    172   6 C                                 1.2660715
   173   6 C    174   7 N                                 1.2663473
     7   6 C    175   1 H                                 1.0742928
    10   6 C    176   1 H                                 1.0739320
    11   6 C    177   1 H                                 1.0723063
    16   6 C    178   1 H                                 1.0736449
    20   6 C    179   1 H                                 1.0736598
    26   6 C    180   1 H                                 1.0746006
    29   6 C    181   1 H                                 1.0920770
    29   6 C    182   1 H                                 1.0932548
    30   6 C    183   1 H                                 1.0876651
    30   6 C    184   1 H                                 1.0868026
    30   6 C    185   1 H                                 1.0879125
    32   6 C    186   1 H                                 1.0921075
    32   6 C    187   1 H                                 1.0934512
    33   6 C    188   1 H                                 1.0876092
    33   6 C    189   1 H                                 1.0868284
    33   6 C    190   1 H                                 1.0878821
    34   6 C    191   1 H                                 1.0945731
    34   6 C    192   1 H                                 1.0946020
    35   6 C    193   1 H                                 1.0874301
    35   6 C    194   1 H                                 1.0873331
    35   6 C    195   1 H                                 1.0873803
    40   6 C    196   1 H                                 1.0745477
    43   6 C    197   1 H                                 1.1070989
    44   6 C    198   1 H                                 1.1070351
    47   6 C    199   1 H                                 1.0745465
    49   6 C    200   1 H                                 1.0746578
    53   6 C    201   1 H                                 1.0946447
    53   6 C    202   1 H                                 1.0945346
    54   6 C    203   1 H                                 1.0874480
    54   6 C    204   1 H                                 1.0873351
    54   6 C    205   1 H                                 1.0874803
    56   6 C    206   1 H                                 1.0822269
    57   6 C    207   1 H                                 1.0822470
    65   6 C    208   1 H                                 1.0743690
    68   6 C    209   1 H                                 1.0742694
    74   6 C    210   1 H                                 1.0736196
    78   6 C    211   1 H                                 1.0736166
    84   6 C    212   1 H                                 1.0729258
    87   6 C    213   1 H                                 1.0921452
    87   6 C    214   1 H                                 1.0933201
    88   6 C    215   1 H                                 1.0876141
    88   6 C    216   1 H                                 1.0868600
    88   6 C    217   1 H                                 1.0878443
    90   6 C    218   1 H                                 1.0921585
    90   6 C    219   1 H                                 1.0932244
    91   6 C    220   1 H                                 1.0875893
    91   6 C    221   1 H                                 1.0868715
    91   6 C    222   1 H                                 1.0878316
    92   6 C    223   1 H                                 1.0944662
    92   6 C    224   1 H                                 1.0944246
    93   6 C    225   1 H                                 1.0874713
    93   6 C    226   1 H                                 1.0873764
    93   6 C    227   1 H                                 1.0874196
    98   6 C    228   1 H                                 1.0732544
   101   6 C    229   1 H                                 1.1069474
   102   6 C    230   1 H                                 1.1070805
   105   6 C    231   1 H                                 1.0732326
   107   6 C    232   1 H                                 1.0729579
   111   6 C    233   1 H                                 1.0946173
   111   6 C    234   1 H                                 1.0941859
   112   6 C    235   1 H                                 1.0874088
   112   6 C    236   1 H                                 1.0873770
   112   6 C    237   1 H                                 1.0875464
   114   6 C    238   1 H                                 1.0822967
   115   6 C    239   1 H                                 1.0822835
   123   6 C    240   1 H                                 1.0742845
   126   6 C    241   1 H                                 1.0745079
   132   6 C    242   1 H                                 1.0736093
   136   6 C    243   1 H                                 1.0736657
   142   6 C    244   1 H                                 1.0732641
   145   6 C    245   1 H                                 1.0933328
   145   6 C    246   1 H                                 1.0921380
   146   6 C    247   1 H                                 1.0878227
   146   6 C    248   1 H                                 1.0868346
   146   6 C    249   1 H                                 1.0874811
   148   6 C    250   1 H                                 1.0921967
   148   6 C    251   1 H                                 1.0933922
   149   6 C    252   1 H                                 1.0875946
   149   6 C    253   1 H                                 1.0867937
   149   6 C    254   1 H                                 1.0878655
   150   6 C    255   1 H                                 1.0946272
   150   6 C    256   1 H                                 1.0943147
   151   6 C    257   1 H                                 1.0873865
   151   6 C    258   1 H                                 1.0873251
   151   6 C    259   1 H                                 1.0875458
   156   6 C    260   1 H                                 1.0734988
   159   6 C    261   1 H                                 1.1073217
   160   6 C    262   1 H                                 1.1072858
   163   6 C    263   1 H                                 1.0745502
   165   6 C    264   1 H                                 1.0759700
   167   6 C    265   1 H                                 1.0721053 (min)
   169   6 C    266   1 H                                 1.0915531
   169   6 C    267   1 H                                 1.0921572
   170   6 C    268   1 H                                 1.0877676
   170   6 C    269   1 H                                 1.0873455
   170   6 C    270   1 H                                 1.0875599
   172   6 C    271   1 H                                 1.0822627
   173   6 C    272   1 H                                 1.0823154

 * 5 distinct bonds (by element types)

   Z      Z             #   av. dist./Å        max./Å        min./Å
   1 H    6 C          98     1.0861779     1.1073217     1.0721053
   6 C    6 C         120     1.4171412     1.5373013     1.3477092
   6 C    7 N           6     1.2662183     1.2663473     1.2660715
   6 C    9 F           6     1.3466101     1.3470190     1.3463016
   6 C   16 S          48     1.7399846     1.7536609     1.7189083


optimized geometry written to: xtbopt.xyz


           -------------------------------------------------
          | TOTAL ENERGY             -469.477136566336 Eh   |
          | GRADIENT NORM               0.000500060751 Eh/α |
          | HOMO-LUMO GAP               0.991708978175 eV   |
           -------------------------------------------------

------------------------------------------------------------------------
 * finished run on 2021/11/17 at 18:08:12.940     
------------------------------------------------------------------------
 total:
 * wall-time:     0 d,  0 h,  5 min, 47.925 sec
 *  cpu-time:     0 d,  1 h,  6 min, 16.680 sec
 * ratio c/w:    11.430 speedup
 SCF:
 * wall-time:     0 d,  0 h,  0 min,  2.078 sec
 *  cpu-time:     0 d,  0 h,  0 min, 19.771 sec
 * ratio c/w:     9.514 speedup
 ANC optimizer:
 * wall-time:     0 d,  0 h,  5 min, 45.626 sec
 *  cpu-time:     0 d,  1 h,  5 min, 55.083 sec
 * ratio c/w:    11.443 speedup

