      -----------------------------------------------------------      
     |                   =====================                   |     
     |                           x T B                           |     
     |                   =====================                   |     
     |                         S. Grimme                         |     
     |          Mulliken Center for Theoretical Chemistry        |     
     |                    University of Bonn                     |     
     |                Version 6.2 RC2 (SAW190805)                |     
      -----------------------------------------------------------      

   This program is distributed in the hope that it will be useful,
   but WITHOUT ANY WARRANTY; without even the implied warranty of
   MERCHANTABILITY or FITNESS FOR A PARTICULAR PURPOSE.
   
   FOR NON-COMMERCIAL, ACADEMIA USE ONLY.
   
   Cite this work as:
   * S. Grimme, C. Bannwarth, P. Shushkov, J. Chem. Theory Comput., 2017,
     13, 1989-2009. DOI: 10.1021/acs.jctc.7b00118
   * C. Bannwarth, S. Ehlert and S. Grimme., J. Chem. Theory Comput., 2019,
     15, 1652-1671. DOI: 10.1021/acs.jctc.8b01176
   * P. Pracht, E. Caldeweyher, S. Ehlert, S. Grimme, ChemRxiv, 2019, preprint.
     DOI: 10.26434/chemrxiv.8326202.v1
   
   for DFT-D4:
   * E. Caldeweyher, C. Bannwarth and S. Grimme, J. Chem. Phys., 2017,
     147, 034112. DOI: 10.1063/1.4993215
   * E. Caldeweyher, S. Ehlert, A. Hansen, H. Neugebauer, S. Spicher,
     C. Bannwarth and S. Grimme, J. Chem. Phys., 2019, 150, 154122.
     DOI: 10.1063/1.5090222
   
   for sTDA-xTB:
   * S. Grimme and C. Bannwarth, J. Chem. Phys., 2016, 145, 054103.
     DOI: 10.1063/1.4959605
   
   in the mass-spec context:
   * V. Asgeirsson, C. Bauer and S. Grimme, Chem. Sci., 2017, 8, 4879.
     DOI: 10.1039/c7sc00601b
   
   for metadynamics refer to:
   * S. Grimme, J. Chem. Theory Comput., 2019, 155, 2847-2862
     DOI: 10.1021/acs.jctc.9b00143
   
   with help from (in alphabetical order)
   C. Bannwarth, F. Bohle, G. Brandenburg, E. Caldeweyher, M. Checinski,
   S. Dohm, S. Ehlert, S. Ehrlich, F. März, H. Neugebauer, J. Pisarek,
   P. Pracht, P. Shushkov, and S. Spicher.
   
 * started run on 2021/11/17 at 21:09:00.000     

           -------------------------------------------------
          |                Calculation Setup                |
           -------------------------------------------------

          program call               : /ihome/ghutchison/geoffh/xtb/xtb PFOPB.xyz -opt
          hostname                   : smp-n178
          coordinate file            : PFOPB.xyz
          omp threads                :                    12
          number of atoms            :                   278
          number of electrons        :                   932
          charge                     :                     0
          spin                       :                   0.0
          first test random number   :      0.67057731188790


########################################################################
# WARNING! Please study the warnings concerning your input carefully
#  - XTBPATH is not set, using XTBHOME instead
#  - the use of '-opt' is discouraged, please use '--opt' next time
########################################################################

           ------------------------------------------------- 
          |                 G F N 2 - x T B                 |
          | Geometry, Frequencies, Noncovalent interactions |
          |            JCTC 2019 parametrisation            |
           ------------------------------------------------- 
             KAB for C  - Si     :                1.0500
             KAB for H  - Pd     :                0.9500
             k(s)              :                1.8500
             k(p)              :                2.2300
             k(d)              :                2.2300
             k(f)              :                2.0000
             kEN (H0ij)        :               -2.0000
             D4 a1             :                0.5200
             D4 a2             :                5.0000
             D4 s6             :                1.0000
             D4 s8             :                2.7000
             D4 s9             :                5.0000
             alphaj            :                2.0000

  Z AO/shell   Hii/eV     exponent
  1     Wed Apr 25 08:07:45 CEST 2018   EN: 2.200 GM2: 0.406  GM3: 0.0800  RAES: 1.40
     1s    -10.707211    1.230000
  6     Wed Apr 25 08:07:45 CEST 2018   EN: 2.550 GM2: 0.538  GM3: 0.1500  RAES: 3.00
     2s    -13.970922    2.096432
     2p    -10.063292    1.800000
  8     Wed Apr 25 08:07:45 CEST 2018   EN: 3.440 GM2: 0.452  GM3:-0.0517  RAES: 1.80
     2s    -20.229985    2.439742
     2p    -15.503117    2.137023
  9     Mon Apr 23 13:58:50 CEST 2018   EN: 3.980 GM2: 0.532  GM3: 0.1426  RAES: 2.40
     2s    -23.458179    2.416361
     2p    -15.746583    2.308399
 16     Tue Apr 24 11:44:34 CEST 2018   EN: 2.580 GM2: 0.340  GM3:-0.0502  RAES: 3.10
     3s    -20.029654    1.981333
     3p    -11.377694    2.025643
     3d     -0.420282    1.702555

           ------------------------------------------------- 
          |        Self-Consistent Charge Iterations        |
           ------------------------------------------------- 

          ...................................................
          :                      SETUP                      :
          :.................................................:
          :  # basis functions                 944          :
          :  # atomic orbitals                 926          :
          :  # shells                          482          :
          :  # electrons                       932          :
          :  max. iterations                   250          :
          :  Hamiltonian                  GFN2-xTB          :
          :  restarted?                      false          :
          :  GBSA solvation                  false          :
          :  PC potential                    false          :
          :  electronic temp.          300.0000000     K    :
          :  accuracy                    1.0000000          :
          :  -> integral cutoff          0.2500000E+02      :
          :  -> integral neglect         0.1000000E-07      :
          :  -> SCF convergence          0.1000000E-05 Eh   :
          :  -> wf. convergence          0.1000000E-03 e    :
          :  Broyden damping             0.4000000          :
          ...................................................

 iter      E             dE          RMSdq      gap      omega  full diag
   1   -525.1454568 -0.525145E+03  0.449E+00    1.60       0.0  T
   2   -525.5388032 -0.393346E+00  0.264E+00    1.31       1.0  T
   3   -525.2756362  0.263167E+00  0.150E+00    1.59       1.0  T
   4   -525.6835396 -0.407903E+00  0.534E-01    1.44       1.0  T
   5   -525.7339807 -0.504411E-01  0.206E-01    1.44       1.0  T
   6   -525.7406432 -0.666243E-02  0.827E-02    1.48       1.0  T
   7   -525.7414788 -0.835643E-03  0.389E-02    1.47       1.0  T
   8   -525.7417605 -0.281686E-03  0.150E-02    1.47       1.0  T
   9   -525.7417746 -0.140759E-04  0.874E-03    1.47       1.0  T
  10   -525.7417810 -0.645952E-05  0.285E-03    1.47       2.1  T
  11   -525.7417822 -0.119007E-05  0.155E-03    1.47       3.9  T
  12   -525.7417825 -0.299228E-06  0.807E-04    1.47       7.4  T
  13   -525.7417826 -0.406903E-07  0.390E-04    1.47      15.4  T

   *** convergence criteria satisfied after 13 iterations ***

         #    Occupation            Energy/Eh            Energy/eV
      -------------------------------------------------------------
         1        2.0000           -0.8365696             -22.7642
       ...           ...                  ...                  ...
       460        2.0000           -0.3874333             -10.5426
       461        2.0000           -0.3831400             -10.4258
       462        2.0000           -0.3828435             -10.4177
       463        2.0000           -0.3822640             -10.4019
       464        2.0000           -0.3704379             -10.0801
       465        2.0000           -0.3694800             -10.0541
       466        2.0000           -0.3678959             -10.0110 (HOMO)
       467                         -0.3138348              -8.5399 (LUMO)
       468                         -0.3129551              -8.5159
       469                         -0.3098162              -8.4305
       470                         -0.3091338              -8.4120
       471                         -0.3077137              -8.3733
       ...                                ...                  ...
       926                          0.7347393              19.9933
      -------------------------------------------------------------
                  HL-Gap            0.0540610 Eh            1.4711 eV
             Fermi-level           -0.3409112 Eh           -9.2767 eV

 SCC (total)                   0 d,  0 h,  0 min,  3.101 sec
 SCC setup                      ...        0 min,  0.018 sec (  0.574%)
 Dispersion                     ...        0 min,  0.026 sec (  0.828%)
 integral evaluation            ...        0 min,  0.124 sec (  3.994%)
 zeroth order Hamiltonian       ...        0 min,  0.004 sec (  0.127%)
 iterations                     ...        0 min,  2.808 sec ( 90.553%)
 molecular gradient             ...        0 min,  0.102 sec (  3.280%)
 printout                       ...        0 min,  0.020 sec (  0.638%)

         :::::::::::::::::::::::::::::::::::::::::::::::::::::
         ::                     SUMMARY                     ::
         :::::::::::::::::::::::::::::::::::::::::::::::::::::
         :: total energy            -519.258864490040 Eh    ::
         :: gradient norm              0.269065248663 Eh/a0 ::
         :: HOMO-LUMO gap              1.471075824143 eV    ::
         ::.................................................::
         :: SCC energy              -525.741782568840 Eh    ::
         :: -> isotropic ES            0.386528143245 Eh    ::
         :: -> anisotropic ES          0.030703386482 Eh    ::
         :: -> anisotropic XC          0.096224423234 Eh    ::
         :: -> dispersion             -0.429532333879 Eh    ::
         :: repulsion energy           6.486408816975 Eh    ::
         :: add. restraining           0.000000000000 Eh    ::
         :::::::::::::::::::::::::::::::::::::::::::::::::::::

      ----------------------------------------------------------- 
     |                   =====================                   |
     |                        A N C O P T                        |
     |                   =====================                   |
     |               Approximate Normal Coordinate               |
     |                Rational Function Optimizer                |
      ----------------------------------------------------------- 

          ...................................................
          :                      SETUP                      :
          :.................................................:
          :   optimization level            normal          :
          :   max. optcycles                   834          :
          :   ANC micro-cycles                  20          :
          :   degrees of freedom               828          :
          :.................................................:
          :   RF solver                   davidson          :
          :   input Hessian                  false          :
          :   write xtbopt.log                true          :
          :   linear?                        false          :
          :   energy convergence         0.5000000E-05 Eh   :
          :   grad. convergence          0.1000000E-02 Eh/α :
          :   maximium RF displ.         2.0000000          :
          :   Hlow (freq-cutoff)         0.5000000E-02      :
          :   Hmax (freq-cutoff)         5.0000000          :
          :   S6 in model hess.         20.0000000          :
          ...................................................

generating ANC from model Hessian ...
Using Lindh-Hessian (1995)
 Shifting diagonal of input Hessian by   4.997122732757679E-003
 Lowest  eigenvalues of input Hessian
   -0.000000   -0.000000    0.000000    0.000000    0.000000    0.000000
    0.005000    0.005002    0.005003    0.005005    0.005008    0.005010
    0.005011    0.005019    0.005030    0.005037    0.005044    0.005049
 Highest eigenvalues
    2.155456    2.175872    2.216872    2.243812    2.249000    2.279430
 

........................................................................
.............................. CYCLE    1 ..............................
........................................................................
   1   -525.7417826 -0.525742E+03  0.196E-04    1.47       0.0  T
   2   -525.7417826  0.128239E-09  0.155E-04    1.47      38.6  T
   3   -525.7417826 -0.361797E-08  0.969E-05    1.47      61.9  T
     SCC iter.                  ...        0 min,  0.514 sec
     gradient                   ...        0 min,  0.098 sec
 * total energy  :  -519.2588640 Eh     change        0.4507242E-06 Eh
   gradient norm :     0.2690685 Eh/α   predicted     0.0000000E+00 (-100.00%)
   displ. norm   :     0.5602391 α      lambda       -0.1057750E+00
   maximum displ.:     0.1107122 α      in ANC's #190, #479, #425, ...

........................................................................
.............................. CYCLE    2 ..............................
........................................................................
   1   -525.8925265 -0.525893E+03  0.285E-01    1.48       0.0  T
   2   -525.8930935 -0.567042E-03  0.161E-01    1.49       1.0  T
   3   -525.8913644  0.172919E-02  0.104E-01    1.48       1.0  T
   4   -525.8939093 -0.254497E-02  0.289E-02    1.49       1.0  T
   5   -525.8939621 -0.527680E-04  0.154E-02    1.49       1.0  T
   6   -525.8940000 -0.379249E-04  0.401E-03    1.49       1.5  T
   7   -525.8940027 -0.266995E-05  0.198E-03    1.49       3.0  T
   8   -525.8940036 -0.905037E-06  0.743E-04    1.49       8.1  T
     SCC iter.                  ...        0 min,  1.372 sec
     gradient                   ...        0 min,  0.096 sec
 * total energy  :  -519.3399187 Eh     change       -0.8105464E-01 Eh
   gradient norm :     0.1445319 Eh/α   predicted    -0.6948739E-01 ( -14.27%)
   displ. norm   :     0.5777604 α      lambda       -0.5490684E-01
   maximum displ.:     0.1368147 α      in ANC's #190, #479, #161, ...

........................................................................
.............................. CYCLE    3 ..............................
........................................................................
   1   -526.0081975 -0.526008E+03  0.273E-01    1.47       0.0  T
   2   -526.0088735 -0.676015E-03  0.147E-01    1.48       1.0  T
   3   -526.0076774  0.119611E-02  0.899E-02    1.47       1.0  T
   4   -526.0094323 -0.175484E-02  0.287E-02    1.48       1.0  T
   5   -526.0094990 -0.666691E-04  0.147E-02    1.48       1.0  T
   6   -526.0095307 -0.317205E-04  0.435E-03    1.48       1.4  T
   7   -526.0095334 -0.270065E-05  0.198E-03    1.48       3.0  T
   8   -526.0095343 -0.937270E-06  0.676E-04    1.48       8.9  T
     SCC iter.                  ...        0 min,  1.384 sec
     gradient                   ...        0 min,  0.095 sec
 * total energy  :  -519.3773256 Eh     change       -0.3740696E-01 Eh
   gradient norm :     0.0489640 Eh/α   predicted    -0.3661756E-01 (  -2.11%)
   displ. norm   :     0.6489425 α      lambda       -0.1906597E-01
   maximum displ.:     0.1440538 α      in ANC's #46, #190, #87, ...

........................................................................
.............................. CYCLE    4 ..............................
........................................................................
   1   -526.0725189 -0.526073E+03  0.217E-01    1.45       0.0  T
   2   -526.0727454 -0.226471E-03  0.108E-01    1.46       1.0  T
   3   -526.0725153  0.230056E-03  0.408E-02    1.45       1.0  T
   4   -526.0728199 -0.304545E-03  0.174E-02    1.46       1.0  T
   5   -526.0728291 -0.919223E-05  0.851E-03    1.46       1.0  T
   6   -526.0728442 -0.151154E-04  0.206E-03    1.46       2.9  T
   7   -526.0728449 -0.690903E-06  0.959E-04    1.46       6.3  T
   8   -526.0728450 -0.123061E-06  0.532E-04    1.46      11.3  T
     SCC iter.                  ...        0 min,  1.347 sec
     gradient                   ...        0 min,  0.095 sec
 * total energy  :  -519.3920352 Eh     change       -0.1470953E-01 Eh
   gradient norm :     0.0266344 Eh/α   predicted    -0.1354759E-01 (  -7.90%)
   displ. norm   :     0.7366662 α      lambda       -0.1207961E-01
   maximum displ.:     0.2194953 α      in ANC's #46, #87, #129, ...

........................................................................
.............................. CYCLE    5 ..............................
........................................................................
   1   -526.1164354 -0.526116E+03  0.179E-01    1.43       0.0  T
   2   -526.1165447 -0.109283E-03  0.927E-02    1.43       1.0  T
   3   -526.1164919  0.527874E-04  0.251E-02    1.44       1.0  T
   4   -526.1165636 -0.716652E-04  0.133E-02    1.43       1.0  T
   5   -526.1165726 -0.903446E-05  0.576E-03    1.43       1.0  T
   6   -526.1165825 -0.982587E-05  0.147E-03    1.43       4.1  T
   7   -526.1165828 -0.342650E-06  0.756E-04    1.43       7.9  T
   8   -526.1165828 -0.294310E-07  0.415E-04    1.43      14.5  T
     SCC iter.                  ...        0 min,  1.360 sec
     gradient                   ...        0 min,  0.096 sec
 * total energy  :  -519.4021978 Eh     change       -0.1016268E-01 Eh
   gradient norm :     0.0217933 Eh/α   predicted    -0.9317476E-02 (  -8.32%)
   displ. norm   :     0.8092149 α      lambda       -0.9773999E-02
   maximum displ.:     0.2776666 α      in ANC's #46, #33, #87, ...

........................................................................
.............................. CYCLE    6 ..............................
........................................................................
   1   -526.1448399 -0.526145E+03  0.180E-01    1.41       0.0  T
   2   -526.1449430 -0.103136E-03  0.952E-02    1.41       1.0  T
   3   -526.1447522  0.190815E-03  0.321E-02    1.42       1.0  T
   4   -526.1449702 -0.218015E-03  0.145E-02    1.41       1.0  T
   5   -526.1449873 -0.170537E-04  0.563E-03    1.41       1.1  T
   6   -526.1449946 -0.735691E-05  0.184E-03    1.41       3.3  T
   7   -526.1449952 -0.588217E-06  0.956E-04    1.41       6.3  T
   8   -526.1449953 -0.834016E-07  0.511E-04    1.41      11.7  T
     SCC iter.                  ...        0 min,  1.358 sec
     gradient                   ...        0 min,  0.098 sec
 * total energy  :  -519.4108872 Eh     change       -0.8689335E-02 Eh
   gradient norm :     0.0209789 Eh/α   predicted    -0.8087149E-02 (  -6.93%)
   displ. norm   :     0.8584721 α      lambda       -0.8766574E-02
   maximum displ.:     0.3143791 α      in ANC's #46, #33, #29, ...

........................................................................
.............................. CYCLE    7 ..............................
........................................................................
   1   -526.1650124 -0.526165E+03  0.182E-01    1.40       0.0  T
   2   -526.1651130 -0.100565E-03  0.976E-02    1.40       1.0  T
   3   -526.1648550  0.258020E-03  0.352E-02    1.40       1.0  T
   4   -526.1651480 -0.293056E-03  0.145E-02    1.40       1.0  T
   5   -526.1651654 -0.174175E-04  0.550E-03    1.40       1.1  T
   6   -526.1651714 -0.597037E-05  0.207E-03    1.40       2.9  T
   7   -526.1651722 -0.835326E-06  0.958E-04    1.40       6.3  T
     SCC iter.                  ...        0 min,  1.186 sec
     gradient                   ...        0 min,  0.096 sec
 * total energy  :  -519.4189293 Eh     change       -0.8042077E-02 Eh
   gradient norm :     0.0197413 Eh/α   predicted    -0.7613664E-02 (  -5.33%)
   displ. norm   :     0.8853989 α      lambda       -0.8109655E-02
   maximum displ.:     0.3360771 α      in ANC's #46, #33, #29, ...

........................................................................
.............................. CYCLE    8 ..............................
........................................................................
   1   -526.1796667 -0.526180E+03  0.188E-01    1.38       0.0  T
   2   -526.1797737 -0.106999E-03  0.101E-01    1.38       1.0  T
   3   -526.1794972  0.276493E-03  0.363E-02    1.38       1.0  T
   4   -526.1798117 -0.314427E-03  0.149E-02    1.38       1.0  T
   5   -526.1798310 -0.193025E-04  0.548E-03    1.38       1.1  T
   6   -526.1798366 -0.562713E-05  0.211E-03    1.38       2.8  T
   7   -526.1798374 -0.830325E-06  0.995E-04    1.38       6.0  T
   8   -526.1798375 -0.849558E-07  0.538E-04    1.38      11.1  T
     SCC iter.                  ...        0 min,  1.347 sec
     gradient                   ...        0 min,  0.100 sec
 * total energy  :  -519.4264463 Eh     change       -0.7517042E-02 Eh
   gradient norm :     0.0172346 Eh/α   predicted    -0.7233547E-02 (  -3.77%)
   displ. norm   :     0.9032226 α      lambda       -0.7457038E-02
   maximum displ.:     0.3482130 α      in ANC's #46, #33, #25, ...

........................................................................
.............................. CYCLE    9 ..............................
........................................................................
   1   -526.1932983 -0.526193E+03  0.186E-01    1.38       0.0  T
   2   -526.1933928 -0.945030E-04  0.999E-02    1.38       1.0  T
   3   -526.1931930  0.199728E-03  0.327E-02    1.38       1.0  T
   4   -526.1934181 -0.225054E-03  0.146E-02    1.38       1.0  T
   5   -526.1934386 -0.205650E-04  0.494E-03    1.38       1.2  T
   6   -526.1934433 -0.464940E-05  0.178E-03    1.38       3.4  T
   7   -526.1934439 -0.586563E-06  0.871E-04    1.38       6.9  T
   8   -526.1934439 -0.372386E-07  0.489E-04    1.38      12.3  T
     SCC iter.                  ...        0 min,  1.366 sec
     gradient                   ...        0 min,  0.096 sec
 * total energy  :  -519.4333900 Eh     change       -0.6943710E-02 Eh
   gradient norm :     0.0140266 Eh/α   predicted    -0.6770297E-02 (  -2.50%)
   displ. norm   :     0.9156753 α      lambda       -0.6807612E-02
   maximum displ.:     0.3524777 α      in ANC's #46, #33, #25, ...

........................................................................
.............................. CYCLE   10 ..............................
........................................................................
   1   -526.2029119 -0.526203E+03  0.189E-01    1.37       0.0  T
   2   -526.2030150 -0.103098E-03  0.102E-01    1.37       1.0  T
   3   -526.2028144  0.200651E-03  0.334E-02    1.37       1.0  T
   4   -526.2030442 -0.229843E-03  0.149E-02    1.37       1.0  T
   5   -526.2030631 -0.188420E-04  0.544E-03    1.37       1.1  T
   6   -526.2030694 -0.633709E-05  0.166E-03    1.37       3.6  T
   7   -526.2030698 -0.350160E-06  0.965E-04    1.37       6.2  T
   8   -526.2030698 -0.837321E-07  0.503E-04    1.37      11.9  T
     SCC iter.                  ...        0 min,  1.383 sec
     gradient                   ...        0 min,  0.096 sec
 * total energy  :  -519.4397348 Eh     change       -0.6344813E-02 Eh
   gradient norm :     0.0142889 Eh/α   predicted    -0.6257772E-02 (  -1.37%)
   displ. norm   :     0.9195598 α      lambda       -0.6282040E-02
   maximum displ.:     0.3513044 α      in ANC's #46, #33, #25, ...

........................................................................
.............................. CYCLE   11 ..............................
........................................................................
   1   -526.2154986 -0.526215E+03  0.179E-01    1.37       0.0  T
   2   -526.2155877 -0.890792E-04  0.971E-02    1.37       1.0  T
   3   -526.2154344  0.153264E-03  0.305E-02    1.37       1.0  T
   4   -526.2156042 -0.169747E-03  0.143E-02    1.37       1.0  T
   5   -526.2156232 -0.190250E-04  0.529E-03    1.37       1.1  T
   6   -526.2156286 -0.538591E-05  0.173E-03    1.37       3.5  T
   7   -526.2156292 -0.638700E-06  0.820E-04    1.37       7.3  T
   8   -526.2156293 -0.282749E-07  0.475E-04    1.37      12.6  T
     SCC iter.                  ...        0 min,  1.378 sec
     gradient                   ...        0 min,  0.098 sec
 * total energy  :  -519.4455424 Eh     change       -0.5807536E-02 Eh
   gradient norm :     0.0136188 Eh/α   predicted    -0.5797043E-02 (  -0.18%)
   displ. norm   :     0.9235514 α      lambda       -0.5752765E-02
   maximum displ.:     0.3422838 α      in ANC's #46, #33, #25, ...

........................................................................
.............................. CYCLE   12 ..............................
........................................................................
   1   -526.2224929 -0.526222E+03  0.178E-01    1.36       0.0  T
   2   -526.2225871 -0.942328E-04  0.970E-02    1.36       1.0  T
   3   -526.2224156  0.171488E-03  0.316E-02    1.36       1.0  T
   4   -526.2226130 -0.197369E-03  0.139E-02    1.36       1.0  T
   5   -526.2226287 -0.156484E-04  0.571E-03    1.36       1.0  T
   6   -526.2226354 -0.668917E-05  0.148E-03    1.36       4.0  T
   7   -526.2226356 -0.221325E-06  0.896E-04    1.36       6.7  T
   8   -526.2226356 -0.608837E-07  0.452E-04    1.36      13.3  T
     SCC iter.                  ...        0 min,  1.388 sec
     gradient                   ...        0 min,  0.096 sec
 * total energy  :  -519.4508621 Eh     change       -0.5319718E-02 Eh
   gradient norm :     0.0127495 Eh/α   predicted    -0.5329784E-02 (   0.19%)
   displ. norm   :     0.9200932 α      lambda       -0.5246978E-02
   maximum displ.:     0.3310581 α      in ANC's #46, #33, #25, ...

........................................................................
.............................. CYCLE   13 ..............................
........................................................................
   1   -526.2342211 -0.526234E+03  0.171E-01    1.36       0.0  T
   2   -526.2342933 -0.722513E-04  0.926E-02    1.36       1.0  T
   3   -526.2342035  0.898373E-04  0.255E-02    1.36       1.0  T
   4   -526.2343001 -0.966387E-04  0.135E-02    1.36       1.0  T
   5   -526.2343188 -0.186547E-04  0.469E-03    1.36       1.3  T
   6   -526.2343238 -0.499710E-05  0.142E-03    1.36       4.2  T
   7   -526.2343241 -0.327803E-06  0.769E-04    1.36       7.8  T
   8   -526.2343241 -0.274350E-07  0.415E-04    1.36      14.4  T
     SCC iter.                  ...        0 min,  1.392 sec
     gradient                   ...        0 min,  0.096 sec
 * total energy  :  -519.4557564 Eh     change       -0.4894303E-02 Eh
   gradient norm :     0.0102888 Eh/α   predicted    -0.4844464E-02 (  -1.02%)
   displ. norm   :     0.9257743 α      lambda       -0.4810809E-02
   maximum displ.:     0.3158317 α      in ANC's #46, #33, #25, ...

........................................................................
.............................. CYCLE   14 ..............................
........................................................................
   1   -526.2428141 -0.526243E+03  0.163E-01    1.35       0.0  T
   2   -526.2428746 -0.605085E-04  0.894E-02    1.35       1.0  T
   3   -526.2427768  0.977555E-04  0.254E-02    1.35       1.0  T
   4   -526.2428849 -0.108041E-03  0.126E-02    1.35       1.0  T
   5   -526.2429001 -0.152369E-04  0.437E-03    1.35       1.4  T
   6   -526.2429040 -0.388870E-05  0.133E-03    1.35       4.5  T
   7   -526.2429042 -0.250998E-06  0.749E-04    1.35       8.0  T
   8   -526.2429043 -0.191272E-07  0.390E-04    1.35      15.4  T
     SCC iter.                  ...        0 min,  1.389 sec
     gradient                   ...        0 min,  0.096 sec
 * total energy  :  -519.4602730 Eh     change       -0.4516665E-02 Eh
   gradient norm :     0.0098912 Eh/α   predicted    -0.4466980E-02 (  -1.10%)
   displ. norm   :     0.9264860 α      lambda       -0.4487509E-02
   maximum displ.:     0.3041327 α      in ANC's #33, #25, #46, ...

........................................................................
.............................. CYCLE   15 ..............................
........................................................................
   1   -526.2516314 -0.526252E+03  0.164E-01    1.35       0.0  T
   2   -526.2516953 -0.639168E-04  0.885E-02    1.35       1.0  T
   3   -526.2516464  0.489224E-04  0.218E-02    1.35       1.0  T
   4   -526.2516989 -0.524432E-04  0.125E-02    1.35       1.0  T
   5   -526.2517156 -0.167356E-04  0.415E-03    1.35       1.4  T
   6   -526.2517196 -0.396579E-05  0.121E-03    1.35       4.9  T
   7   -526.2517197 -0.152348E-06  0.739E-04    1.35       8.1  T
   8   -526.2517197 -0.345429E-07  0.358E-04    1.35      16.8  T
     SCC iter.                  ...        0 min,  1.406 sec
     gradient                   ...        0 min,  0.096 sec
 * total energy  :  -519.4644867 Eh     change       -0.4213677E-02 Eh
   gradient norm :     0.0110638 Eh/α   predicted    -0.4169744E-02 (  -1.04%)
   displ. norm   :     0.9300359 α      lambda       -0.4216223E-02
   maximum displ.:     0.3050503 α      in ANC's #25, #33, #29, ...

........................................................................
.............................. CYCLE   16 ..............................
........................................................................
   1   -526.2585023 -0.526259E+03  0.158E-01    1.34       0.0  T
   2   -526.2585650 -0.626677E-04  0.862E-02    1.34       1.0  T
   3   -526.2584846  0.803503E-04  0.237E-02    1.35       1.0  T
   4   -526.2585710 -0.864110E-04  0.125E-02    1.34       1.0  T
   5   -526.2585878 -0.167118E-04  0.420E-03    1.34       1.4  T
   6   -526.2585916 -0.385848E-05  0.130E-03    1.34       4.6  T
   7   -526.2585919 -0.253738E-06  0.717E-04    1.34       8.4  T
   8   -526.2585919 -0.216276E-07  0.392E-04    1.34      15.3  T
     SCC iter.                  ...        0 min,  1.421 sec
     gradient                   ...        0 min,  0.096 sec
 * total energy  :  -519.4684213 Eh     change       -0.3934587E-02 Eh
   gradient norm :     0.0122655 Eh/α   predicted    -0.3931560E-02 (  -0.08%)
   displ. norm   :     0.9283552 α      lambda       -0.4064139E-02
   maximum displ.:     0.3137559 α      in ANC's #25, #29, #33, ...

........................................................................
.............................. CYCLE   17 ..............................
........................................................................
   1   -526.2669036 -0.526267E+03  0.160E-01    1.34       0.0  T
   2   -526.2669901 -0.864715E-04  0.859E-02    1.34       1.0  T
   3   -526.2669198  0.702377E-04  0.234E-02    1.34       1.0  T
   4   -526.2669946 -0.747997E-04  0.128E-02    1.34       1.0  T
   5   -526.2670125 -0.178316E-04  0.486E-03    1.34       1.2  T
   6   -526.2670172 -0.478496E-05  0.146E-03    1.34       4.1  T
   7   -526.2670176 -0.385117E-06  0.757E-04    1.34       7.9  T
   8   -526.2670177 -0.641697E-07  0.414E-04    1.34      14.5  T
     SCC iter.                  ...        0 min,  1.419 sec
     gradient                   ...        0 min,  0.096 sec
 * total energy  :  -519.4720705 Eh     change       -0.3649186E-02 Eh
   gradient norm :     0.0170281 Eh/α   predicted    -0.3783402E-02 (   3.68%)
   displ. norm   :     0.9138738 α      lambda       -0.3873293E-02
   maximum displ.:     0.3149802 α      in ANC's #25, #29, #23, ...

........................................................................
.............................. CYCLE   18 ..............................
........................................................................
   1   -526.2668614 -0.526267E+03  0.155E-01    1.33       0.0  T
   2   -526.2669603 -0.989185E-04  0.839E-02    1.33       1.0  T
   3   -526.2668446  0.115773E-03  0.264E-02    1.33       1.0  T
   4   -526.2669768 -0.132265E-03  0.127E-02    1.33       1.0  T
   5   -526.2669920 -0.151206E-04  0.553E-03    1.33       1.1  T
   6   -526.2669979 -0.594274E-05  0.164E-03    1.33       3.7  T
   7   -526.2669984 -0.449479E-06  0.887E-04    1.33       6.8  T
   8   -526.2669984 -0.800462E-07  0.499E-04    1.33      12.0  T
     SCC iter.                  ...        0 min,  2.613 sec
     gradient                   ...        0 min,  0.124 sec
 * total energy  :  -519.4755080 Eh     change       -0.3437540E-02 Eh
   gradient norm :     0.0166425 Eh/α   predicted    -0.3554071E-02 (   3.39%)
   displ. norm   :     0.9031268 α      lambda       -0.3608076E-02
   maximum displ.:     0.3235209 α      in ANC's #29, #25, #23, ...

........................................................................
.............................. CYCLE   19 ..............................
........................................................................
   1   -526.2783462 -0.526278E+03  0.148E-01    1.33       0.0  T
   2   -526.2784122 -0.660709E-04  0.794E-02    1.33       1.0  T
   3   -526.2783379  0.743394E-04  0.223E-02    1.33       1.0  T
   4   -526.2784148 -0.768919E-04  0.122E-02    1.33       1.0  T
   5   -526.2784330 -0.181711E-04  0.437E-03    1.33       1.4  T
   6   -526.2784369 -0.396161E-05  0.115E-03    1.33       5.2  T
   7   -526.2784371 -0.173458E-06  0.658E-04    1.33       9.1  T
   8   -526.2784371 -0.237735E-07  0.364E-04    1.33      16.5  T
     SCC iter.                  ...        0 min,  2.349 sec
     gradient                   ...        0 min,  0.112 sec
 * total energy  :  -519.4787428 Eh     change       -0.3234781E-02 Eh
   gradient norm :     0.0125426 Eh/α   predicted    -0.3275484E-02 (   1.26%)
   displ. norm   :     0.9162233 α      lambda       -0.3438746E-02
   maximum displ.:     0.3292548 α      in ANC's #29, #25, #23, ...

........................................................................
.............................. CYCLE   20 ..............................
........................................................................
   1   -526.2785364 -0.526279E+03  0.167E-01    1.32       0.0  T
   2   -526.2786283 -0.918765E-04  0.870E-02    1.32       1.0  T
   3   -526.2785814  0.469374E-04  0.224E-02    1.32       1.0  T
   4   -526.2786367 -0.553406E-04  0.130E-02    1.32       1.0  T
   5   -526.2786521 -0.153606E-04  0.452E-03    1.32       1.3  T
   6   -526.2786565 -0.444161E-05  0.139E-03    1.32       4.3  T
   7   -526.2786569 -0.390134E-06  0.622E-04    1.32       9.6  T
   8   -526.2786569 -0.984483E-08  0.384E-04    1.32      15.6  T
     SCC iter.                  ...        0 min,  1.416 sec
     gradient                   ...        0 min,  0.096 sec
 * total energy  :  -519.4817230 Eh     change       -0.2980203E-02 Eh
   gradient norm :     0.0165639 Eh/α   predicted    -0.3162731E-02 (   6.12%)
   displ. norm   :     0.8762363 α      lambda       -0.3434712E-02
   maximum displ.:     0.3311725 α      in ANC's #29, #23, #25, ...
 * RMSD in coord.:     0.8881012 α      energy gain  -0.2228585E+00 Eh

generating ANC from model Hessian ...
Using Lindh-Hessian (1995)
 Shifting diagonal of input Hessian by   4.995916189060748E-003
 Lowest  eigenvalues of input Hessian
   -0.000000   -0.000000    0.000000    0.000000    0.000000    0.000000
    0.005000    0.005001    0.005004    0.005007    0.005009    0.005012
    0.005013    0.005023    0.005031    0.005043    0.005046    0.005052
 Highest eigenvalues
    2.202514    2.202986    2.204741    2.259953    2.278575    2.278914
 

........................................................................
.............................. CYCLE   21 ..............................
........................................................................
   1   -526.2913928 -0.526291E+03  0.141E-01    1.32       0.0  T
   2   -526.2914625 -0.696920E-04  0.748E-02    1.32       1.0  T
   3   -526.2913889  0.735791E-04  0.228E-02    1.32       1.0  T
   4   -526.2914788 -0.899676E-04  0.108E-02    1.32       1.0  T
   5   -526.2914855 -0.666128E-05  0.468E-03    1.32       1.3  T
   6   -526.2914902 -0.472527E-05  0.128E-03    1.32       4.7  T
   7   -526.2914905 -0.262697E-06  0.700E-04    1.32       8.6  T
   8   -526.2914905 -0.376233E-07  0.388E-04    1.32      15.4  T
     SCC iter.                  ...        0 min,  1.400 sec
     gradient                   ...        0 min,  0.099 sec
 * total energy  :  -519.4846093 Eh     change       -0.2886304E-02 Eh
   gradient norm :     0.0174051 Eh/α   predicted     0.0000000E+00 (-100.00%)
   displ. norm   :     0.4375903 α      lambda       -0.1804031E-02
   maximum displ.:     0.1730052 α      in ANC's #23, #25, #28, ...

........................................................................
.............................. CYCLE   22 ..............................
........................................................................
   1   -526.2921642 -0.526292E+03  0.724E-02    1.32       0.0  T
   2   -526.2921873 -0.231128E-04  0.385E-02    1.31       1.0  T
   3   -526.2921624  0.249668E-04  0.124E-02    1.32       1.0  T
   4   -526.2921907 -0.283111E-04  0.612E-03    1.32       1.0  T
   5   -526.2921946 -0.391408E-05  0.278E-03    1.32       2.2  T
   6   -526.2921960 -0.145988E-05  0.756E-04    1.32       7.9  T
   7   -526.2921961 -0.854914E-07  0.427E-04    1.32      14.0  T
     SCC iter.                  ...        0 min,  1.234 sec
     gradient                   ...        0 min,  0.096 sec
 * total energy  :  -519.4862592 Eh     change       -0.1649876E-02 Eh
   gradient norm :     0.0062236 Eh/α   predicted    -0.1078570E-02 ( -34.63%)
   displ. norm   :     0.5003926 α      lambda       -0.1803853E-02
   maximum displ.:     0.1756670 α      in ANC's #23, #25, #28, ...

........................................................................
.............................. CYCLE   23 ..............................
........................................................................
   1   -526.2915573 -0.526292E+03  0.102E-01    1.31       0.0  T
   2   -526.2916018 -0.445095E-04  0.535E-02    1.31       1.0  T
   3   -526.2915609  0.409115E-04  0.170E-02    1.31       1.0  T
   4   -526.2916082 -0.473299E-04  0.873E-03    1.31       1.0  T
   5   -526.2916153 -0.706450E-05  0.398E-03    1.31       1.5  T
   6   -526.2916185 -0.321704E-05  0.109E-03    1.31       5.5  T
   7   -526.2916187 -0.205240E-06  0.584E-04    1.31      10.3  T
   8   -526.2916187 -0.238941E-07  0.309E-04    1.31      19.4  T
     SCC iter.                  ...        0 min,  1.414 sec
     gradient                   ...        0 min,  0.097 sec
 * total energy  :  -519.4879488 Eh     change       -0.1689557E-02 Eh
   gradient norm :     0.0085699 Eh/α   predicted    -0.1127764E-02 ( -33.25%)
   displ. norm   :     0.8623528 α      lambda       -0.2834150E-02
   maximum displ.:     0.3027251 α      in ANC's #23, #25, #28, ...

........................................................................
.............................. CYCLE   24 ..............................
........................................................................
   1   -526.2883571 -0.526288E+03  0.171E-01    1.31       0.0  T
   2   -526.2884696 -0.112504E-03  0.906E-02    1.31       1.0  T
   3   -526.2883186  0.150995E-03  0.309E-02    1.31       1.0  T
   4   -526.2884919 -0.173295E-03  0.150E-02    1.31       1.0  T
   5   -526.2885110 -0.190752E-04  0.666E-03    1.31       1.0  T
   6   -526.2885194 -0.842873E-05  0.195E-03    1.31       3.1  T
   7   -526.2885201 -0.724306E-06  0.973E-04    1.31       6.2  T
   8   -526.2885202 -0.501805E-07  0.494E-04    1.31      12.1  T
     SCC iter.                  ...        0 min,  1.406 sec
     gradient                   ...        0 min,  0.096 sec
 * total energy  :  -519.4905466 Eh     change       -0.2597889E-02 Eh
   gradient norm :     0.0178685 Eh/α   predicted    -0.2470911E-02 (  -4.89%)
   displ. norm   :     0.8648770 α      lambda       -0.2648056E-02
   maximum displ.:     0.3158684 α      in ANC's #23, #25, #28, ...

........................................................................
.............................. CYCLE   25 ..............................
........................................................................
   1   -526.2874304 -0.526287E+03  0.159E-01    1.30       0.0  T
   2   -526.2875155 -0.850398E-04  0.845E-02    1.30       1.0  T
   3   -526.2873434  0.172076E-03  0.306E-02    1.30       1.0  T
   4   -526.2875383 -0.194942E-03  0.138E-02    1.30       1.0  T
   5   -526.2875538 -0.155135E-04  0.573E-03    1.30       1.0  T
   6   -526.2875599 -0.604371E-05  0.181E-03    1.30       3.3  T
   7   -526.2875606 -0.681750E-06  0.849E-04    1.30       7.1  T
   8   -526.2875606 -0.297624E-07  0.445E-04    1.30      13.5  T
     SCC iter.                  ...        0 min,  1.412 sec
     gradient                   ...        0 min,  0.097 sec
 * total energy  :  -519.4929942 Eh     change       -0.2447567E-02 Eh
   gradient norm :     0.0206315 Eh/α   predicted    -0.2314422E-02 (  -5.44%)
   displ. norm   :     0.8388082 α      lambda       -0.2678171E-02
   maximum displ.:     0.3235634 α      in ANC's #23, #25, #28, ...

........................................................................
.............................. CYCLE   26 ..............................
........................................................................
   1   -526.2946811 -0.526295E+03  0.139E-01    1.30       0.0  T
   2   -526.2947402 -0.591369E-04  0.738E-02    1.30       1.0  T
   3   -526.2946206  0.119654E-03  0.251E-02    1.30       1.0  T
   4   -526.2947539 -0.133341E-03  0.117E-02    1.30       1.0  T
   5   -526.2947662 -0.122863E-04  0.449E-03    1.30       1.3  T
   6   -526.2947702 -0.396467E-05  0.146E-03    1.30       4.1  T
   7   -526.2947706 -0.438506E-06  0.687E-04    1.30       8.7  T
     SCC iter.                  ...        0 min,  1.220 sec
     gradient                   ...        0 min,  0.096 sec
 * total energy  :  -519.4954545 Eh     change       -0.2460296E-02 Eh
   gradient norm :     0.0131954 Eh/α   predicted    -0.2281276E-02 (  -7.28%)
   displ. norm   :     0.8698642 α      lambda       -0.2523217E-02
   maximum displ.:     0.3455273 α      in ANC's #23, #25, #28, ...

........................................................................
.............................. CYCLE   27 ..............................
........................................................................
   1   -526.3029979 -0.526303E+03  0.136E-01    1.30       0.0  T
   2   -526.3030549 -0.570190E-04  0.720E-02    1.30       1.0  T
   3   -526.3029874  0.674764E-04  0.210E-02    1.30       1.0  T
   4   -526.3030592 -0.717606E-04  0.113E-02    1.30       1.0  T
   5   -526.3030741 -0.148838E-04  0.415E-03    1.30       1.4  T
   6   -526.3030775 -0.341176E-05  0.131E-03    1.30       4.6  T
   7   -526.3030778 -0.351418E-06  0.639E-04    1.30       9.4  T
   8   -526.3030779 -0.162457E-07  0.376E-04    1.30      16.0  T
     SCC iter.                  ...        0 min,  1.396 sec
     gradient                   ...        0 min,  0.097 sec
 * total energy  :  -519.4977855 Eh     change       -0.2330964E-02 Eh
   gradient norm :     0.0075153 Eh/α   predicted    -0.2216232E-02 (  -4.92%)
   displ. norm   :     0.9091408 α      lambda       -0.2332072E-02
   maximum displ.:     0.3634722 α      in ANC's #23, #25, #28, ...

........................................................................
.............................. CYCLE   28 ..............................
........................................................................
   1   -526.3054008 -0.526305E+03  0.141E-01    1.30       0.0  T
   2   -526.3054594 -0.585533E-04  0.742E-02    1.30       1.0  T
   3   -526.3054057  0.536852E-04  0.203E-02    1.30       1.0  T
   4   -526.3054605 -0.548250E-04  0.116E-02    1.30       1.0  T
   5   -526.3054774 -0.168414E-04  0.421E-03    1.30       1.4  T
   6   -526.3054811 -0.372342E-05  0.128E-03    1.30       4.7  T
   7   -526.3054814 -0.313122E-06  0.655E-04    1.30       9.2  T
   8   -526.3054814 -0.162693E-07  0.357E-04    1.30      16.8  T
     SCC iter.                  ...        0 min,  1.400 sec
     gradient                   ...        0 min,  0.097 sec
 * total energy  :  -519.4999902 Eh     change       -0.2204680E-02 Eh
   gradient norm :     0.0071990 Eh/α   predicted    -0.2129840E-02 (  -3.39%)
   displ. norm   :     0.9074239 α      lambda       -0.2232508E-02
   maximum displ.:     0.3733395 α      in ANC's #23, #25, #28, ...

........................................................................
.............................. CYCLE   29 ..............................
........................................................................
   1   -526.3139610 -0.526314E+03  0.131E-01    1.30       0.0  T
   2   -526.3140075 -0.465579E-04  0.688E-02    1.30       1.0  T
   3   -526.3139699  0.376314E-04  0.176E-02    1.30       1.0  T
   4   -526.3140058 -0.359094E-04  0.106E-02    1.30       1.0  T
   5   -526.3140213 -0.154751E-04  0.368E-03    1.30       1.6  T
   6   -526.3140244 -0.311011E-05  0.106E-03    1.30       5.7  T
   7   -526.3140246 -0.188036E-06  0.567E-04    1.30      10.6  T
   8   -526.3140246 -0.662021E-08  0.318E-04    1.30      18.9  T
     SCC iter.                  ...        0 min,  1.397 sec
     gradient                   ...        0 min,  0.096 sec
 * total energy  :  -519.5020792 Eh     change       -0.2089069E-02 Eh
   gradient norm :     0.0091553 Eh/α   predicted    -0.2035412E-02 (  -2.57%)
   displ. norm   :     0.9327232 α      lambda       -0.2126945E-02
   maximum displ.:     0.3784434 α      in ANC's #23, #25, #28, ...

........................................................................
.............................. CYCLE   30 ..............................
........................................................................
   1   -526.3092999 -0.526309E+03  0.137E-01    1.30       0.0  T
   2   -526.3093523 -0.523485E-04  0.723E-02    1.30       1.0  T
   3   -526.3093076  0.447006E-04  0.191E-02    1.30       1.0  T
   4   -526.3093534 -0.458437E-04  0.111E-02    1.30       1.0  T
   5   -526.3093680 -0.145224E-04  0.416E-03    1.30       1.4  T
   6   -526.3093720 -0.409016E-05  0.111E-03    1.30       5.4  T
   7   -526.3093722 -0.193690E-06  0.629E-04    1.30       9.5  T
   8   -526.3093723 -0.123728E-07  0.321E-04    1.30      18.7  T
     SCC iter.                  ...        0 min,  1.396 sec
     gradient                   ...        0 min,  0.097 sec
 * total energy  :  -519.5040721 Eh     change       -0.1992877E-02 Eh
   gradient norm :     0.0084178 Eh/α   predicted    -0.1988670E-02 (  -0.21%)
   displ. norm   :     0.9129580 α      lambda       -0.2059769E-02
   maximum displ.:     0.3843085 α      in ANC's #23, #25, #28, ...

........................................................................
.............................. CYCLE   31 ..............................
........................................................................
   1   -526.3184100 -0.526318E+03  0.125E-01    1.30       0.0  T
   2   -526.3184506 -0.406629E-04  0.653E-02    1.30       1.0  T
   3   -526.3184046  0.460263E-04  0.178E-02    1.30       1.0  T
   4   -526.3184517 -0.470519E-04  0.101E-02    1.30       1.0  T
   5   -526.3184647 -0.130355E-04  0.330E-03    1.30       1.8  T
   6   -526.3184671 -0.238340E-05  0.950E-04    1.30       6.3  T
   7   -526.3184672 -0.142366E-06  0.534E-04    1.30      11.2  T
     SCC iter.                  ...        0 min,  1.219 sec
     gradient                   ...        0 min,  0.097 sec
 * total energy  :  -519.5060107 Eh     change       -0.1938618E-02 Eh
   gradient norm :     0.0083532 Eh/α   predicted    -0.1888296E-02 (  -2.60%)
   displ. norm   :     0.9286094 α      lambda       -0.1965753E-02
   maximum displ.:     0.3911217 α      in ANC's #23, #25, #28, ...

........................................................................
.............................. CYCLE   32 ..............................
........................................................................
   1   -526.3207101 -0.526321E+03  0.123E-01    1.30       0.0  T
   2   -526.3207504 -0.403643E-04  0.649E-02    1.30       1.0  T
   3   -526.3206906  0.598362E-04  0.190E-02    1.30       1.0  T
   4   -526.3207544 -0.638039E-04  0.995E-03    1.30       1.0  T
   5   -526.3207660 -0.115618E-04  0.339E-03    1.30       1.8  T
   6   -526.3207682 -0.229091E-05  0.102E-03    1.30       5.9  T
   7   -526.3207684 -0.178847E-06  0.554E-04    1.30      10.8  T
     SCC iter.                  ...        0 min,  1.223 sec
     gradient                   ...        0 min,  0.097 sec
 * total energy  :  -519.5078770 Eh     change       -0.1866245E-02 Eh
   gradient norm :     0.0063024 Eh/α   predicted    -0.1830434E-02 (  -1.92%)
   displ. norm   :     0.9270934 α      lambda       -0.1906057E-02
   maximum displ.:     0.3963994 α      in ANC's #23, #25, #28, ...

........................................................................
.............................. CYCLE   33 ..............................
........................................................................
   1   -526.3255572 -0.526326E+03  0.122E-01    1.30       0.0  T
   2   -526.3255993 -0.420686E-04  0.643E-02    1.30       1.0  T
   3   -526.3255344  0.648984E-04  0.195E-02    1.30       1.0  T
   4   -526.3256051 -0.706996E-04  0.995E-03    1.30       1.0  T
   5   -526.3256159 -0.108441E-04  0.355E-03    1.30       1.7  T
   6   -526.3256184 -0.254308E-05  0.106E-03    1.30       5.6  T
   7   -526.3256186 -0.193890E-06  0.572E-04    1.30      10.5  T
     SCC iter.                  ...        0 min,  1.223 sec
     gradient                   ...        0 min,  0.096 sec
 * total energy  :  -519.5096606 Eh     change       -0.1783682E-02 Eh
   gradient norm :     0.0056837 Eh/α   predicted    -0.1772194E-02 (  -0.64%)
   displ. norm   :     0.9282650 α      lambda       -0.1757754E-02
   maximum displ.:     0.4011202 α      in ANC's #23, #25, #28, ...

........................................................................
.............................. CYCLE   34 ..............................
........................................................................
   1   -526.3285891 -0.526329E+03  0.117E-01    1.30       0.0  T
   2   -526.3286263 -0.372255E-04  0.623E-02    1.30       1.0  T
   3   -526.3285571  0.692330E-04  0.195E-02    1.30       1.0  T
   4   -526.3286331 -0.760117E-04  0.960E-03    1.30       1.0  T
   5   -526.3286428 -0.969255E-05  0.335E-03    1.30       1.8  T
   6   -526.3286449 -0.216697E-05  0.104E-03    1.30       5.8  T
   7   -526.3286451 -0.176407E-06  0.563E-04    1.30      10.7  T
     SCC iter.                  ...        0 min,  1.233 sec
     gradient                   ...        0 min,  0.097 sec
 * total energy  :  -519.5113121 Eh     change       -0.1651479E-02 Eh
   gradient norm :     0.0051093 Eh/α   predicted    -0.1636193E-02 (  -0.93%)
   displ. norm   :     0.9303233 α      lambda       -0.1612057E-02
   maximum displ.:     0.4059867 α      in ANC's #23, #25, #28, ...

........................................................................
.............................. CYCLE   35 ..............................
........................................................................
   1   -526.3280920 -0.526328E+03  0.115E-01    1.30       0.0  T
   2   -526.3281278 -0.357848E-04  0.611E-02    1.30       1.0  T
   3   -526.3280693  0.584318E-04  0.184E-02    1.30       1.0  T
   4   -526.3281326 -0.632218E-04  0.937E-03    1.30       1.0  T
   5   -526.3281424 -0.979998E-05  0.325E-03    1.30       1.8  T
   6   -526.3281445 -0.209018E-05  0.999E-04    1.30       6.0  T
   7   -526.3281446 -0.161433E-06  0.537E-04    1.30      11.2  T
     SCC iter.                  ...        0 min,  1.225 sec
     gradient                   ...        0 min,  0.097 sec
 * total energy  :  -519.5128325 Eh     change       -0.1520374E-02 Eh
   gradient norm :     0.0063222 Eh/α   predicted    -0.1503652E-02 (  -1.10%)
   displ. norm   :     0.9193029 α      lambda       -0.1536358E-02
   maximum displ.:     0.4091239 α      in ANC's #23, #25, #28, ...

........................................................................
.............................. CYCLE   36 ..............................
........................................................................
   1   -526.3377144 -0.526338E+03  0.109E-01    1.30       0.0  T
   2   -526.3377456 -0.312058E-04  0.574E-02    1.30       1.0  T
   3   -526.3376960  0.496685E-04  0.171E-02    1.30       1.0  T
   4   -526.3377498 -0.538549E-04  0.883E-03    1.30       1.0  T
   5   -526.3377587 -0.888842E-05  0.282E-03    1.30       2.1  T
   6   -526.3377603 -0.160977E-05  0.895E-04    1.30       6.7  T
   7   -526.3377604 -0.123168E-06  0.501E-04    1.30      12.0  T
     SCC iter.                  ...        0 min,  1.229 sec
     gradient                   ...        0 min,  0.096 sec
 * total energy  :  -519.5142282 Eh     change       -0.1395739E-02 Eh
   gradient norm :     0.0070076 Eh/α   predicted    -0.1417383E-02 (   1.55%)
   displ. norm   :     0.9194708 α      lambda       -0.1475838E-02
   maximum displ.:     0.4074409 α      in ANC's #23, #25, #28, ...

........................................................................
.............................. CYCLE   37 ..............................
........................................................................
   1   -526.3329268 -0.526333E+03  0.110E-01    1.30       0.0  T
   2   -526.3329590 -0.321604E-04  0.584E-02    1.29       1.0  T
   3   -526.3329166  0.423514E-04  0.166E-02    1.30       1.0  T
   4   -526.3329605 -0.438620E-04  0.907E-03    1.29       1.0  T
   5   -526.3329710 -0.105112E-04  0.296E-03    1.30       2.0  T
   6   -526.3329728 -0.178380E-05  0.911E-04    1.30       6.6  T
   7   -526.3329729 -0.126413E-06  0.509E-04    1.30      11.8  T
     SCC iter.                  ...        0 min,  1.228 sec
     gradient                   ...        0 min,  0.096 sec
 * total energy  :  -519.5155435 Eh     change       -0.1315248E-02 Eh
   gradient norm :     0.0071073 Eh/α   predicted    -0.1361783E-02 (   3.54%)
   displ. norm   :     0.8898067 α      lambda       -0.1330060E-02
   maximum displ.:     0.4010839 α      in ANC's #23, #25, #28, ...

........................................................................
.............................. CYCLE   38 ..............................
........................................................................
   1   -526.3352200 -0.526335E+03  0.999E-02    1.29       0.0  T
   2   -526.3352481 -0.280618E-04  0.531E-02    1.29       1.0  T
   3   -526.3352137  0.344205E-04  0.150E-02    1.29       1.0  T
   4   -526.3352500 -0.363383E-04  0.807E-03    1.29       1.0  T
   5   -526.3352581 -0.804842E-05  0.274E-03    1.29       2.2  T
   6   -526.3352595 -0.145639E-05  0.904E-04    1.29       6.6  T
   7   -526.3352597 -0.147250E-06  0.456E-04    1.29      13.2  T
     SCC iter.                  ...        0 min,  1.224 sec
     gradient                   ...        0 min,  0.097 sec
 * total energy  :  -519.5167612 Eh     change       -0.1217725E-02 Eh
   gradient norm :     0.0075665 Eh/α   predicted    -0.1191573E-02 (  -2.15%)
   displ. norm   :     0.8871725 α      lambda       -0.1342766E-02
   maximum displ.:     0.4023631 α      in ANC's #23, #25, #20, ...

........................................................................
.............................. CYCLE   39 ..............................
........................................................................
   1   -526.3438931 -0.526344E+03  0.986E-02    1.29       0.0  T
   2   -526.3439199 -0.268334E-04  0.522E-02    1.29       1.0  T
   3   -526.3438980  0.219355E-04  0.134E-02    1.29       1.0  T
   4   -526.3439195 -0.214870E-04  0.801E-03    1.29       1.0  T
   5   -526.3439285 -0.904528E-05  0.255E-03    1.29       2.4  T
   6   -526.3439300 -0.142790E-05  0.818E-04    1.29       7.3  T
   7   -526.3439301 -0.105716E-06  0.455E-04    1.29      13.2  T
     SCC iter.                  ...        0 min,  1.216 sec
     gradient                   ...        0 min,  0.096 sec
 * total energy  :  -519.5179253 Eh     change       -0.1164060E-02 Eh
   gradient norm :     0.0083774 Eh/α   predicted    -0.1199816E-02 (   3.07%)
   displ. norm   :     0.8751611 α      lambda       -0.1287292E-02
   maximum displ.:     0.3973363 α      in ANC's #23, #25, #20, ...

........................................................................
.............................. CYCLE   40 ..............................
........................................................................
   1   -526.3496411 -0.526350E+03  0.984E-02    1.29       0.0  T
   2   -526.3496689 -0.278150E-04  0.521E-02    1.29       1.0  T
   3   -526.3496410  0.279806E-04  0.144E-02    1.29       1.0  T
   4   -526.3496703 -0.293624E-04  0.813E-03    1.29       1.0  T
   5   -526.3496784 -0.807274E-05  0.252E-03    1.29       2.4  T
   6   -526.3496798 -0.138377E-05  0.882E-04    1.29       6.8  T
   7   -526.3496799 -0.136314E-06  0.476E-04    1.29      12.6  T
     SCC iter.                  ...        0 min,  1.231 sec
     gradient                   ...        0 min,  0.097 sec
 * total energy  :  -519.5190356 Eh     change       -0.1110347E-02 Eh
   gradient norm :     0.0074867 Eh/α   predicted    -0.1136625E-02 (   2.37%)
   displ. norm   :     0.8846207 α      lambda       -0.1206276E-02
   maximum displ.:     0.4006264 α      in ANC's #23, #25, #20, ...

........................................................................
.............................. CYCLE   41 ..............................
........................................................................
   1   -526.3455248 -0.526346E+03  0.977E-02    1.29       0.0  T
   2   -526.3455523 -0.275627E-04  0.523E-02    1.28       1.0  T
   3   -526.3455233  0.289731E-04  0.142E-02    1.29       1.0  T
   4   -526.3455531 -0.297730E-04  0.804E-03    1.28       1.0  T
   5   -526.3455617 -0.860545E-05  0.250E-03    1.28       2.4  T
   6   -526.3455630 -0.127557E-05  0.909E-04    1.28       6.6  T
   7   -526.3455631 -0.141325E-06  0.477E-04    1.28      12.6  T
     SCC iter.                  ...        0 min,  1.222 sec
     gradient                   ...        0 min,  0.097 sec
 * total energy  :  -519.5200589 Eh     change       -0.1023330E-02 Eh
   gradient norm :     0.0084999 Eh/α   predicted    -0.1075133E-02 (   5.06%)
   displ. norm   :     0.8572809 α      lambda       -0.1170376E-02
   maximum displ.:     0.3880713 α      in ANC's #23, #20, #25, ...

........................................................................
.............................. CYCLE   42 ..............................
........................................................................
   1   -526.3475655 -0.526348E+03  0.993E-02    1.28       0.0  T
   2   -526.3475952 -0.297617E-04  0.525E-02    1.28       1.0  T
   3   -526.3475763  0.189331E-04  0.135E-02    1.28       1.0  T
   4   -526.3475973 -0.209761E-04  0.776E-03    1.28       1.0  T
   5   -526.3476043 -0.701982E-05  0.239E-03    1.28       2.5  T
   6   -526.3476056 -0.133223E-05  0.876E-04    1.28       6.8  T
   7   -526.3476058 -0.140491E-06  0.446E-04    1.28      13.4  T
     SCC iter.                  ...        0 min,  1.244 sec
     gradient                   ...        0 min,  0.098 sec
 * total energy  :  -519.5209952 Eh     change       -0.9362609E-03 Eh
   gradient norm :     0.0104517 Eh/α   predicted    -0.1015269E-02 (   8.44%)
   displ. norm   :     0.8274433 α      lambda       -0.1111113E-02
   maximum displ.:     0.3728028 α      in ANC's #23, #20, #21, ...
 * RMSD in coord.:     1.0743826 α      energy gain  -0.3927219E-01 Eh

generating ANC from model Hessian ...
Using Lindh-Hessian (1995)
 Shifting diagonal of input Hessian by   4.996297943408509E-003
 Lowest  eigenvalues of input Hessian
   -0.000000    0.000000    0.000000    0.000000    0.000000    0.000000
    0.005000    0.005001    0.005003    0.005007    0.005008    0.005012
    0.005015    0.005030    0.005037    0.005048    0.005052    0.005055
 Highest eigenvalues
    2.202282    2.203133    2.203409    2.265339    2.266475    2.272181
 

........................................................................
.............................. CYCLE   43 ..............................
........................................................................
   1   -526.3512377 -0.526351E+03  0.985E-02    1.28       0.0  T
   2   -526.3512701 -0.324417E-04  0.515E-02    1.28       1.0  T
   3   -526.3512629  0.719477E-05  0.118E-02    1.28       1.0  T
   4   -526.3512716 -0.863000E-05  0.729E-03    1.28       1.0  T
   5   -526.3512779 -0.636440E-05  0.261E-03    1.28       2.3  T
   6   -526.3512797 -0.175941E-05  0.745E-04    1.28       8.1  T
   7   -526.3512798 -0.723327E-07  0.443E-04    1.28      13.5  T
   8   -526.3512798 -0.134428E-07  0.243E-04    1.28      24.7  T
     SCC iter.                  ...        0 min,  1.424 sec
     gradient                   ...        0 min,  0.101 sec
 * total energy  :  -519.5218767 Eh     change       -0.8815273E-03 Eh
   gradient norm :     0.0088773 Eh/α   predicted     0.0000000E+00 (-100.00%)
   displ. norm   :     0.2044259 α      lambda       -0.3877348E-03
   maximum displ.:     0.0862961 α      in ANC's #23, #19, #22, ...

........................................................................
.............................. CYCLE   44 ..............................
........................................................................
   1   -526.3516789 -0.526352E+03  0.309E-02    1.28       0.0  T
   2   -526.3516829 -0.403988E-05  0.160E-02    1.28       1.0  T
   3   -526.3516790  0.395855E-05  0.503E-03    1.28       1.2  T
   4   -526.3516835 -0.452414E-05  0.257E-03    1.28       2.3  T
   5   -526.3516841 -0.584837E-06  0.114E-03    1.28       5.3  T
   6   -526.3516844 -0.288043E-06  0.312E-04    1.28      19.2  T
     SCC iter.                  ...        0 min,  1.084 sec
     gradient                   ...        0 min,  0.097 sec
 * total energy  :  -519.5221931 Eh     change       -0.3163881E-03 Eh
   gradient norm :     0.0033565 Eh/α   predicted    -0.2020486E-03 ( -36.14%)
   displ. norm   :     0.1915268 α      lambda       -0.2494345E-03
   maximum displ.:     0.0760506 α      in ANC's #23, #19, #22, ...

........................................................................
.............................. CYCLE   45 ..............................
........................................................................
   1   -526.3517044 -0.526352E+03  0.294E-02    1.28       0.0  T
   2   -526.3517073 -0.288688E-05  0.156E-02    1.28       1.0  T
   3   -526.3517054  0.192016E-05  0.427E-03    1.28       1.4  T
   4   -526.3517077 -0.228610E-05  0.230E-03    1.28       2.6  T
   5   -526.3517081 -0.419040E-06  0.936E-04    1.28       6.4  T
   6   -526.3517083 -0.218264E-06  0.287E-04    1.28      20.9  T
     SCC iter.                  ...        0 min,  1.082 sec
     gradient                   ...        0 min,  0.099 sec
 * total energy  :  -519.5224154 Eh     change       -0.2222752E-03 Eh
   gradient norm :     0.0027607 Eh/α   predicted    -0.1292926E-03 ( -41.83%)
   displ. norm   :     0.5691777 α      lambda       -0.6152525E-03
   maximum displ.:     0.2207543 α      in ANC's #23, #19, #22, ...

........................................................................
.............................. CYCLE   46 ..............................
........................................................................
   1   -526.3505879 -0.526351E+03  0.843E-02    1.28       0.0  T
   2   -526.3506073 -0.193740E-04  0.445E-02    1.28       1.0  T
   3   -526.3505997  0.753615E-05  0.105E-02    1.28       1.0  T
   4   -526.3506077 -0.795029E-05  0.638E-03    1.28       1.0  T
   5   -526.3506126 -0.493936E-05  0.201E-03    1.28       3.0  T
   6   -526.3506137 -0.106344E-05  0.640E-04    1.28       9.4  T
   7   -526.3506137 -0.480070E-07  0.383E-04    1.28      15.7  T
   8   -526.3506138 -0.952002E-08  0.195E-04    1.28      30.8  T
     SCC iter.                  ...        0 min,  1.448 sec
     gradient                   ...        0 min,  0.100 sec
 * total energy  :  -519.5229341 Eh     change       -0.5187393E-03 Eh
   gradient norm :     0.0085820 Eh/α   predicted    -0.4073049E-03 ( -21.48%)
   displ. norm   :     0.6849595 α      lambda       -0.6267554E-03
   maximum displ.:     0.2678179 α      in ANC's #23, #19, #22, ...

........................................................................
.............................. CYCLE   47 ..............................
........................................................................
   1   -526.3488266 -0.526349E+03  0.954E-02    1.28       0.0  T
   2   -526.3488490 -0.223196E-04  0.504E-02    1.28       1.0  T
   3   -526.3488449  0.405530E-05  0.106E-02    1.28       1.0  T
   4   -526.3488449 -0.248119E-07  0.726E-03    1.28       1.0  T
   5   -526.3488552 -0.102247E-04  0.178E-03    1.28       3.4  T
   6   -526.3488560 -0.826363E-06  0.618E-04    1.28       9.7  T
   7   -526.3488560 -0.291370E-07  0.389E-04    1.28      15.4  T
     SCC iter.                  ...        0 min,  1.261 sec
     gradient                   ...        0 min,  0.097 sec
 * total energy  :  -519.5234967 Eh     change       -0.5625831E-03 Eh
   gradient norm :     0.0117075 Eh/α   predicted    -0.4604079E-03 ( -18.16%)
   displ. norm   :     0.7483621 α      lambda       -0.7204807E-03
   maximum displ.:     0.2956264 α      in ANC's #23, #19, #22, ...

........................................................................
.............................. CYCLE   48 ..............................
........................................................................
   1   -526.3482657 -0.526348E+03  0.101E-01    1.29       0.0  T
   2   -526.3482908 -0.250632E-04  0.530E-02    1.28       1.0  T
   3   -526.3482901  0.751232E-06  0.105E-02    1.29       1.0  T
   4   -526.3482815  0.856308E-05  0.780E-03    1.28       1.0  T
   5   -526.3482978 -0.162688E-04  0.142E-03    1.29       4.2  T
   6   -526.3482982 -0.441539E-06  0.595E-04    1.29      10.1  T
   7   -526.3482982 -0.235904E-07  0.363E-04    1.29      16.5  T
     SCC iter.                  ...        0 min,  1.268 sec
     gradient                   ...        0 min,  0.097 sec
 * total energy  :  -519.5241687 Eh     change       -0.6719332E-03 Eh
   gradient norm :     0.0106658 Eh/α   predicted    -0.5620016E-03 ( -16.36%)
   displ. norm   :     0.7850526 α      lambda       -0.8561723E-03
   maximum displ.:     0.3144307 α      in ANC's #23, #19, #22, ...

........................................................................
.............................. CYCLE   49 ..............................
........................................................................
   1   -526.3506757 -0.526351E+03  0.101E-01    1.29       0.0  T
   2   -526.3507030 -0.272763E-04  0.532E-02    1.29       1.0  T
   3   -526.3506968  0.620408E-05  0.115E-02    1.29       1.0  T
   4   -526.3506997 -0.295876E-05  0.777E-03    1.29       1.0  T
   5   -526.3507105 -0.107731E-04  0.205E-03    1.29       2.9  T
   6   -526.3507116 -0.108087E-05  0.707E-04    1.29       8.5  T
   7   -526.3507116 -0.606577E-07  0.399E-04    1.29      15.0  T
     SCC iter.                  ...        0 min,  1.254 sec
     gradient                   ...        0 min,  0.097 sec
 * total energy  :  -519.5249401 Eh     change       -0.7714217E-03 Eh
   gradient norm :     0.0057778 Eh/α   predicted    -0.6919209E-03 ( -10.31%)
   displ. norm   :     0.8338946 α      lambda       -0.7989644E-03
   maximum displ.:     0.3358843 α      in ANC's #23, #19, #22, ...

........................................................................
.............................. CYCLE   50 ..............................
........................................................................
   1   -526.3514282 -0.526351E+03  0.105E-01    1.29       0.0  T
   2   -526.3514580 -0.298156E-04  0.553E-02    1.29       1.0  T
   3   -526.3514499  0.816131E-05  0.125E-02    1.29       1.0  T
   4   -526.3514573 -0.742506E-05  0.805E-03    1.29       1.0  T
   5   -526.3514668 -0.950996E-05  0.214E-03    1.29       2.8  T
   6   -526.3514679 -0.114096E-05  0.768E-04    1.29       7.8  T
   7   -526.3514680 -0.680589E-07  0.440E-04    1.29      13.6  T
     SCC iter.                  ...        0 min,  1.263 sec
     gradient                   ...        0 min,  0.097 sec
 * total energy  :  -519.5256600 Eh     change       -0.7198889E-03 Eh
   gradient norm :     0.0055633 Eh/α   predicted    -0.6772751E-03 (  -5.92%)
   displ. norm   :     0.8538301 α      lambda       -0.7172778E-03
   maximum displ.:     0.3446830 α      in ANC's #23, #19, #22, ...

........................................................................
.............................. CYCLE   51 ..............................
........................................................................
   1   -526.3509624 -0.526351E+03  0.102E-01    1.29       0.0  T
   2   -526.3509891 -0.266779E-04  0.540E-02    1.29       1.0  T
   3   -526.3509823  0.674127E-05  0.118E-02    1.29       1.0  T
   4   -526.3509868 -0.450142E-05  0.790E-03    1.29       1.0  T
   5   -526.3509972 -0.103636E-04  0.188E-03    1.29       3.2  T
   6   -526.3509980 -0.864970E-06  0.720E-04    1.29       8.3  T
   7   -526.3509981 -0.540441E-07  0.422E-04    1.29      14.2  T
     SCC iter.                  ...        0 min,  1.256 sec
     gradient                   ...        0 min,  0.098 sec
 * total energy  :  -519.5263263 Eh     change       -0.6662964E-03 Eh
   gradient norm :     0.0071806 Eh/α   predicted    -0.6201010E-03 (  -6.93%)
   displ. norm   :     0.8563092 α      lambda       -0.7063262E-03
   maximum displ.:     0.3457027 α      in ANC's #23, #19, #22, ...

........................................................................
.............................. CYCLE   52 ..............................
........................................................................
   1   -526.3530812 -0.526353E+03  0.975E-02    1.29       0.0  T
   2   -526.3531061 -0.248859E-04  0.516E-02    1.29       1.0  T
   3   -526.3530971  0.904220E-05  0.115E-02    1.29       1.0  T
   4   -526.3531035 -0.641821E-05  0.773E-03    1.28       1.0  T
   5   -526.3531138 -0.102821E-04  0.190E-03    1.29       3.2  T
   6   -526.3531146 -0.859890E-06  0.711E-04    1.29       8.4  T
   7   -526.3531147 -0.633280E-07  0.405E-04    1.29      14.8  T
     SCC iter.                  ...        0 min,  1.266 sec
     gradient                   ...        0 min,  0.134 sec
 * total energy  :  -519.5269875 Eh     change       -0.6612487E-03 Eh
   gradient norm :     0.0066919 Eh/α   predicted    -0.6121270E-03 (  -7.43%)
   displ. norm   :     0.8691038 α      lambda       -0.6980353E-03
   maximum displ.:     0.3493396 α      in ANC's #23, #19, #22, ...

........................................................................
.............................. CYCLE   53 ..............................
........................................................................
   1   -526.3541912 -0.526354E+03  0.951E-02    1.28       0.0  T
   2   -526.3542153 -0.241839E-04  0.504E-02    1.28       1.0  T
   3   -526.3542069  0.848322E-05  0.111E-02    1.29       1.0  T
   4   -526.3542120 -0.510479E-05  0.762E-03    1.28       1.0  T
   5   -526.3542225 -0.105537E-04  0.185E-03    1.28       3.2  T
   6   -526.3542233 -0.787854E-06  0.687E-04    1.28       8.7  T
   7   -526.3542234 -0.611630E-07  0.394E-04    1.28      15.2  T
     SCC iter.                  ...        0 min,  2.092 sec
     gradient                   ...        0 min,  0.112 sec
 * total energy  :  -519.5276382 Eh     change       -0.6507387E-03 Eh
   gradient norm :     0.0049150 Eh/α   predicted    -0.6126535E-03 (  -5.85%)
   displ. norm   :     0.8818477 α      lambda       -0.6710016E-03
   maximum displ.:     0.3510604 α      in ANC's #23, #19, #22, ...

........................................................................
.............................. CYCLE   54 ..............................
........................................................................
   1   -526.3571983 -0.526357E+03  0.931E-02    1.28       0.0  T
   2   -526.3572215 -0.232293E-04  0.493E-02    1.28       1.0  T
   3   -526.3572114  0.100947E-04  0.112E-02    1.28       1.0  T
   4   -526.3572193 -0.787514E-05  0.745E-03    1.28       1.0  T
   5   -526.3572287 -0.947751E-05  0.179E-03    1.28       3.3  T
   6   -526.3572295 -0.721913E-06  0.669E-04    1.28       9.0  T
   7   -526.3572295 -0.516334E-07  0.394E-04    1.28      15.2  T
     SCC iter.                  ...        0 min,  1.242 sec
     gradient                   ...        0 min,  0.097 sec
 * total energy  :  -519.5282629 Eh     change       -0.6246476E-03 Eh
   gradient norm :     0.0041324 Eh/α   predicted    -0.5964064E-03 (  -4.52%)
   displ. norm   :     0.9075205 α      lambda       -0.6288161E-03
   maximum displ.:     0.3600137 α      in ANC's #23, #19, #22, ...

........................................................................
.............................. CYCLE   55 ..............................
........................................................................
   1   -526.3542336 -0.526354E+03  0.945E-02    1.28       0.0  T
   2   -526.3542568 -0.231472E-04  0.502E-02    1.28       1.0  T
   3   -526.3542541  0.267425E-05  0.104E-02    1.28       1.0  T
   4   -526.3542541 -0.671814E-07  0.723E-03    1.28       1.0  T
   5   -526.3542635 -0.937789E-05  0.164E-03    1.28       3.7  T
   6   -526.3542642 -0.659953E-06  0.626E-04    1.28       9.6  T
   7   -526.3542642 -0.247163E-07  0.391E-04    1.28      15.3  T
     SCC iter.                  ...        0 min,  1.236 sec
     gradient                   ...        0 min,  0.097 sec
 * total energy  :  -519.5288502 Eh     change       -0.5872935E-03 Eh
   gradient norm :     0.0040739 Eh/α   predicted    -0.5733670E-03 (  -2.37%)
   displ. norm   :     0.8829030 α      lambda       -0.6107012E-03
   maximum displ.:     0.3512460 α      in ANC's #19, #23, #22, ...

........................................................................
.............................. CYCLE   56 ..............................
........................................................................
   1   -526.3610090 -0.526361E+03  0.891E-02    1.28       0.0  T
   2   -526.3610302 -0.211674E-04  0.473E-02    1.28       1.0  T
   3   -526.3610190  0.111909E-04  0.111E-02    1.28       1.0  T
   4   -526.3610292 -0.102266E-04  0.702E-03    1.28       1.0  T
   5   -526.3610370 -0.782889E-05  0.174E-03    1.28       3.4  T
   6   -526.3610378 -0.703820E-06  0.637E-04    1.28       9.4  T
   7   -526.3610378 -0.366065E-07  0.390E-04    1.28      15.4  T
     SCC iter.                  ...        0 min,  1.240 sec
     gradient                   ...        0 min,  0.097 sec
 * total energy  :  -519.5293956 Eh     change       -0.5454194E-03 Eh
   gradient norm :     0.0044083 Eh/α   predicted    -0.5433780E-03 (  -0.37%)
   displ. norm   :     0.9125513 α      lambda       -0.5616467E-03
   maximum displ.:     0.3632932 α      in ANC's #19, #23, #22, ...

........................................................................
.............................. CYCLE   57 ..............................
........................................................................
   1   -526.3548058 -0.526355E+03  0.901E-02    1.28       0.0  T
   2   -526.3548269 -0.210794E-04  0.479E-02    1.27       1.0  T
   3   -526.3548273 -0.454489E-06  0.934E-03    1.28       1.0  T
   4   -526.3548256  0.177786E-05  0.636E-03    1.27       1.0  T
   5   -526.3548329 -0.733643E-05  0.135E-03    1.28       4.4  T
   6   -526.3548333 -0.392474E-06  0.549E-04    1.28      10.9  T
   7   -526.3548333 -0.130573E-07  0.338E-04    1.28      17.7  T
     SCC iter.                  ...        0 min,  1.227 sec
     gradient                   ...        0 min,  0.097 sec
 * total energy  :  -519.5299100 Eh     change       -0.5143869E-03 Eh
   gradient norm :     0.0042221 Eh/α   predicted    -0.5146945E-03 (   0.06%)
   displ. norm   :     0.8703277 α      lambda       -0.5160875E-03
   maximum displ.:     0.3540827 α      in ANC's #19, #23, #22, ...

........................................................................
.............................. CYCLE   58 ..............................
........................................................................
   1   -526.3552124 -0.526355E+03  0.826E-02    1.28       0.0  T
   2   -526.3552299 -0.175454E-04  0.439E-02    1.27       1.0  T
   3   -526.3552296  0.336103E-06  0.860E-03    1.28       1.0  T
   4   -526.3552278  0.179828E-05  0.601E-03    1.27       1.0  T
   5   -526.3552349 -0.711641E-05  0.124E-03    1.27       4.9  T
   6   -526.3552352 -0.335424E-06  0.534E-04    1.27      11.2  T
   7   -526.3552353 -0.221610E-07  0.330E-04    1.27      18.2  T
     SCC iter.                  ...        0 min,  1.232 sec
     gradient                   ...        0 min,  0.097 sec
 * total energy  :  -519.5303913 Eh     change       -0.4812536E-03 Eh
   gradient norm :     0.0043545 Eh/α   predicted    -0.4535078E-03 (  -5.77%)
   displ. norm   :     0.8702387 α      lambda       -0.5095497E-03
   maximum displ.:     0.3579786 α      in ANC's #19, #23, #22, ...

........................................................................
.............................. CYCLE   59 ..............................
........................................................................
   1   -526.3569429 -0.526357E+03  0.804E-02    1.28       0.0  T
   2   -526.3569595 -0.166081E-04  0.428E-02    1.27       1.0  T
   3   -526.3569569  0.261772E-05  0.869E-03    1.28       1.0  T
   4   -526.3569569  0.328583E-07  0.602E-03    1.27       1.0  T
   5   -526.3569643 -0.738202E-05  0.133E-03    1.27       4.5  T
   6   -526.3569647 -0.416789E-06  0.536E-04    1.27      11.2  T
   7   -526.3569647 -0.262951E-07  0.323E-04    1.27      18.6  T
     SCC iter.                  ...        0 min,  1.221 sec
     gradient                   ...        0 min,  0.097 sec
 * total energy  :  -519.5308646 Eh     change       -0.4733108E-03 Eh
   gradient norm :     0.0039104 Eh/α   predicted    -0.4477215E-03 (  -5.41%)
   displ. norm   :     0.8712216 α      lambda       -0.4929739E-03
   maximum displ.:     0.3615365 α      in ANC's #19, #23, #13, ...

........................................................................
.............................. CYCLE   60 ..............................
........................................................................
   1   -526.3592778 -0.526359E+03  0.812E-02    1.28       0.0  T
   2   -526.3592947 -0.168902E-04  0.432E-02    1.28       1.0  T
   3   -526.3592947  0.471922E-07  0.840E-03    1.28       1.0  T
[...]
     4   6 C      5   6 C                                 1.4039013
     1   6 C      6   6 C                                 1.3869136
     5   6 C      6   6 C                                 1.4176642
     2   6 C      7   6 C                                 1.4271293
     7   6 C      8   6 C                                 1.3481101
     3   6 C      9  16 S                                 1.7446059
     8   6 C      9  16 S                                 1.7305535
     5   6 C     10   6 C                                 1.4157965
    10   6 C     11   6 C                                 1.3640950
     6   6 C     12  16 S                                 1.7457705
    11   6 C     12  16 S                                 1.7549387
    11   6 C     15   6 C                                 1.4230663
    15   6 C     16   6 C                                 1.3801529
    16   6 C     17   6 C                                 1.3879570
    17   6 C     18   6 C                                 1.3888695
    15   6 C     19  16 S                                 1.7354298
    18   6 C     19  16 S                                 1.7398054
    18   6 C     20   6 C                                 1.4178536
    20   6 C     21  16 S                                 1.7469772
    21  16 S     22   6 C                                 1.7474346
    22   6 C     23   6 C                                 1.3906181
    20   6 C     24   6 C                                 1.3907720
    23   6 C     24   6 C                                 1.4302639
    26   6 C     27   6 C                                 1.4311554
    26   6 C     29   6 C                                 1.3739214
    29   6 C     30  16 S                                 1.7299392
    27   6 C     31   6 C                                 1.3738640
    30  16 S     31   6 C                                 1.7294026
    22   6 C     32   6 C                                 1.4181117
    32   6 C     33   6 C                                 1.3890721
    33   6 C     34   6 C                                 1.3877463
    32   6 C     35  16 S                                 1.7396447
    25   6 C     36   8 O                                 1.2291360
    28   6 C     37   8 O                                 1.2294899
    29   6 C     38   6 C                                 1.4850286
    38   6 C     39   6 C                                 1.5319200
    31   6 C     40   6 C                                 1.4861809
    40   6 C     41   6 C                                 1.5318454
    34   6 C     42   6 C                                 1.3803586
    35  16 S     42   6 C                                 1.7366169
    14   6 C     43   6 C                                 1.3930327
    43   6 C     44   6 C                                 1.3752009
    44   6 C     45   6 C                                 1.4051593
    45   6 C     46   6 C                                 1.3964202
    14   6 C     47   6 C                                 1.3888843
    46   6 C     47   6 C                                 1.3816700
    13   6 C     48   6 C                                 1.3935680
    48   6 C     49   6 C                                 1.3747674
    49   6 C     50   6 C                                 1.4054269
    50   6 C     51   6 C                                 1.3966074
    13   6 C     52   6 C                                 1.3875276
    51   6 C     52   6 C                                 1.3824113
    45   6 C     53   8 O                                 1.3465481
    53   8 O     54   6 C                                 1.4201996
    50   6 C     55   8 O                                 1.3457353
    55   8 O     56   6 C                                 1.4206079
    56   6 C     57   6 C                                 1.5192755
    54   6 C     58   6 C                                 1.5192674
    63   6 C     64   6 C                                 1.4042590
    64   6 C     65   6 C                                 1.4182019
    65   6 C     66   6 C                                 1.3871632
    66   6 C     67   6 C                                 1.4061258
    63   6 C     68   6 C                                 1.3849678
    67   6 C     68   6 C                                 1.4184642
    64   6 C     69   6 C                                 1.4141502
    42   6 C     70   6 C                                 1.4226832
    69   6 C     70   6 C                                 1.3650158
    65   6 C     71  16 S                                 1.7462209
    70   6 C     71  16 S                                 1.7552738 (max)
    67   6 C     72   6 C                                 1.4186746
    72   6 C     73   6 C                                 1.3641998
    68   6 C     74  16 S                                 1.7420248
    73   6 C     74  16 S                                 1.7547778
    73   6 C     77   6 C                                 1.4242338
    77   6 C     78   6 C                                 1.3766730
    78   6 C     79   6 C                                 1.3944837
    79   6 C     80   6 C                                 1.3745606
    77   6 C     81  16 S                                 1.7368532
    80   6 C     81  16 S                                 1.7440847
    80   6 C     82   6 C                                 1.4294684
    82   6 C     83  16 S                                 1.7390974
    83  16 S     84   6 C                                 1.7464126
    84   6 C     85   6 C                                 1.3935351
    82   6 C     86   6 C                                 1.3823261
    85   6 C     86   6 C                                 1.4302575
    88   6 C     89   6 C                                 1.4297561
    88   6 C     91   6 C                                 1.3736489
    91   6 C     92  16 S                                 1.7308599
    89   6 C     93   6 C                                 1.3740985
    92  16 S     93   6 C                                 1.7292541
    84   6 C     94   6 C                                 1.4191614
    94   6 C     95   6 C                                 1.3888199
    95   6 C     96   6 C                                 1.3895614
    94   6 C     97  16 S                                 1.7376145
    87   6 C     98   8 O                                 1.2286860
    90   6 C     99   8 O                                 1.2217164
    91   6 C    100   6 C                                 1.4861701
   100   6 C    101   6 C                                 1.5319166
    93   6 C    102   6 C                                 1.4847514
   102   6 C    103   6 C                                 1.5213043
    96   6 C    104   6 C                                 1.3795868
    97  16 S    104   6 C                                 1.7366349
    76   6 C    105   6 C                                 1.3932610
   105   6 C    106   6 C                                 1.3747380
   106   6 C    107   6 C                                 1.4055629
   107   6 C    108   6 C                                 1.3966740
    76   6 C    109   6 C                                 1.3882881
   108   6 C    109   6 C                                 1.3824210
    75   6 C    110   6 C                                 1.3939162
   110   6 C    111   6 C                                 1.3743404
   111   6 C    112   6 C                                 1.4050629
   112   6 C    113   6 C                                 1.3962907
    75   6 C    114   6 C                                 1.3877740
   113   6 C    114   6 C                                 1.3824359
   107   6 C    115   8 O                                 1.3454609
   115   8 O    116   6 C                                 1.4206795
   112   6 C    117   8 O                                 1.3464227
   117   8 O    118   6 C                                 1.4205792
   118   6 C    119   6 C                                 1.5193622
   116   6 C    120   6 C                                 1.5192811
   125   6 C    126   6 C                                 1.4059698
   126   6 C    127   6 C                                 1.4183123
   127   6 C    128   6 C                                 1.3852928
   128   6 C    129   6 C                                 1.4075815
   125   6 C    130   6 C                                 1.3834238
   129   6 C    130   6 C                                 1.4185927
   126   6 C    131   6 C                                 1.4120541
   104   6 C    132   6 C                                 1.4227166
   131   6 C    132   6 C                                 1.3650163
   127   6 C    133  16 S                                 1.7482424
   132   6 C    133  16 S                                 1.7552039
   129   6 C    134   6 C                                 1.4130236
   134   6 C    135   6 C                                 1.3651728
   130   6 C    136  16 S                                 1.7462216
   135   6 C    136  16 S                                 1.7542309
   135   6 C    139   6 C                                 1.4218008
   139   6 C    140   6 C                                 1.3796636
   140   6 C    141   6 C                                 1.3887629
   141   6 C    142   6 C                                 1.3886426
   139   6 C    143  16 S                                 1.7363974
   142   6 C    143  16 S                                 1.7376134
   142   6 C    144   6 C                                 1.4182573
   144   6 C    145  16 S                                 1.7452771
   145  16 S    146   6 C                                 1.7475402
   146   6 C    147   6 C                                 1.3884095
   144   6 C    148   6 C                                 1.3898931
   147   6 C    148   6 C                                 1.4316941
   150   6 C    151   6 C                                 1.4312734
   150   6 C    153   6 C                                 1.3730041
   153   6 C    154  16 S                                 1.7306968
   151   6 C    155   6 C                                 1.3739962
   154  16 S    155   6 C                                 1.7303933
   146   6 C    156   6 C                                 1.4214149
   156   6 C    157   6 C                                 1.3842719
   157   6 C    158   6 C                                 1.3957976
   156   6 C    159  16 S                                 1.7427873
   149   6 C    160   8 O                                 1.2274333
   152   6 C    161   8 O                                 1.2293226
   153   6 C    162   6 C                                 1.4859332
   162   6 C    163   6 C                                 1.5316013
   155   6 C    164   6 C                                 1.4858010
   164   6 C    165   6 C                                 1.5314866
   158   6 C    166   6 C                                 1.3650909
   159  16 S    166   6 C                                 1.7105137
   138   6 C    167   6 C                                 1.3949601
   167   6 C    168   6 C                                 1.3737479
   168   6 C    169   6 C                                 1.4050137
   169   6 C    170   6 C                                 1.3961088
   138   6 C    171   6 C                                 1.3875056
   170   6 C    171   6 C                                 1.3830097
   137   6 C    172   6 C                                 1.3942074
   172   6 C    173   6 C                                 1.3736922
   173   6 C    174   6 C                                 1.4049854
   174   6 C    175   6 C                                 1.3960066
   137   6 C    176   6 C                                 1.3870284
   175   6 C    176   6 C                                 1.3831598
   169   6 C    177   8 O                                 1.3478489
   177   8 O    178   6 C                                 1.4204855
   174   6 C    179   8 O                                 1.3484120
   179   8 O    180   6 C                                 1.4205684
   180   6 C    181   6 C                                 1.5194585
   178   6 C    182   6 C                                 1.5194240
     7   6 C    187   1 H                                 1.0746099
     8   6 C    188   1 H                                 1.0724876 (min)
    10   6 C    189   1 H                                 1.0747631
    16   6 C    190   1 H                                 1.0759630
    17   6 C    191   1 H                                 1.0764074
    33   6 C    192   1 H                                 1.0763914
    34   6 C    193   1 H                                 1.0759897
    38   6 C    194   1 H                                 1.0915259
    38   6 C    195   1 H                                 1.0913003
    39   6 C    196   1 H                                 1.0880917
    39   6 C    197   1 H                                 1.0854060
    39   6 C    198   1 H                                 1.0866725
    40   6 C    199   1 H                                 1.0920339
    40   6 C    200   1 H                                 1.0917662
    41   6 C    201   1 H                                 1.0879387
    41   6 C    202   1 H                                 1.0858902
    41   6 C    203   1 H                                 1.0864922
    43   6 C    204   1 H                                 1.0778552
    47   6 C    205   1 H                                 1.0784239
    48   6 C    206   1 H                                 1.0782936
    52   6 C    207   1 H                                 1.0782003
    54   6 C    208   1 H                                 1.0965254
    54   6 C    209   1 H                                 1.0968474
    56   6 C    210   1 H                                 1.0964772
    56   6 C    211   1 H                                 1.0963695
    57   6 C    212   1 H                                 1.0864652
    57   6 C    213   1 H                                 1.0859043
    57   6 C    214   1 H                                 1.0864616
    58   6 C    215   1 H                                 1.0862329
    58   6 C    216   1 H                                 1.0859925
    58   6 C    217   1 H                                 1.0864585
    69   6 C    218   1 H                                 1.0748033
    72   6 C    219   1 H                                 1.0751952
    78   6 C    220   1 H                                 1.0755500
    79   6 C    221   1 H                                 1.0732084
    95   6 C    222   1 H                                 1.0766147
    96   6 C    223   1 H                                 1.0760216
   100   6 C    224   1 H                                 1.0925064
   100   6 C    225   1 H                                 1.0911922
   101   6 C    226   1 H                                 1.0881805
   101   6 C    227   1 H                                 1.0857208
   101   6 C    228   1 H                                 1.0864633
   102   6 C    229   1 H                                 1.0947737
   102   6 C    230   1 H                                 1.0946265
   103   6 C    231   1 H                                 1.0882068
   103   6 C    232   1 H                                 1.0866572
   103   6 C    233   1 H                                 1.0881329
   105   6 C    234   1 H                                 1.0778790
   109   6 C    235   1 H                                 1.0785575
   110   6 C    236   1 H                                 1.0780475
   114   6 C    237   1 H                                 1.0782718
   116   6 C    238   1 H                                 1.0964315
   116   6 C    239   1 H                                 1.0964341
   118   6 C    240   1 H                                 1.0964703
   118   6 C    241   1 H                                 1.0963054
   119   6 C    242   1 H                                 1.0865064
   119   6 C    243   1 H                                 1.0859074
   119   6 C    244   1 H                                 1.0865002
   120   6 C    245   1 H                                 1.0864194
   120   6 C    246   1 H                                 1.0859369
   120   6 C    247   1 H                                 1.0864441
   131   6 C    248   1 H                                 1.0747243
   134   6 C    249   1 H                                 1.0745743
   140   6 C    250   1 H                                 1.0759792
   141   6 C    251   1 H                                 1.0764284
   157   6 C    252   1 H                                 1.0762265
   158   6 C    253   1 H                                 1.0754607
   162   6 C    254   1 H                                 1.0917544
   162   6 C    255   1 H                                 1.0915462
   163   6 C    256   1 H                                 1.0880871
   163   6 C    257   1 H                                 1.0863500
   163   6 C    258   1 H                                 1.0865639
   164   6 C    259   1 H                                 1.0915365
   164   6 C    260   1 H                                 1.0914491
   165   6 C    261   1 H                                 1.0885514
   165   6 C    262   1 H                                 1.0862576
   165   6 C    263   1 H                                 1.0868347
   166   6 C    264   1 H                                 1.0725518
   167   6 C    265   1 H                                 1.0780156
   171   6 C    266   1 H                                 1.0782392
   172   6 C    267   1 H                                 1.0780744
   176   6 C    268   1 H                                 1.0782493
   178   6 C    269   1 H                                 1.0962469
   178   6 C    270   1 H                                 1.0963956
   180   6 C    271   1 H                                 1.0965713
   180   6 C    272   1 H                                 1.0961931
   181   6 C    273   1 H                                 1.0864967
   181   6 C    274   1 H                                 1.0857033
   181   6 C    275   1 H                                 1.0862798
   182   6 C    276   1 H                                 1.0863606
   182   6 C    277   1 H                                 1.0857139
   182   6 C    278   1 H                                 1.0865779

 * 4 distinct bonds (by element types)

   Z      Z             #   av. dist./Å        max./Å        min./Å
   1 H    6 C          92     1.0850456     1.0968474     1.0724876
   6 C    6 C         131     1.4114362     1.5319200     1.3481101
   6 C    8 O          18     1.3316296     1.4206795     1.2217164
   6 C   16 S          36     1.7407040     1.7552738     1.7105137


optimized geometry written to: xtbopt.xyz


           -------------------------------------------------
          | TOTAL ENERGY             -519.545160646594 Eh   |
          | GRADIENT NORM               0.000988597901 Eh/α |
          | HOMO-LUMO GAP               1.229023707675 eV   |
           -------------------------------------------------

------------------------------------------------------------------------
 * finished run on 2021/11/17 at 21:14:47.521     
------------------------------------------------------------------------
 total:
 * wall-time:     0 d,  0 h,  5 min, 47.521 sec
 *  cpu-time:     0 d,  1 h,  9 min, 19.125 sec
 * ratio c/w:    11.968 speedup
 SCF:
 * wall-time:     0 d,  0 h,  0 min,  3.103 sec
 *  cpu-time:     0 d,  0 h,  0 min, 34.367 sec
 * ratio c/w:    11.075 speedup
 ANC optimizer:
 * wall-time:     0 d,  0 h,  5 min, 44.108 sec
 *  cpu-time:     0 d,  1 h,  8 min, 42.002 sec
 * ratio c/w:    11.979 speedup

