      -----------------------------------------------------------      
     |                   =====================                   |     
     |                           x T B                           |     
     |                   =====================                   |     
     |                         S. Grimme                         |     
     |          Mulliken Center for Theoretical Chemistry        |     
     |                    University of Bonn                     |     
      -----------------------------------------------------------      

   * xtb version 6.4.1 (unknown) compiled by 'oda6@login1.crc.pitt.edu' on 2021-06-25

   xtb is free software: you can redistribute it and/or modify it under
   the terms of the GNU Lesser General Public License as published by
   the Free Software Foundation, either version 3 of the License, or
   (at your option) any later version.
   
   xtb is distributed in the hope that it will be useful,
   but WITHOUT ANY WARRANTY; without even the implied warranty of
   MERCHANTABILITY or FITNESS FOR A PARTICULAR PURPOSE.  See the
   GNU Lesser General Public License for more details.
   
   Cite this work as:
   * C. Bannwarth, E. Caldeweyher, S. Ehlert, A. Hansen, P. Pracht,
     J. Seibert, S. Spicher, S. Grimme, WIREs Comput. Mol. Sci., 2020, 11,
     e01493. DOI: 10.1002/wcms.1493
   
   for GFN2-xTB:
   * C. Bannwarth, S. Ehlert and S. Grimme., J. Chem. Theory Comput., 2019,
     15, 1652-1671. DOI: 10.1021/acs.jctc.8b01176
   for GFN1-xTB:
   * S. Grimme, C. Bannwarth, P. Shushkov, J. Chem. Theory Comput., 2017,
     13, 1989-2009. DOI: 10.1021/acs.jctc.7b00118
   for GFN0-xTB:
   * P. Pracht, E. Caldeweyher, S. Ehlert, S. Grimme, ChemRxiv, 2019, preprint.
     DOI: 10.26434/chemrxiv.8326202.v1
   for GFN-FF:
   * S. Spicher and S. Grimme, Angew. Chem. Int. Ed., 2020, 59, 15665-15673.
     DOI: 10.1002/anie.202004239
   
   for DFT-D4:
   * E. Caldeweyher, C. Bannwarth and S. Grimme, J. Chem. Phys., 2017,
     147, 034112. DOI: 10.1063/1.4993215
   * E. Caldeweyher, S. Ehlert, A. Hansen, H. Neugebauer, S. Spicher,
     C. Bannwarth and S. Grimme, J. Chem. Phys., 2019, 150, 154122.
     DOI: 10.1063/1.5090222
   * E. Caldeweyher, J.-M. Mewes, S. Ehlert and S. Grimme, Phys. Chem. Chem. Phys.
     2020, 22, 8499-8512. DOI: 10.1039/D0CP00502A
   
   for sTDA-xTB:
   * S. Grimme and C. Bannwarth, J. Chem. Phys., 2016, 145, 054103.
     DOI: 10.1063/1.4959605
   
   in the mass-spec context:
   * V. Asgeirsson, C. Bauer and S. Grimme, Chem. Sci., 2017, 8, 4879.
     DOI: 10.1039/c7sc00601b
   * J. Koopman and S. Grimme, ACS Omega 2019, 4, 12, 15120-15133.
     DOI: 10.1021/acsomega.9b02011
   
   for metadynamics refer to:
   * S. Grimme, J. Chem. Theory Comput., 2019, 155, 2847-2862
     DOI: 10.1021/acs.jctc.9b00143
   
   for SPH calculations refer to:
   * S. Spicher and S. Grimme, J. Chem. Theory Comput., 2021, 17, 1701-1714
     DOI: 10.1021/acs.jctc.0c01306
   
   with help from (in alphabetical order)
   P. Atkinson, C. Bannwarth, F. Bohle, G. Brandenburg, E. Caldeweyher
   M. Checinski, S. Dohm, S. Ehlert, S. Ehrlich, I. Gerasimov, J. Koopman
   C. Lavigne, S. Lehtola, F. März, M. Müller, F. Musil, H. Neugebauer
   J. Pisarek, C. Plett, P. Pracht, J. Seibert, P. Shushkov, S. Spicher
   M. Stahn, M. Steiner, T. Strunk, J. Stückrath, T. Rose, and J. Unsleber
   
 * started run on 2022/02/09 at 09:04:17.114     

           -------------------------------------------------
          |                Calculation Setup                |
           -------------------------------------------------

          program call               : /ihome/ghutchison/oda6/xtb/xtb-641/bin/xtb ../../FF_optimized/23_115_130_130_23.mol -opt
          hostname                   : smp-n26
          coordinate file            : ../../FF_optimized/23_115_130_130_23.mol
          omp threads                :                     8
          number of atoms            :                   209
          number of electrons        :                   658
          charge                     :                     0
          spin                       :                   0.0
          first test random number   :      0.83269789525276

   ID    Z sym.   atoms
    1    6 C      1-3, 5, 7, 9-13, 15, 17-22, 24-32, 34, 35, 37-40, 42-48,
                  50-53, 55, 56, 58-61, 63-69, 71-74, 76, 77, 79-82, 84-90,
                  92-95, 97, 98, 100-103, 105-111, 113-116, 118-120, 122,
                  124, 126-130, 132
    2    8 O      4, 121
    3   16 S      6, 23, 33, 41, 49, 54, 62, 70, 75, 83, 91, 96, 104, 112,
                  117, 123
    4   35 Br     8, 125
    5    7 N      14, 16, 36, 57, 78, 99, 131, 133
    6    1 H      134-209
########################################################################
[WARNING] Please study the warnings concerning your input carefully
-1- prog_main_parseArguments: the use of '-opt' is discouraged, please use '--opt' next time
########################################################################

           -------------------------------------------------
          |                 G F N 2 - x T B                 |
           -------------------------------------------------

        Reference                      10.1021/acs.jctc.8b01176
      * Hamiltonian:
        H0-scaling (s, p, d)           1.850000    2.230000    2.230000
        zeta-weighting                 0.500000
      * Dispersion:
        s8                             2.700000
        a1                             0.520000
        a2                             5.000000
        s9                             5.000000
      * Repulsion:
        kExp                           1.500000    1.000000
        rExp                           1.000000
      * Coulomb:
        alpha                          2.000000
        third order                    shell-resolved
        anisotropic                    true
        a3                             3.000000
        a5                             4.000000
        cn-shift                       1.200000
        cn-exp                         4.000000
        max-rad                        5.000000


          ...................................................
          :                      SETUP                      :
          :.................................................:
          :  # basis functions                 716          :
          :  # atomic orbitals                 698          :
          :  # shells                          360          :
          :  # electrons                       658          :
          :  max. iterations                   250          :
          :  Hamiltonian                  GFN2-xTB          :
          :  restarted?                      false          :
          :  GBSA solvation                  false          :
          :  PC potential                    false          :
          :  electronic temp.          300.0000000     K    :
          :  accuracy                    1.0000000          :
          :  -> integral cutoff          0.2500000E+02      :
          :  -> integral neglect         0.1000000E-07      :
          :  -> SCF convergence          0.1000000E-05 Eh   :
          :  -> wf. convergence          0.1000000E-03 e    :
          :  Broyden damping             0.4000000          :
          ...................................................

 iter      E             dE          RMSdq      gap      omega  full diag
   1   -359.6123017 -0.359612E+03  0.490E+00    1.26       0.0  T
   2   -359.8262850 -0.213983E+00  0.299E+00    1.45       1.0  T
   3   -359.2591149  0.567170E+00  0.203E+00    0.10       1.0  T
   4   -359.9437541 -0.684639E+00  0.717E-01    0.54       1.0  T
   5   -360.0223724 -0.786183E-01  0.301E-01    0.38       1.0  T
   6   -360.0278401 -0.546771E-02  0.172E-01    0.46       1.0  T
   7   -360.0301084 -0.226826E-02  0.829E-02    0.24       1.0  T
   8   -360.0310245 -0.916079E-03  0.397E-02    0.28       1.0  T
   9   -360.0311427 -0.118233E-03  0.266E-02    0.28       1.0  T
  10   -360.0311985 -0.557636E-04  0.156E-02    0.29       1.0  T
  11   -360.0312106 -0.121900E-04  0.101E-02    0.29       1.0  T
  12   -360.0312132 -0.259517E-05  0.703E-03    0.29       1.0  T
  13   -360.0312159 -0.270339E-05  0.471E-03    0.28       1.5  T
  14   -360.0312164 -0.498104E-06  0.306E-03    0.29       2.3  T
  15   -360.0312173 -0.818354E-06  0.152E-03    0.29       4.6  T
  16   -360.0312174 -0.157245E-06  0.869E-04    0.29       8.0  T
  17   -360.0312174 -0.200156E-07  0.560E-04    0.29      12.3  T

   *** convergence criteria satisfied after 17 iterations ***

         #    Occupation            Energy/Eh            Energy/eV
      -------------------------------------------------------------
         1        2.0000           -0.8672602             -23.5994
       ...           ...                  ...                  ...
       323        2.0000           -0.3675538             -10.0016
       324        2.0000           -0.3659401              -9.9577
       325        2.0000           -0.3626600              -9.8685
       326        1.9999           -0.3603141              -9.8046
       327        1.9999           -0.3600470              -9.7974
       328        1.9995           -0.3581006              -9.7444
       329        1.9923           -0.3555811              -9.6759 (HOMO)
       330        0.0083           -0.3450880              -9.3903 (LUMO)
       331        0.0000           -0.3402303              -9.2581
       332        0.0000           -0.3376850              -9.1889
       333                         -0.3332362              -9.0678
       334                         -0.3088466              -8.4041
       ...                                ...                  ...
       698                          1.0731561              29.2021
      -------------------------------------------------------------
                  HL-Gap            0.0104931 Eh            0.2855 eV
             Fermi-level           -0.3502976 Eh           -9.5321 eV

 SCC (total)                   0 d,  0 h,  0 min,  0.959 sec
 SCC setup                      ...        0 min,  0.004 sec (  0.447%)
 Dispersion                     ...        0 min,  0.008 sec (  0.845%)
 classical contributions        ...        0 min,  0.000 sec (  0.042%)
 integral evaluation            ...        0 min,  0.044 sec (  4.587%)
 iterations                     ...        0 min,  0.746 sec ( 77.867%)
 molecular gradient             ...        0 min,  0.151 sec ( 15.795%)
 printout                       ...        0 min,  0.004 sec (  0.408%)

         :::::::::::::::::::::::::::::::::::::::::::::::::::::
         ::                     SUMMARY                     ::
         :::::::::::::::::::::::::::::::::::::::::::::::::::::
         :: total energy            -354.889268332123 Eh    ::
         :: gradient norm              0.322951116774 Eh/a0 ::
         :: HOMO-LUMO gap              0.285531917422 eV    ::
         ::.................................................::
         :: SCC energy              -360.031217433411 Eh    ::
         :: -> isotropic ES            0.133788893168 Eh    ::
         :: -> anisotropic ES          0.034756662621 Eh    ::
         :: -> anisotropic XC          0.234948433305 Eh    ::
         :: -> dispersion             -0.377206865442 Eh    ::
         :: repulsion energy           5.123290137920 Eh    ::
         :: add. restraining           0.000000000000 Eh    ::
         :: total charge               0.000000000002 e     ::
         :::::::::::::::::::::::::::::::::::::::::::::::::::::

      ----------------------------------------------------------- 
     |                   =====================                   |
     |                        A N C O P T                        |
     |                   =====================                   |
     |               Approximate Normal Coordinate               |
     |                Rational Function Optimizer                |
      ----------------------------------------------------------- 

          ...................................................
          :                      SETUP                      :
          :.................................................:
          :   optimization level            normal          :
          :   max. optcycles                   627          :
          :   ANC micro-cycles                  20          :
          :   degrees of freedom               621          :
          :.................................................:
          :   RF solver                   davidson          :
          :   write xtbopt.log                true          :
          :   linear?                        false          :
          :   energy convergence         0.5000000E-05 Eh   :
          :   grad. convergence          0.1000000E-02 Eh/α :
          :   maximium RF displ.         1.0000000          :
          :   Hlow (freq-cutoff)         0.1000000E-01      :
          :   Hmax (freq-cutoff)         5.0000000          :
          :   S6 in model hess.         20.0000000          :
          ...................................................

generating ANC from model Hessian ...
Using Lindh-Hessian (1995)
 Shifting diagonal of input Hessian by   1.001397837097976E-002
 Lowest  eigenvalues of input Hessian
    0.010000    0.010001    0.000000    0.000000    0.000000    0.000000
    0.000000    0.000000    0.010018    0.010035    0.010045    0.010074
    0.010094    0.010098    0.010113    0.010162    0.010165    0.010178
 Highest eigenvalues
    2.148510    2.151763    2.505069    2.509934    2.567092    2.569702
 

........................................................................
.............................. CYCLE    1 ..............................
........................................................................
   1   -360.0312175 -0.360031E+03  0.318E-04    0.29       0.0  T
   2   -360.0312175  0.150976E-09  0.268E-04    0.29      25.8  T
   3   -360.0312175 -0.417373E-08  0.213E-04    0.29      32.5  T
     SCC iter.                  ...        0 min,  0.140 sec
     gradient                   ...        0 min,  0.148 sec
 * total energy  :  -354.8892684 Eh     change       -0.2793735E-07 Eh
   gradient norm :     0.3229500 Eh/α   predicted     0.0000000E+00 (-100.00%)
   displ. norm   :     0.4801410 α      lambda       -0.1153607E+00
   maximum displ.:     0.0789116 α      in ANC's #327, #288, #376, ...

........................................................................
.............................. CYCLE    2 ..............................
........................................................................
   1   -360.2456058 -0.360246E+03  0.259E-01    0.29       0.0  T
   2   -360.2474751 -0.186936E-02  0.165E-01    0.29       1.0  T
   3   -360.2474394  0.357717E-04  0.943E-02    0.28       1.0  T
   4   -360.2481258 -0.686479E-03  0.462E-02    0.31       1.0  T
   5   -360.2484875 -0.361692E-03  0.223E-02    0.29       1.0  T
   6   -360.2485384 -0.508404E-04  0.130E-02    0.30       1.0  T
   7   -360.2485510 -0.126496E-04  0.882E-03    0.29       1.0  T
   8   -360.2485553 -0.422913E-05  0.648E-03    0.29       1.1  T
   9   -360.2485565 -0.124653E-05  0.428E-03    0.29       1.6  T
  10   -360.2485577 -0.115081E-05  0.217E-03    0.29       3.2  T
  11   -360.2485580 -0.373614E-06  0.112E-03    0.29       6.2  T
  12   -360.2485581 -0.638535E-07  0.660E-04    0.29      10.5  T
  13   -360.2485581 -0.349506E-07  0.302E-04    0.29      22.9  T
     SCC iter.                  ...        0 min,  0.571 sec
     gradient                   ...        0 min,  0.148 sec
 * total energy  :  -354.9733942 Eh     change       -0.8412584E-01 Eh
   gradient norm :     0.1527916 Eh/α   predicted    -0.7101647E-01 ( -15.58%)
   displ. norm   :     0.4926660 α      lambda       -0.4892417E-01
   maximum displ.:     0.1128051 α      in ANC's #132, #135, #107, ...

........................................................................
.............................. CYCLE    3 ..............................
........................................................................
   1   -360.3827914 -0.360383E+03  0.209E-01    0.26       0.0  T
   2   -360.3841877 -0.139622E-02  0.137E-01    0.30       1.0  T
   3   -360.3846408 -0.453159E-03  0.829E-02    0.26       1.0  T
   4   -360.3850264 -0.385552E-03  0.486E-02    0.32       1.0  T
   5   -360.3854805 -0.454090E-03  0.210E-02    0.28       1.0  T
   6   -360.3855306 -0.501281E-04  0.112E-02    0.29       1.0  T
   7   -360.3855376 -0.700462E-05  0.786E-03    0.28       1.0  T
   8   -360.3855409 -0.332278E-05  0.566E-03    0.29       1.2  T
   9   -360.3855416 -0.700432E-06  0.391E-03    0.28       1.8  T
  10   -360.3855426 -0.987442E-06  0.211E-03    0.28       3.3  T
  11   -360.3855429 -0.286448E-06  0.119E-03    0.28       5.8  T
  12   -360.3855430 -0.145101E-06  0.625E-04    0.28      11.1  T
  13   -360.3855431 -0.149680E-07  0.359E-04    0.28      19.3  T
     SCC iter.                  ...        0 min,  0.582 sec
     gradient                   ...        0 min,  0.150 sec
 * total energy  :  -355.0044185 Eh     change       -0.3102431E-01 Eh
   gradient norm :     0.0461467 Eh/α   predicted    -0.3039953E-01 (  -2.01%)
   displ. norm   :     0.5442530 α      lambda       -0.1368446E-01
   maximum displ.:     0.1652866 α      in ANC's #95, #132, #107, ...

........................................................................
.............................. CYCLE    4 ..............................
........................................................................
   1   -360.4330117 -0.360433E+03  0.136E-01    0.28       0.0  T
   2   -360.4331615 -0.149751E-03  0.875E-02    0.30       1.0  T
   3   -360.4327447  0.416763E-03  0.628E-02    0.27       1.0  T
   4   -360.4334952 -0.750480E-03  0.245E-02    0.31       1.0  T
   5   -360.4336211 -0.125917E-03  0.970E-03    0.28       1.0  T
   6   -360.4336336 -0.124989E-04  0.482E-03    0.29       1.4  T
   7   -360.4336348 -0.113826E-05  0.327E-03    0.29       2.1  T
   8   -360.4336353 -0.563198E-06  0.234E-03    0.29       3.0  T
   9   -360.4336354 -0.588610E-07  0.180E-03    0.29       3.8  T
  10   -360.4336356 -0.241799E-06  0.102E-03    0.29       6.8  T
  11   -360.4336357 -0.735468E-07  0.601E-04    0.29      11.5  T
  12   -360.4336357 -0.256905E-07  0.321E-04    0.29      21.6  T
     SCC iter.                  ...        0 min,  0.515 sec
     gradient                   ...        0 min,  0.151 sec
 * total energy  :  -355.0134790 Eh     change       -0.9060532E-02 Eh
   gradient norm :     0.0271535 Eh/α   predicted    -0.8869026E-02 (  -2.11%)
   displ. norm   :     0.6938527 α      lambda       -0.1083093E-01
   maximum displ.:     0.1954178 α      in ANC's #107, #135, #132, ...

........................................................................
.............................. CYCLE    5 ..............................
........................................................................
   1   -360.4644662 -0.360464E+03  0.266E-01    0.24       0.0  T
   2   -360.4646143 -0.148153E-03  0.153E-01    0.31       1.0  T
   3   -360.4596244  0.498997E-02  0.132E-01    0.18       1.0  T
   4   -360.4650071 -0.538274E-02  0.332E-02    0.37       1.0  T
   5   -360.4652390 -0.231889E-03  0.153E-02    0.31       1.0  T
   6   -360.4652486 -0.957611E-05  0.937E-03    0.29       1.0  T
   7   -360.4652587 -0.101213E-04  0.365E-03    0.27       1.9  T
   8   -360.4652601 -0.141369E-05  0.232E-03    0.27       3.0  T
   9   -360.4652604 -0.305741E-06  0.155E-03    0.27       4.5  T
  10   -360.4652606 -0.204639E-06  0.966E-04    0.27       7.2  T
  11   -360.4652607 -0.315432E-07  0.714E-04    0.27       9.7  T
     SCC iter.                  ...        0 min,  0.476 sec
     gradient                   ...        0 min,  0.150 sec
 * total energy  :  -355.0168908 Eh     change       -0.3411732E-02 Eh
   gradient norm :     0.0447906 Eh/α   predicted    -0.8022721E-02 ( 135.15%)
   displ. norm   :     0.4244751 α      lambda       -0.7526158E-02
   maximum displ.:     0.1221001 α      in ANC's #95, #34, #74, ...

........................................................................
.............................. CYCLE    6 ..............................
........................................................................
   1   -360.4794599 -0.360479E+03  0.177E-01    0.31       0.0  T
   2   -360.4795652 -0.105303E-03  0.989E-02    0.29       1.0  T
   3   -360.4792611  0.304121E-03  0.363E-02    0.28       1.0  T
   4   -360.4796159 -0.354862E-03  0.784E-03    0.29       1.0  T
   5   -360.4796205 -0.458372E-05  0.534E-03    0.29       1.3  T
   6   -360.4796255 -0.499438E-05  0.220E-03    0.29       3.2  T
   7   -360.4796260 -0.450502E-06  0.125E-03    0.29       5.6  T
   8   -360.4796261 -0.102341E-06  0.781E-04    0.29       8.9  T
   9   -360.4796261 -0.146805E-07  0.607E-04    0.29      11.4  T
     SCC iter.                  ...        0 min,  0.401 sec
     gradient                   ...        0 min,  0.151 sec
 * total energy  :  -355.0206685 Eh     change       -0.3777728E-02 Eh
   gradient norm :     0.0409831 Eh/α   predicted    -0.4441139E-02 (  17.56%)
   displ. norm   :     0.4556657 α      lambda       -0.4322131E-02
   maximum displ.:     0.1431812 α      in ANC's #95, #74, #88, ...

........................................................................
.............................. CYCLE    7 ..............................
........................................................................
   1   -360.4737225 -0.360474E+03  0.164E-01    0.29       0.0  T
   2   -360.4737940 -0.714752E-04  0.918E-02    0.30       1.0  T
   3   -360.4733864  0.407570E-03  0.417E-02    0.29       1.0  T
   4   -360.4738461 -0.459757E-03  0.775E-03    0.29       1.0  T
   5   -360.4738529 -0.670793E-05  0.454E-03    0.29       1.5  T
   6   -360.4738556 -0.270637E-05  0.213E-03    0.29       3.2  T
   7   -360.4738561 -0.521513E-06  0.119E-03    0.29       5.8  T
   8   -360.4738562 -0.121166E-06  0.755E-04    0.29       9.2  T
   9   -360.4738562 -0.186639E-07  0.554E-04    0.29      12.5  T
     SCC iter.                  ...        0 min,  0.396 sec
     gradient                   ...        0 min,  0.149 sec
 * total energy  :  -355.0221834 Eh     change       -0.1514914E-02 Eh
   gradient norm :     0.0219116 Eh/α   predicted    -0.2609771E-02 (  72.27%)
   displ. norm   :     0.4065719 α      lambda       -0.3073752E-02
   maximum displ.:     0.1032561 α      in ANC's #53, #74, #42, ...

........................................................................
.............................. CYCLE    8 ..............................
........................................................................
   1   -360.4779476 -0.360478E+03  0.121E-01    0.28       0.0  T
   2   -360.4779643 -0.166326E-04  0.681E-02    0.30       1.0  T
   3   -360.4772643  0.699980E-03  0.466E-02    0.25       1.0  T
   4   -360.4780251 -0.760830E-03  0.789E-03    0.30       1.0  T
   5   -360.4780358 -0.106792E-04  0.338E-03    0.29       2.0  T
   6   -360.4780366 -0.801828E-06  0.154E-03    0.29       4.5  T
   7   -360.4780368 -0.203883E-06  0.828E-04    0.29       8.3  T
   8   -360.4780369 -0.505998E-07  0.545E-04    0.29      12.7  T
     SCC iter.                  ...        0 min,  0.348 sec
     gradient                   ...        0 min,  0.149 sec
 * total energy  :  -355.0243837 Eh     change       -0.2200292E-02 Eh
   gradient norm :     0.0193253 Eh/α   predicted    -0.1790935E-02 ( -18.60%)
   displ. norm   :     0.5663162 α      lambda       -0.2635635E-02
   maximum displ.:     0.1386451 α      in ANC's #53, #42, #28, ...

........................................................................
.............................. CYCLE    9 ..............................
........................................................................
   1   -360.4836693 -0.360484E+03  0.114E-01    0.27       0.0  T
   2   -360.4836848 -0.155374E-04  0.650E-02    0.30       1.0  T
   3   -360.4829844  0.700488E-03  0.482E-02    0.25       1.0  T
   4   -360.4837466 -0.762282E-03  0.113E-02    0.30       1.0  T
   5   -360.4837733 -0.267076E-04  0.419E-03    0.29       1.7  T
   6   -360.4837745 -0.116929E-05  0.189E-03    0.29       3.7  T
   7   -360.4837749 -0.351481E-06  0.103E-03    0.28       6.7  T
   8   -360.4837750 -0.113729E-06  0.640E-04    0.28      10.8  T
   9   -360.4837750 -0.452656E-08  0.471E-04    0.29      14.7  T
     SCC iter.                  ...        0 min,  0.397 sec
     gradient                   ...        0 min,  0.149 sec
 * total energy  :  -355.0262582 Eh     change       -0.1874516E-02 Eh
   gradient norm :     0.0134983 Eh/α   predicted    -0.1740461E-02 (  -7.15%)
   displ. norm   :     0.6580638 α      lambda       -0.2128813E-02
   maximum displ.:     0.1705846 α      in ANC's #42, #53, #28, ...

........................................................................
.............................. CYCLE   10 ..............................
........................................................................
   1   -360.4861928 -0.360486E+03  0.120E-01    0.27       0.0  T
   2   -360.4862045 -0.117234E-04  0.679E-02    0.30       1.0  T
   3   -360.4855381  0.666411E-03  0.455E-02    0.25       1.0  T
   4   -360.4862530 -0.714849E-03  0.941E-03    0.29       1.0  T
   5   -360.4862673 -0.143269E-04  0.448E-03    0.28       1.5  T
   6   -360.4862692 -0.185157E-05  0.178E-03    0.28       3.9  T
   7   -360.4862695 -0.348999E-06  0.957E-04    0.28       7.2  T
   8   -360.4862696 -0.940382E-07  0.603E-04    0.28      11.5  T
     SCC iter.                  ...        0 min,  0.352 sec
     gradient                   ...        0 min,  0.152 sec
 * total energy  :  -355.0278160 Eh     change       -0.1557786E-02 Eh
   gradient norm :     0.0197962 Eh/α   predicted    -0.1525350E-02 (  -2.08%)
   displ. norm   :     0.7020021 α      lambda       -0.2329433E-02
   maximum displ.:     0.1840357 α      in ANC's #42, #28, #18, ...

........................................................................
.............................. CYCLE   11 ..............................
........................................................................
   1   -360.4912749 -0.360491E+03  0.109E-01    0.29       0.0  T
   2   -360.4912949 -0.200681E-04  0.613E-02    0.29       1.0  T
   3   -360.4910691  0.225814E-03  0.288E-02    0.27       1.0  T
   4   -360.4913081 -0.238992E-03  0.793E-03    0.29       1.0  T
   5   -360.4913167 -0.862278E-05  0.474E-03    0.28       1.5  T
   6   -360.4913203 -0.355874E-05  0.161E-03    0.29       4.3  T
   7   -360.4913207 -0.424429E-06  0.774E-04    0.29       8.9  T
   8   -360.4913208 -0.504480E-07  0.515E-04    0.29      13.4  T
     SCC iter.                  ...        0 min,  0.345 sec
     gradient                   ...        0 min,  0.149 sec
 * total energy  :  -355.0294139 Eh     change       -0.1597940E-02 Eh
   gradient norm :     0.0212127 Eh/α   predicted    -0.1738707E-02 (   8.81%)
   displ. norm   :     0.6445341 α      lambda       -0.1753798E-02
   maximum displ.:     0.1656600 α      in ANC's #42, #18, #25, ...

........................................................................
.............................. CYCLE   12 ..............................
........................................................................
   1   -360.4860594 -0.360486E+03  0.112E-01    0.28       0.0  T
   2   -360.4860766 -0.172390E-04  0.624E-02    0.28       1.0  T
   3   -360.4858967  0.179923E-03  0.269E-02    0.28       1.0  T
   4   -360.4860907 -0.193999E-03  0.656E-03    0.29       1.1  T
   5   -360.4860939 -0.316079E-05  0.392E-03    0.28       1.8  T
   6   -360.4860966 -0.274085E-05  0.134E-03    0.28       5.2  T
   7   -360.4860968 -0.232593E-06  0.787E-04    0.28       8.8  T
   8   -360.4860969 -0.523922E-07  0.518E-04    0.28      13.4  T
     SCC iter.                  ...        0 min,  0.376 sec
     gradient                   ...        0 min,  0.150 sec
 * total energy  :  -355.0307603 Eh     change       -0.1346402E-02 Eh
   gradient norm :     0.0135861 Eh/α   predicted    -0.1241189E-02 (  -7.81%)
   displ. norm   :     0.6832780 α      lambda       -0.1834289E-02
   maximum displ.:     0.1806447 α      in ANC's #18, #42, #25, ...

........................................................................
.............................. CYCLE   13 ..............................
........................................................................
   1   -360.4937562 -0.360494E+03  0.111E-01    0.28       0.0  T
   2   -360.4937765 -0.203176E-04  0.620E-02    0.28       1.0  T
   3   -360.4935978  0.178746E-03  0.274E-02    0.29       1.0  T
   4   -360.4937941 -0.196288E-03  0.680E-03    0.28       1.0  T
   5   -360.4937966 -0.256690E-05  0.429E-03    0.28       1.6  T
   6   -360.4937996 -0.300640E-05  0.154E-03    0.28       4.5  T
   7   -360.4938001 -0.463759E-06  0.763E-04    0.28       9.1  T
   8   -360.4938002 -0.802490E-07  0.447E-04    0.28      15.5  T
     SCC iter.                  ...        0 min,  0.364 sec
     gradient                   ...        0 min,  0.150 sec
 * total energy  :  -355.0321518 Eh     change       -0.1391407E-02 Eh
   gradient norm :     0.0145483 Eh/α   predicted    -0.1345332E-02 (  -3.31%)
   displ. norm   :     0.7012007 α      lambda       -0.1623055E-02
   maximum displ.:     0.1931273 α      in ANC's #18, #25, #42, ...

........................................................................
.............................. CYCLE   14 ..............................
........................................................................
   1   -360.4980236 -0.360498E+03  0.109E-01    0.27       0.0  T
   2   -360.4980413 -0.176749E-04  0.608E-02    0.27       1.0  T
   3   -360.4978430  0.198301E-03  0.288E-02    0.28       1.0  T
   4   -360.4980565 -0.213518E-03  0.762E-03    0.27       1.0  T
   5   -360.4980601 -0.361493E-05  0.488E-03    0.28       1.4  T
   6   -360.4980646 -0.442747E-05  0.178E-03    0.27       3.9  T
   7   -360.4980653 -0.735380E-06  0.772E-04    0.27       9.0  T
   8   -360.4980654 -0.862863E-07  0.438E-04    0.27      15.8  T
     SCC iter.                  ...        0 min,  0.365 sec
     gradient                   ...        0 min,  0.149 sec
 * total energy  :  -355.0334767 Eh     change       -0.1324993E-02 Eh
   gradient norm :     0.0124318 Eh/α   predicted    -0.1210548E-02 (  -8.64%)
   displ. norm   :     0.7352744 α      lambda       -0.1574258E-02
   maximum displ.:     0.2112927 α      in ANC's #18, #25, #6, ...

........................................................................
.............................. CYCLE   15 ..............................
........................................................................
   1   -360.4918508 -0.360492E+03  0.111E-01    0.27       0.0  T
   2   -360.4918719 -0.211142E-04  0.606E-02    0.27       1.0  T
   3   -360.4917637  0.108176E-03  0.220E-02    0.27       1.0  T
   4   -360.4918764 -0.112679E-03  0.826E-03    0.26       1.0  T
   5   -360.4918813 -0.496902E-05  0.553E-03    0.27       1.3  T
   6   -360.4918874 -0.608543E-05  0.167E-03    0.27       4.1  T
   7   -360.4918880 -0.544822E-06  0.837E-04    0.27       8.3  T
   8   -360.4918881 -0.768899E-07  0.540E-04    0.27      12.8  T
     SCC iter.                  ...        0 min,  0.361 sec
     gradient                   ...        0 min,  0.150 sec
 * total energy  :  -355.0347656 Eh     change       -0.1288877E-02 Eh
   gradient norm :     0.0155722 Eh/α   predicted    -0.1212676E-02 (  -5.91%)
   displ. norm   :     0.7255025 α      lambda       -0.1382622E-02
   maximum displ.:     0.2132037 α      in ANC's #18, #49, #25, ...

........................................................................
.............................. CYCLE   16 ..............................
........................................................................
   1   -360.4942257 -0.360494E+03  0.109E-01    0.27       0.0  T
   2   -360.4942472 -0.214951E-04  0.593E-02    0.27       1.0  T
   3   -360.4941610  0.862386E-04  0.206E-02    0.27       1.0  T
   4   -360.4942502 -0.892129E-04  0.825E-03    0.26       1.0  T
   5   -360.4942542 -0.401153E-05  0.518E-03    0.27       1.3  T
   6   -360.4942603 -0.608119E-05  0.159E-03    0.27       4.4  T
   7   -360.4942608 -0.520927E-06  0.733E-04    0.27       9.4  T
   8   -360.4942609 -0.574060E-07  0.461E-04    0.27      15.0  T
     SCC iter.                  ...        0 min,  0.357 sec
     gradient                   ...        0 min,  0.150 sec
 * total energy  :  -355.0359141 Eh     change       -0.1148465E-02 Eh
   gradient norm :     0.0096877 Eh/α   predicted    -0.1055191E-02 (  -8.12%)
   displ. norm   :     0.7628646 α      lambda       -0.1239097E-02
   maximum displ.:     0.2257681 α      in ANC's #18, #25, #6, ...

........................................................................
.............................. CYCLE   17 ..............................
........................................................................
   1   -360.4886414 -0.360489E+03  0.111E-01    0.27       0.0  T
   2   -360.4886676 -0.261446E-04  0.593E-02    0.27       1.0  T
   3   -360.4886415  0.260993E-04  0.144E-02    0.26       1.0  T
   4   -360.4886630 -0.214992E-04  0.854E-03    0.27       1.0  T
   5   -360.4886708 -0.776740E-05  0.476E-03    0.26       1.5  T
   6   -360.4886760 -0.526781E-05  0.148E-03    0.27       4.7  T
   7   -360.4886765 -0.431781E-06  0.681E-04    0.27      10.2  T
   8   -360.4886765 -0.485791E-07  0.449E-04    0.27      15.4  T
     SCC iter.                  ...        0 min,  0.355 sec
     gradient                   ...        0 min,  0.149 sec
 * total energy  :  -355.0369486 Eh     change       -0.1034533E-02 Eh
   gradient norm :     0.0106666 Eh/α   predicted    -0.9801073E-03 (  -5.26%)
   displ. norm   :     0.7155009 α      lambda       -0.1367039E-02
   maximum displ.:     0.2281280 α      in ANC's #49, #18, #6, ...

........................................................................
.............................. CYCLE   18 ..............................
........................................................................
   1   -360.5041097 -0.360504E+03  0.109E-01    0.27       0.0  T
   2   -360.5041423 -0.326158E-04  0.577E-02    0.27       1.0  T
   3   -360.5041151  0.272251E-04  0.154E-02    0.27       1.0  T
   4   -360.5041481 -0.329734E-04  0.733E-03    0.27       1.0  T
   5   -360.5041516 -0.350245E-05  0.353E-03    0.27       2.0  T
   6   -360.5041538 -0.221504E-05  0.135E-03    0.27       5.1  T
   7   -360.5041541 -0.262196E-06  0.766E-04    0.27       9.0  T
   8   -360.5041541 -0.655895E-07  0.495E-04    0.27      14.0  T
     SCC iter.                  ...        0 min,  0.362 sec
     gradient                   ...        0 min,  0.149 sec
 * total energy  :  -355.0377887 Eh     change       -0.8401251E-03 Eh
   gradient norm :     0.0133490 Eh/α   predicted    -0.1033445E-02 (  23.01%)
   displ. norm   :     0.6906439 α      lambda       -0.1148085E-02
   maximum displ.:     0.2051893 α      in ANC's #18, #6, #25, ...

........................................................................
.............................. CYCLE   19 ..............................
........................................................................
   1   -360.4935406 -0.360494E+03  0.941E-02    0.27       0.0  T
   2   -360.4935635 -0.229416E-04  0.502E-02    0.27       1.0  T
   3   -360.4934796  0.839939E-04  0.198E-02    0.26       1.0  T
   4   -360.4935639 -0.843046E-04  0.849E-03    0.27       1.0  T
   5   -360.4935722 -0.834668E-05  0.498E-03    0.27       1.4  T
   6   -360.4935765 -0.426265E-05  0.171E-03    0.27       4.0  T
   7   -360.4935770 -0.557874E-06  0.764E-04    0.27       9.0  T
   8   -360.4935771 -0.972299E-07  0.435E-04    0.27      15.9  T
     SCC iter.                  ...        0 min,  0.360 sec
     gradient                   ...        0 min,  0.148 sec
 * total energy  :  -355.0386438 Eh     change       -0.8550266E-03 Eh
   gradient norm :     0.0127840 Eh/α   predicted    -0.8478508E-03 (  -0.84%)
   displ. norm   :     0.6453462 α      lambda       -0.8168817E-03
   maximum displ.:     0.2006421 α      in ANC's #18, #6, #49, ...

........................................................................
.............................. CYCLE   20 ..............................
........................................................................
   1   -360.4924348 -0.360492E+03  0.865E-02    0.27       0.0  T
   2   -360.4924550 -0.202227E-04  0.456E-02    0.27       1.0  T
   3   -360.4924170  0.380179E-04  0.149E-02    0.26       1.0  T
   4   -360.4924550 -0.380447E-04  0.711E-03    0.27       1.0  T
   5   -360.4924591 -0.405937E-05  0.450E-03    0.27       1.5  T
   6   -360.4924635 -0.443587E-05  0.137E-03    0.27       5.0  T
   7   -360.4924639 -0.364097E-06  0.623E-04    0.27      11.1  T
   8   -360.4924639 -0.534532E-07  0.379E-04    0.27      18.3  T
     SCC iter.                  ...        0 min,  0.354 sec
     gradient                   ...        0 min,  0.149 sec
 * total energy  :  -355.0393111 Eh     change       -0.6672779E-03 Eh
   gradient norm :     0.0105826 Eh/α   predicted    -0.5785491E-03 ( -13.30%)
   displ. norm   :     0.6367830 α      lambda       -0.8850707E-03
   maximum displ.:     0.2041004 α      in ANC's #6, #18, #49, ...
 * RMSD in coord.:     0.6637024 α      energy gain  -0.1500427E+00 Eh

generating ANC from model Hessian ...
Using Lindh-Hessian (1995)
 Shifting diagonal of input Hessian by   1.002449884975865E-002
 Lowest  eigenvalues of input Hessian
    0.010000    0.010016    0.010020    0.000000    0.000000    0.000000
    0.000000    0.000000    0.000000    0.010030    0.010039    0.010072
    0.010084    0.010096    0.010132    0.010133    0.010149    0.010201
 Highest eigenvalues
    2.298396    2.299416    2.595303    2.608851    2.659871    2.660356
 

........................................................................
.............................. CYCLE   21 ..............................
........................................................................
   1   -360.4990823 -0.360499E+03  0.830E-02    0.26       0.0  T
   2   -360.4991018 -0.195344E-04  0.430E-02    0.27       1.0  T
   3   -360.4990589  0.428459E-04  0.154E-02    0.25       1.0  T
   4   -360.4991013 -0.423286E-04  0.728E-03    0.28       1.0  T
   5   -360.4991061 -0.484757E-05  0.479E-03    0.27       1.4  T
   6   -360.4991111 -0.494609E-05  0.124E-03    0.27       5.6  T
   7   -360.4991113 -0.262893E-06  0.586E-04    0.27      11.8  T
   8   -360.4991114 -0.406085E-07  0.350E-04    0.27      19.7  T
     SCC iter.                  ...        0 min,  0.349 sec
     gradient                   ...        0 min,  0.149 sec
 * total energy  :  -355.0400177 Eh     change       -0.7066245E-03 Eh
   gradient norm :     0.0083938 Eh/α   predicted     0.0000000E+00 (-100.00%)
   displ. norm   :     0.1307258 α      lambda       -0.3347983E-03
   maximum displ.:     0.0343739 α      in ANC's #51, #31, #27, ...

........................................................................
.............................. CYCLE   22 ..............................
........................................................................
   1   -360.5008878 -0.360501E+03  0.355E-02    0.27       0.0  T
   2   -360.5008912 -0.345924E-05  0.194E-02    0.27       1.0  T
   3   -360.5008766  0.145679E-04  0.820E-03    0.27       1.0  T
   4   -360.5008929 -0.162922E-04  0.227E-03    0.27       3.1  T
   5   -360.5008934 -0.482763E-06  0.144E-03    0.27       4.8  T
   6   -360.5008938 -0.375714E-06  0.502E-04    0.27      13.8  T
   7   -360.5008938 -0.450488E-07  0.243E-04    0.27      28.4  T
     SCC iter.                  ...        0 min,  0.313 sec
     gradient                   ...        0 min,  0.150 sec
 * total energy  :  -355.0402668 Eh     change       -0.2490880E-03 Eh
   gradient norm :     0.0042727 Eh/α   predicted    -0.1702604E-03 ( -31.65%)
   displ. norm   :     0.3768913 α      lambda       -0.6325935E-03
   maximum displ.:     0.1036531 α      in ANC's #31, #51, #27, ...

........................................................................
.............................. CYCLE   23 ..............................
........................................................................
   1   -360.5037168 -0.360504E+03  0.715E-02    0.28       0.0  T
   2   -360.5037304 -0.135795E-04  0.379E-02    0.27       1.0  T
   3   -360.5036655  0.649246E-04  0.167E-02    0.28       1.0  T
   4   -360.5037366 -0.711660E-04  0.567E-03    0.27       1.2  T
   5   -360.5037389 -0.225071E-05  0.376E-03    0.27       1.8  T
   6   -360.5037413 -0.236629E-05  0.119E-03    0.27       5.8  T
   7   -360.5037416 -0.301521E-06  0.503E-04    0.27      13.8  T
   8   -360.5037416 -0.407184E-07  0.270E-04    0.27      25.6  T
     SCC iter.                  ...        0 min,  0.353 sec
     gradient                   ...        0 min,  0.155 sec
 * total energy  :  -355.0406555 Eh     change       -0.3887629E-03 Eh
   gradient norm :     0.0089718 Eh/α   predicted    -0.3612260E-03 (  -7.08%)
   displ. norm   :     0.4767355 α      lambda       -0.6471407E-03
   maximum displ.:     0.1403517 α      in ANC's #51, #31, #27, ...

........................................................................
.............................. CYCLE   24 ..............................
........................................................................
   1   -360.5029049 -0.360503E+03  0.933E-02    0.27       0.0  T
   2   -360.5029266 -0.217066E-04  0.489E-02    0.27       1.0  T
   3   -360.5028665  0.601172E-04  0.171E-02    0.27       1.0  T
   4   -360.5029347 -0.682067E-04  0.630E-03    0.27       1.1  T
   5   -360.5029371 -0.239954E-05  0.369E-03    0.27       1.9  T
   6   -360.5029394 -0.233860E-05  0.985E-04    0.27       7.0  T
   7   -360.5029396 -0.183733E-06  0.449E-04    0.27      15.4  T
   8   -360.5029396 -0.270053E-07  0.217E-04    0.27      31.8  T
     SCC iter.                  ...        0 min,  0.357 sec
     gradient                   ...        0 min,  0.150 sec
 * total energy  :  -355.0410093 Eh     change       -0.3537471E-03 Eh
   gradient norm :     0.0129962 Eh/α   predicted    -0.3971419E-03 (  12.27%)
   displ. norm   :     0.4862749 α      lambda       -0.7240550E-03
   maximum displ.:     0.1467814 α      in ANC's #51, #31, #27, ...

........................................................................
.............................. CYCLE   25 ..............................
........................................................................
   1   -360.4990700 -0.360499E+03  0.825E-02    0.27       0.0  T
   2   -360.4990882 -0.182534E-04  0.421E-02    0.27       1.0  T
   3   -360.4990746  0.136532E-04  0.109E-02    0.28       1.0  T
   4   -360.4990891 -0.144826E-04  0.588E-03    0.27       1.2  T
   5   -360.4990910 -0.195705E-05  0.364E-03    0.28       1.9  T
   6   -360.4990945 -0.343954E-05  0.927E-04    0.27       7.5  T
   7   -360.4990947 -0.175605E-06  0.439E-04    0.27      15.7  T
   8   -360.4990947 -0.268848E-07  0.232E-04    0.27      29.8  T
     SCC iter.                  ...        0 min,  0.353 sec
     gradient                   ...        0 min,  0.148 sec
 * total energy  :  -355.0415474 Eh     change       -0.5381236E-03 Eh
   gradient norm :     0.0120198 Eh/α   predicted    -0.4476395E-03 ( -16.81%)
   displ. norm   :     0.5395834 α      lambda       -0.8489626E-03
   maximum displ.:     0.1638050 α      in ANC's #51, #31, #27, ...

........................................................................
.............................. CYCLE   26 ..............................
........................................................................
   1   -360.4972521 -0.360497E+03  0.844E-02    0.27       0.0  T
   2   -360.4972732 -0.211634E-04  0.425E-02    0.27       1.0  T
   3   -360.4972544  0.188460E-04  0.121E-02    0.26       1.0  T
   4   -360.4972746 -0.201976E-04  0.638E-03    0.27       1.1  T
   5   -360.4972770 -0.244289E-05  0.394E-03    0.27       1.8  T
   6   -360.4972805 -0.351006E-05  0.101E-03    0.27       6.8  T
   7   -360.4972807 -0.186164E-06  0.527E-04    0.27      13.1  T
   8   -360.4972808 -0.534291E-07  0.257E-04    0.27      26.9  T
     SCC iter.                  ...        0 min,  0.350 sec
     gradient                   ...        0 min,  0.148 sec
 * total energy  :  -355.0421253 Eh     change       -0.5779058E-03 Eh
   gradient norm :     0.0103886 Eh/α   predicted    -0.5480809E-03 (  -5.16%)
   displ. norm   :     0.5281170 α      lambda       -0.6438976E-03
   maximum displ.:     0.1550376 α      in ANC's #51, #31, #8, ...

........................................................................
.............................. CYCLE   27 ..............................
........................................................................
   1   -360.4990229 -0.360499E+03  0.794E-02    0.27       0.0  T
   2   -360.4990412 -0.183633E-04  0.398E-02    0.27       1.0  T
   3   -360.4990159  0.253216E-04  0.131E-02    0.26       1.0  T
   4   -360.4990438 -0.278812E-04  0.607E-03    0.27       1.1  T
   5   -360.4990461 -0.232895E-05  0.365E-03    0.27       1.9  T
   6   -360.4990488 -0.273078E-05  0.861E-04    0.27       8.0  T
   7   -360.4990490 -0.112537E-06  0.493E-04    0.27      14.0  T
   8   -360.4990490 -0.501843E-07  0.249E-04    0.27      27.8  T
     SCC iter.                  ...        0 min,  0.351 sec
     gradient                   ...        0 min,  0.148 sec
 * total energy  :  -355.0426292 Eh     change       -0.5038507E-03 Eh
   gradient norm :     0.0104626 Eh/α   predicted    -0.4117444E-03 ( -18.28%)
   displ. norm   :     0.5877496 α      lambda       -0.7194853E-03
   maximum displ.:     0.1642484 α      in ANC's #8, #51, #31, ...

........................................................................
.............................. CYCLE   28 ..............................
........................................................................
   1   -360.5026612 -0.360503E+03  0.792E-02    0.27       0.0  T
   2   -360.5026808 -0.195330E-04  0.390E-02    0.27       1.0  T
   3   -360.5026625  0.182695E-04  0.119E-02    0.26       1.0  T
   4   -360.5026815 -0.189663E-04  0.622E-03    0.27       1.1  T
   5   -360.5026833 -0.184140E-05  0.424E-03    0.27       1.6  T
   6   -360.5026875 -0.421722E-05  0.993E-04    0.27       7.0  T
   7   -360.5026877 -0.188871E-06  0.496E-04    0.27      13.9  T
   8   -360.5026878 -0.421615E-07  0.244E-04    0.27      28.4  T
     SCC iter.                  ...        0 min,  0.352 sec
     gradient                   ...        0 min,  0.148 sec
 * total energy  :  -355.0432390 Eh     change       -0.6098076E-03 Eh
   gradient norm :     0.0096953 Eh/α   predicted    -0.4840190E-03 ( -20.63%)
   displ. norm   :     0.7176873 α      lambda       -0.8178455E-03
   maximum displ.:     0.2062428 α      in ANC's #8, #51, #31, ...

........................................................................
.............................. CYCLE   29 ..............................
........................................................................
   1   -360.5041131 -0.360504E+03  0.963E-02    0.27       0.0  T
   2   -360.5041407 -0.275214E-04  0.472E-02    0.28       1.0  T
   3   -360.5041033  0.373319E-04  0.153E-02    0.26       1.0  T
   4   -360.5041410 -0.377000E-04  0.785E-03    0.28       1.0  T
   5   -360.5041461 -0.504860E-05  0.487E-03    0.27       1.4  T
   6   -360.5041512 -0.517328E-05  0.117E-03    0.27       5.9  T
   7   -360.5041515 -0.265603E-06  0.595E-04    0.27      11.6  T
   8   -360.5041516 -0.588266E-07  0.303E-04    0.27      22.8  T
     SCC iter.                  ...        0 min,  0.354 sec
     gradient                   ...        0 min,  0.149 sec
 * total energy  :  -355.0439553 Eh     change       -0.7163547E-03 Eh
   gradient norm :     0.0084047 Eh/α   predicted    -0.6195507E-03 ( -13.51%)
   displ. norm   :     0.7140778 α      lambda       -0.9342155E-03
   maximum displ.:     0.2168026 α      in ANC's #8, #5, #17, ...

........................................................................
.............................. CYCLE   30 ..............................
........................................................................
   1   -360.5134141 -0.360513E+03  0.894E-02    0.28       0.0  T
   2   -360.5134379 -0.238154E-04  0.456E-02    0.28       1.0  T
   3   -360.5133644  0.735205E-04  0.187E-02    0.27       1.0  T
   4   -360.5134400 -0.756041E-04  0.808E-03    0.28       1.0  T
   5   -360.5134476 -0.763756E-05  0.455E-03    0.28       1.5  T
   6   -360.5134510 -0.335722E-05  0.140E-03    0.28       4.9  T
   7   -360.5134513 -0.293537E-06  0.751E-04    0.28       9.2  T
   8   -360.5134514 -0.986475E-07  0.403E-04    0.28      17.1  T
     SCC iter.                  ...        0 min,  0.355 sec
     gradient                   ...        0 min,  0.149 sec
 * total energy  :  -355.0446174 Eh     change       -0.6620549E-03 Eh
   gradient norm :     0.0108858 Eh/α   predicted    -0.7052932E-03 (   6.53%)
   displ. norm   :     0.8318826 α      lambda       -0.9963984E-03
   maximum displ.:     0.2386390 α      in ANC's #8, #31, #51, ...

........................................................................
.............................. CYCLE   31 ..............................
........................................................................
   1   -360.5005935 -0.360501E+03  0.120E-01    0.28       0.0  T
   2   -360.5006365 -0.430066E-04  0.582E-02    0.29       1.0  T
   3   -360.5006088  0.277598E-04  0.163E-02    0.28       1.0  T
   4   -360.5006436 -0.347763E-04  0.816E-03    0.29       1.0  T
   5   -360.5006457 -0.211964E-05  0.457E-03    0.28       1.5  T
   6   -360.5006499 -0.426210E-05  0.150E-03    0.28       4.6  T
   7   -360.5006504 -0.490668E-06  0.631E-04    0.28      11.0  T
   8   -360.5006505 -0.738106E-07  0.331E-04    0.28      20.9  T
     SCC iter.                  ...        0 min,  0.357 sec
     gradient                   ...        0 min,  0.149 sec
 * total energy  :  -355.0453496 Eh     change       -0.7322220E-03 Eh
   gradient norm :     0.0120961 Eh/α   predicted    -0.8429702E-03 (  15.12%)
   displ. norm   :     0.6464616 α      lambda       -0.8055561E-03
   maximum displ.:     0.1986744 α      in ANC's #8, #5, #17, ...

........................................................................
.............................. CYCLE   32 ..............................
........................................................................
   1   -360.5002063 -0.360500E+03  0.929E-02    0.28       0.0  T
   2   -360.5002304 -0.241389E-04  0.473E-02    0.29       1.0  T
   3   -360.5001747  0.557628E-04  0.172E-02    0.27       1.0  T
   4   -360.5002343 -0.595846E-04  0.729E-03    0.29       1.0  T
   5   -360.5002387 -0.441682E-05  0.421E-03    0.28       1.6  T
   6   -360.5002425 -0.379815E-05  0.122E-03    0.29       5.7  T
   7   -360.5002428 -0.291578E-06  0.600E-04    0.29      11.5  T
   8   -360.5002428 -0.605664E-07  0.306E-04    0.29      22.6  T
     SCC iter.                  ...        0 min,  0.360 sec
     gradient                   ...        0 min,  0.149 sec
 * total energy  :  -355.0459794 Eh     change       -0.6297654E-03 Eh
   gradient norm :     0.0122558 Eh/α   predicted    -0.5711089E-03 (  -9.31%)
   displ. norm   :     0.6520439 α      lambda       -0.9412977E-03
   maximum displ.:     0.2052826 α      in ANC's #8, #5, #21, ...

........................................................................
.............................. CYCLE   33 ..............................
........................................................................
   1   -360.5047613 -0.360505E+03  0.765E-02    0.29       0.0  T
   2   -360.5047784 -0.171656E-04  0.388E-02    0.29       1.0  T
   3   -360.5047532  0.252204E-04  0.130E-02    0.29       1.0  T
   4   -360.5047799 -0.266528E-04  0.620E-03    0.29       1.1  T
   5   -360.5047830 -0.317603E-05  0.334E-03    0.29       2.1  T
   6   -360.5047850 -0.199238E-05  0.114E-03    0.29       6.1  T
   7   -360.5047853 -0.244418E-06  0.581E-04    0.29      11.9  T
   8   -360.5047853 -0.653596E-07  0.280E-04    0.29      24.7  T
     SCC iter.                  ...        0 min,  0.363 sec
     gradient                   ...        0 min,  0.148 sec
 * total energy  :  -355.0467829 Eh     change       -0.8034926E-03 Eh
   gradient norm :     0.0076434 Eh/α   predicted    -0.6707534E-03 ( -16.52%)
   displ. norm   :     0.8228756 α      lambda       -0.9471183E-03
   maximum displ.:     0.2595111 α      in ANC's #8, #5, #21, ...

........................................................................
.............................. CYCLE   34 ..............................
........................................................................
   1   -360.5042584 -0.360504E+03  0.100E-01    0.29       0.0  T
   2   -360.5042865 -0.281330E-04  0.501E-02    0.29       1.0  T
   3   -360.5042491  0.373502E-04  0.157E-02    0.29       1.0  T
   4   -360.5042855 -0.364030E-04  0.816E-03    0.29       1.0  T
   5   -360.5042920 -0.641357E-05  0.466E-03    0.29       1.5  T
   6   -360.5042966 -0.465297E-05  0.144E-03    0.29       4.8  T
   7   -360.5042970 -0.421089E-06  0.611E-04    0.29      11.3  T
   8   -360.5042971 -0.599555E-07  0.307E-04    0.29      22.5  T
     SCC iter.                  ...        0 min,  0.362 sec
     gradient                   ...        0 min,  0.149 sec
 * total energy  :  -355.0476392 Eh     change       -0.8563190E-03 Eh
   gradient norm :     0.0081051 Eh/α   predicted    -0.7942224E-03 (  -7.25%)
   displ. norm   :     0.7690515 α      lambda       -0.1032274E-02
   maximum displ.:     0.2398158 α      in ANC's #8, #5, #21, ...

........................................................................
.............................. CYCLE   35 ..............................
........................................................................
   1   -360.5176370 -0.360518E+03  0.939E-02    0.29       0.0  T
   2   -360.5176589 -0.218921E-04  0.488E-02    0.29       1.0  T
   3   -360.5175603  0.985898E-04  0.207E-02    0.29       1.0  T
   4   -360.5176612 -0.100947E-03  0.845E-03    0.28       1.0  T
   5   -360.5176695 -0.825992E-05  0.480E-03    0.29       1.4  T
   6   -360.5176735 -0.402631E-05  0.155E-03    0.29       4.5  T
   7   -360.5176740 -0.438783E-06  0.658E-04    0.29      10.5  T
   8   -360.5176740 -0.665525E-07  0.337E-04    0.29      20.5  T
     SCC iter.                  ...        0 min,  0.373 sec
     gradient                   ...        0 min,  0.148 sec
 * total energy  :  -355.0483888 Eh     change       -0.7496043E-03 Eh
   gradient norm :     0.0110304 Eh/α   predicted    -0.8214025E-03 (   9.58%)
   displ. norm   :     0.8637443 α      lambda       -0.1061092E-02
   maximum displ.:     0.2683298 α      in ANC's #8, #5, #21, ...

........................................................................
.............................. CYCLE   36 ..............................
........................................................................
   1   -360.5047783 -0.360505E+03  0.108E-01    0.29       0.0  T
   2   -360.5048115 -0.332614E-04  0.532E-02    0.29       1.0  T
   3   -360.5047880  0.234928E-04  0.149E-02    0.29       1.0  T
   4   -360.5048155 -0.274243E-04  0.766E-03    0.29       1.0  T
   5   -360.5048183 -0.282292E-05  0.406E-03    0.29       1.7  T
   6   -360.5048217 -0.344822E-05  0.160E-03    0.29       4.3  T
   7   -360.5048224 -0.649878E-06  0.607E-04    0.29      11.4  T
   8   -360.5048224 -0.568347E-07  0.319E-04    0.29      21.7  T
     SCC iter.                  ...        0 min,  0.343 sec
     gradient                   ...        0 min,  0.148 sec
 * total energy  :  -355.0492408 Eh     change       -0.8520262E-03 Eh
   gradient norm :     0.0109166 Eh/α   predicted    -0.9263659E-03 (   8.73%)
   displ. norm   :     0.7820642 α      lambda       -0.8399979E-03
   maximum displ.:     0.2494912 α      in ANC's #8, #5, #21, ...

........................................................................
.............................. CYCLE   37 ..............................
........................................................................
   1   -360.4974612 -0.360497E+03  0.968E-02    0.29       0.0  T
   2   -360.4974865 -0.252577E-04  0.479E-02    0.29       1.0  T
   3   -360.4974721  0.143958E-04  0.126E-02    0.29       1.0  T
   4   -360.4974902 -0.181245E-04  0.659E-03    0.29       1.0  T
   5   -360.4974932 -0.302801E-05  0.262E-03    0.29       2.6  T
   6   -360.4974943 -0.112757E-05  0.929E-04    0.29       7.4  T
   7   -360.4974945 -0.136425E-06  0.418E-04    0.29      16.6  T
   8   -360.4974945 -0.141335E-07  0.293E-04    0.29      23.6  T
     SCC iter.                  ...        0 min,  0.347 sec
     gradient                   ...        0 min,  0.148 sec
 * total energy  :  -355.0498933 Eh     change       -0.6525442E-03 Eh
   gradient norm :     0.0125201 Eh/α   predicted    -0.6768835E-03 (   3.73%)
   displ. norm   :     0.6146130 α      lambda       -0.1094987E-02
   maximum displ.:     0.1847724 α      in ANC's #8, #21, #5, ...

........................................................................
.............................. CYCLE   38 ..............................
........................................................................
   1   -360.5057574 -0.360506E+03  0.834E-02    0.29       0.0  T
   2   -360.5057757 -0.183001E-04  0.432E-02    0.30       1.0  T
   3   -360.5057123  0.634070E-04  0.169E-02    0.28       1.0  T
   4   -360.5057776 -0.653146E-04  0.721E-03    0.30       1.0  T
   5   -360.5057835 -0.589682E-05  0.394E-03    0.29       1.8  T
   6   -360.5057866 -0.305869E-05  0.123E-03    0.29       5.6  T
   7   -360.5057869 -0.321681E-06  0.547E-04    0.29      12.6  T
   8   -360.5057869 -0.368326E-07  0.337E-04    0.29      20.6  T
     SCC iter.                  ...        0 min,  0.351 sec
     gradient                   ...        0 min,  0.148 sec
 * total energy  :  -355.0505659 Eh     change       -0.6725822E-03 Eh
   gradient norm :     0.0132865 Eh/α   predicted    -0.7543129E-03 (  12.15%)
   displ. norm   :     0.7110558 α      lambda       -0.9087271E-03
   maximum displ.:     0.2225874 α      in ANC's #8, #5, #21, ...

........................................................................
.............................. CYCLE   39 ..............................
........................................................................
   1   -360.5049723 -0.360505E+03  0.896E-02    0.29       0.0  T
   2   -360.5049959 -0.235161E-04  0.448E-02    0.29       1.0  T
   3   -360.5049781  0.177891E-04  0.126E-02    0.29       1.0  T
   4   -360.5049969 -0.188639E-04  0.682E-03    0.29       1.0  T
   5   -360.5050013 -0.440533E-05  0.313E-03    0.29       2.2  T
   6   -360.5050028 -0.149345E-05  0.122E-03    0.29       5.7  T
   7   -360.5050031 -0.302347E-06  0.495E-04    0.29      14.0  T
   8   -360.5050032 -0.363622E-07  0.291E-04    0.29      23.8  T
     SCC iter.                  ...        0 min,  0.357 sec
     gradient                   ...        0 min,  0.148 sec
 * total energy  :  -355.0511157 Eh     change       -0.5497472E-03 Eh
   gradient norm :     0.0147250 Eh/α   predicted    -0.6840961E-03 (  24.44%)
   displ. norm   :     0.5410940 α      lambda       -0.1144393E-02
   maximum displ.:     0.1610190 α      in ANC's #8, #21, #13, ...

........................................................................
.............................. CYCLE   40 ..............................
........................................................................
   1   -360.5147431 -0.360515E+03  0.767E-02    0.29       0.0  T
   2   -360.5147620 -0.188640E-04  0.392E-02    0.29       1.0  T
   3   -360.5147361  0.259218E-04  0.128E-02    0.30       1.0  T
   4   -360.5147615 -0.254705E-04  0.675E-03    0.29       1.0  T
   5   -360.5147672 -0.566153E-05  0.324E-03    0.30       2.1  T
   6   -360.5147686 -0.143374E-05  0.139E-03    0.29       5.0  T
   7   -360.5147691 -0.445958E-06  0.543E-04    0.29      12.7  T
   8   -360.5147691 -0.424540E-07  0.308E-04    0.29      22.5  T
     SCC iter.                  ...        0 min,  0.354 sec
     gradient                   ...        0 min,  0.147 sec
 * total energy  :  -355.0514771 Eh     change       -0.3614001E-03 Eh
   gradient norm :     0.0191318 Eh/α   predicted    -0.7397265E-03 ( 104.68%)
   displ. norm   :     0.4953243 α      lambda       -0.1279125E-02
   maximum displ.:     0.1490875 α      in ANC's #8, #5, #21, ...

........................................................................
.............................. CYCLE   41 ..............................
........................................................................
   1   -360.5089687 -0.360509E+03  0.618E-02    0.29       0.0  T
   2   -360.5089868 -0.181238E-04  0.314E-02    0.30       1.0  T
   3   -360.5089792  0.763944E-05  0.942E-03    0.29       1.0  T
   4   -360.5089875 -0.833587E-05  0.504E-03    0.30       1.4  T
   5   -360.5089900 -0.243072E-05  0.243E-03    0.30       2.9  T
   6   -360.5089906 -0.603552E-06  0.120E-03    0.29       5.8  T
   7   -360.5089909 -0.324991E-06  0.404E-04    0.30      17.1  T
   8   -360.5089909 -0.202116E-07  0.251E-04    0.30      27.5  T
     SCC iter.                  ...        0 min,  0.352 sec
     gradient                   ...        0 min,  0.148 sec
 * total energy  :  -355.0520919 Eh     change       -0.6148014E-03 Eh
   gradient norm :     0.0124774 Eh/α   predicted    -0.7964871E-03 (  29.55%)
   displ. norm   :     0.5244243 α      lambda       -0.1047440E-02
   maximum displ.:     0.1509211 α      in ANC's #8, #21, #5, ...

........................................................................
.............................. CYCLE   42 ..............................
........................................................................
   1   -360.5054314 -0.360505E+03  0.727E-02    0.30       0.0  T
   2   -360.5054498 -0.184507E-04  0.363E-02    0.30       1.0  T
   3   -360.5054139  0.359829E-04  0.141E-02    0.29       1.0  T
   4   -360.5054512 -0.373606E-04  0.657E-03    0.30       1.1  T
   5   -360.5054561 -0.489969E-05  0.349E-03    0.30       2.0  T
   6   -360.5054576 -0.147503E-05  0.148E-03    0.30       4.7  T
   7   -360.5054581 -0.496393E-06  0.491E-04    0.30      14.1  T
   8   -360.5054581 -0.344896E-07  0.290E-04    0.30      23.9  T
     SCC iter.                  ...        0 min,  0.351 sec
     gradient                   ...        0 min,  0.148 sec
 * total energy  :  -355.0524853 Eh     change       -0.3933855E-03 Eh
   gradient norm :     0.0172500 Eh/α   predicted    -0.6677589E-03 (  69.75%)
   displ. norm   :     0.4140411 α      lambda       -0.1154860E-02
   maximum displ.:     0.1187927 α      in ANC's #13, #21, #8, ...
 * RMSD in coord.:     0.8414454 α      energy gain  -0.1317421E-01 Eh

generating ANC from model Hessian ...
Using Lindh-Hessian (1995)
 Shifting diagonal of input Hessian by   1.028352486501354E-002
 Lowest  eigenvalues of input Hessian
    0.010000    0.010264    0.010276    0.010280    0.000000    0.000000
    0.000000    0.000000    0.000000    0.000000    0.010298    0.010305
    0.010331    0.010344    0.010362    0.010387    0.010388    0.010400
 Highest eigenvalues
    2.301671    2.304748    2.594817    2.601430    2.658634    2.662754
 

........................................................................
.............................. CYCLE   43 ..............................
........................................................................
   1   -360.5192218 -0.360519E+03  0.626E-02    0.30       0.0  T
   2   -360.5192364 -0.145213E-04  0.318E-02    0.30       1.0  T
   3   -360.5191883  0.480437E-04  0.150E-02    0.29       1.0  T
   4   -360.5192374 -0.491048E-04  0.652E-03    0.31       1.1  T
   5   -360.5192437 -0.623551E-05  0.330E-03    0.30       2.1  T
   6   -360.5192447 -0.106891E-05  0.143E-03    0.30       4.8  T
   7   -360.5192451 -0.398397E-06  0.474E-04    0.30      14.6  T
   8   -360.5192451 -0.199483E-07  0.321E-04    0.30      21.5  T
     SCC iter.                  ...        0 min,  0.351 sec
     gradient                   ...        0 min,  0.147 sec
 * total energy  :  -355.0529798 Eh     change       -0.4945131E-03 Eh
   gradient norm :     0.0165334 Eh/α   predicted     0.0000000E+00 (-100.00%)
   displ. norm   :     0.1419376 α      lambda       -0.7451670E-03
   maximum displ.:     0.0357915 α      in ANC's #49, #32, #52, ...

........................................................................
.............................. CYCLE   44 ..............................
........................................................................
   1   -360.5160026 -0.360516E+03  0.453E-02    0.30       0.0  T
   2   -360.5160091 -0.646920E-05  0.241E-02    0.30       1.0  T
   3   -360.5159972  0.118691E-04  0.789E-03    0.30       1.0  T
   4   -360.5160101 -0.128426E-04  0.332E-03    0.30       2.1  T
   5   -360.5160116 -0.149133E-05  0.155E-03    0.30       4.5  T
   6   -360.5160118 -0.210235E-06  0.773E-04    0.30       9.0  T
   7   -360.5160119 -0.116273E-06  0.270E-04    0.30      25.6  T
     SCC iter.                  ...        0 min,  0.312 sec
     gradient                   ...        0 min,  0.148 sec
 * total energy  :  -355.0534822 Eh     change       -0.5023828E-03 Eh
   gradient norm :     0.0061830 Eh/α   predicted    -0.3800936E-03 ( -24.34%)
   displ. norm   :     0.3442045 α      lambda       -0.9847836E-03
   maximum displ.:     0.0839063 α      in ANC's #52, #49, #64, ...

........................................................................
.............................. CYCLE   45 ..............................
........................................................................
   1   -360.5094807 -0.360509E+03  0.121E-01    0.29       0.0  T
   2   -360.5095177 -0.369858E-04  0.644E-02    0.30       1.0  T
   3   -360.5094507  0.670177E-04  0.193E-02    0.29       1.0  T
   4   -360.5095268 -0.760626E-04  0.725E-03    0.30       1.0  T
   5   -360.5095317 -0.492561E-05  0.389E-03    0.30       1.8  T
   6   -360.5095343 -0.265650E-05  0.179E-03    0.30       3.9  T
   7   -360.5095352 -0.848720E-06  0.590E-04    0.30      11.7  T
   8   -360.5095352 -0.278531E-07  0.365E-04    0.30      19.0  T
     SCC iter.                  ...        0 min,  0.349 sec
     gradient                   ...        0 min,  0.146 sec
 * total energy  :  -355.0533543 Eh     change        0.1278615E-03 Eh
   gradient norm :     0.0183243 Eh/α   predicted    -0.5507289E-03 (-530.72%)
   displ. norm   :     0.1671027 α      lambda       -0.1298905E-02
   maximum displ.:     0.0564029 α      in ANC's #32, #49, #82, ...

........................................................................
.............................. CYCLE   46 ..............................
........................................................................
   1   -360.5126963 -0.360513E+03  0.947E-02    0.30       0.0  T
   2   -360.5127158 -0.194585E-04  0.520E-02    0.29       1.0  T
   3   -360.5127039  0.119154E-04  0.911E-03    0.30       1.0  T
   4   -360.5127227 -0.188164E-04  0.324E-03    0.29       2.1  T
   5   -360.5127234 -0.744354E-06  0.186E-03    0.30       3.7  T
   6   -360.5127243 -0.813280E-06  0.629E-04    0.29      11.0  T
   7   -360.5127243 -0.675303E-07  0.332E-04    0.29      20.8  T
     SCC iter.                  ...        0 min,  0.306 sec
     gradient                   ...        0 min,  0.146 sec
 * total energy  :  -355.0541012 Eh     change       -0.7468679E-03 Eh
   gradient norm :     0.0109698 Eh/α   predicted    -0.6675889E-03 ( -10.61%)
   displ. norm   :     0.2216481 α      lambda       -0.5345963E-03
   maximum displ.:     0.0645447 α      in ANC's #49, #52, #32, ...

........................................................................
.............................. CYCLE   47 ..............................
........................................................................
   1   -360.5131218 -0.360513E+03  0.642E-02    0.29       0.0  T
   2   -360.5131317 -0.989060E-05  0.338E-02    0.29       1.0  T
   3   -360.5131116  0.201221E-04  0.100E-02    0.30       1.0  T
   4   -360.5131344 -0.227918E-04  0.401E-03    0.29       1.7  T
   5   -360.5131360 -0.159768E-05  0.202E-03    0.29       3.4  T
   6   -360.5131367 -0.729805E-06  0.549E-04    0.29      12.6  T
   7   -360.5131367 -0.520010E-07  0.269E-04    0.29      25.7  T
     SCC iter.                  ...        0 min,  0.308 sec
     gradient                   ...        0 min,  0.146 sec
 * total energy  :  -355.0544569 Eh     change       -0.3557599E-03 Eh
   gradient norm :     0.0076821 Eh/α   predicted    -0.2804329E-03 ( -21.17%)
   displ. norm   :     0.5298762 α      lambda       -0.8854460E-03
   maximum displ.:     0.1607071 α      in ANC's #49, #52, #32, ...

........................................................................
.............................. CYCLE   48 ..............................
........................................................................
   1   -360.5123059 -0.360512E+03  0.110E-01    0.29       0.0  T
   2   -360.5123371 -0.312511E-04  0.541E-02    0.29       1.0  T
   3   -360.5123106  0.265345E-04  0.145E-02    0.29       1.0  T
   4   -360.5123424 -0.318312E-04  0.731E-03    0.29       1.0  T
   5   -360.5123454 -0.295718E-05  0.367E-03    0.29       1.9  T
   6   -360.5123481 -0.274772E-05  0.127E-03    0.29       5.5  T
   7   -360.5123486 -0.411224E-06  0.482E-04    0.29      14.3  T
   8   -360.5123486 -0.437569E-07  0.235E-04    0.29      29.4  T
     SCC iter.                  ...        0 min,  0.347 sec
     gradient                   ...        0 min,  0.146 sec
 * total energy  :  -355.0551483 Eh     change       -0.6913986E-03 Eh
   gradient norm :     0.0114974 Eh/α   predicted    -0.5670267E-03 ( -17.99%)
   displ. norm   :     0.6690711 α      lambda       -0.1057235E-02
   maximum displ.:     0.2017575 α      in ANC's #49, #52, #64, ...

........................................................................
.............................. CYCLE   49 ..............................
........................................................................
   1   -360.5117061 -0.360512E+03  0.126E-01    0.29       0.0  T
   2   -360.5117490 -0.429585E-04  0.611E-02    0.29       1.0  T
   3   -360.5116887  0.603481E-04  0.192E-02    0.29       1.0  T
   4   -360.5117570 -0.683373E-04  0.901E-03    0.30       1.0  T
   5   -360.5117599 -0.290439E-05  0.543E-03    0.29       1.3  T
   6   -360.5117665 -0.662682E-05  0.152E-03    0.29       4.5  T
   7   -360.5117672 -0.601714E-06  0.570E-04    0.29      12.1  T
   8   -360.5117672 -0.549647E-07  0.295E-04    0.29      23.4  T
     SCC iter.                  ...        0 min,  0.351 sec
     gradient                   ...        0 min,  0.147 sec
 * total energy  :  -355.0559297 Eh     change       -0.7813456E-03 Eh
   gradient norm :     0.0138747 Eh/α   predicted    -0.7652680E-03 (  -2.06%)
   displ. norm   :     0.5404533 α      lambda       -0.1046800E-02
   maximum displ.:     0.1504147 α      in ANC's #49, #5, #23, ...

........................................................................
.............................. CYCLE   50 ..............................
........................................................................
   1   -360.5182570 -0.360518E+03  0.980E-02    0.29       0.0  T
   2   -360.5182841 -0.271003E-04  0.488E-02    0.30       1.0  T
   3   -360.5182360  0.481223E-04  0.165E-02    0.29       1.0  T
   4   -360.5182904 -0.544372E-04  0.718E-03    0.30       1.0  T
   5   -360.5182926 -0.221103E-05  0.447E-03    0.29       1.5  T
   6   -360.5182970 -0.438321E-05  0.113E-03    0.30       6.1  T
   7   -360.5182973 -0.263354E-06  0.560E-04    0.30      12.4  T
   8   -360.5182973 -0.562758E-07  0.290E-04    0.30      23.9  T
     SCC iter.                  ...        0 min,  0.353 sec
     gradient                   ...        0 min,  0.147 sec
 * total energy  :  -355.0566464 Eh     change       -0.7167408E-03 Eh
   gradient norm :     0.0156276 Eh/α   predicted    -0.6762825E-03 (  -5.64%)
   displ. norm   :     0.6712086 α      lambda       -0.9425640E-03
   maximum displ.:     0.1907823 α      in ANC's #49, #5, #52, ...

........................................................................
.............................. CYCLE   51 ..............................
........................................................................
   1   -360.5106938 -0.360511E+03  0.115E-01    0.29       0.0  T
   2   -360.5107330 -0.391852E-04  0.563E-02    0.29       1.0  T
   3   -360.5106971  0.359236E-04  0.162E-02    0.29       1.0  T
   4   -360.5107374 -0.403274E-04  0.833E-03    0.30       1.0  T
   5   -360.5107420 -0.458441E-05  0.445E-03    0.29       1.6  T
   6   -360.5107458 -0.381901E-05  0.155E-03    0.30       4.5  T
   7   -360.5107464 -0.636055E-06  0.547E-04    0.29      12.7  T
   8   -360.5107465 -0.538819E-07  0.289E-04    0.29      23.9  T
     SCC iter.                  ...        0 min,  0.351 sec
     gradient                   ...        0 min,  0.147 sec
 * total energy  :  -355.0572876 Eh     change       -0.6411940E-03 Eh
   gradient norm :     0.0132153 Eh/α   predicted    -0.6836071E-03 (   6.61%)
   displ. norm   :     0.4585003 α      lambda       -0.1179599E-02
   maximum displ.:     0.1189897 α      in ANC's #5, #23, #11, ...

........................................................................
.............................. CYCLE   52 ..............................
........................................................................
   1   -360.5236594 -0.360524E+03  0.865E-02    0.28       0.0  T
   2   -360.5236833 -0.239027E-04  0.449E-02    0.29       1.0  T
   3   -360.5236312  0.520953E-04  0.159E-02    0.28       1.0  T
   4   -360.5236853 -0.541421E-04  0.702E-03    0.29       1.0  T
   5   -360.5236916 -0.624122E-05  0.388E-03    0.29       1.8  T
   6   -360.5236943 -0.276916E-05  0.124E-03    0.29       5.6  T
   7   -360.5236946 -0.294732E-06  0.536E-04    0.29      12.9  T
   8   -360.5236947 -0.302151E-07  0.326E-04    0.29      21.2  T
     SCC iter.                  ...        0 min,  0.355 sec
     gradient                   ...        0 min,  0.147 sec
 * total energy  :  -355.0576331 Eh     change       -0.3455253E-03 Eh
   gradient norm :     0.0235134 Eh/α   predicted    -0.7137905E-03 ( 106.58%)
   displ. norm   :     0.4866547 α      lambda       -0.1068519E-02
   maximum displ.:     0.1293382 α      in ANC's #49, #5, #23, ...

........................................................................
.............................. CYCLE   53 ..............................
........................................................................
   1   -360.5185536 -0.360519E+03  0.942E-02    0.29       0.0  T
   2   -360.5185789 -0.253377E-04  0.467E-02    0.29       1.0  T
   3   -360.5185559  0.230284E-04  0.131E-02    0.29       1.0  T
   4   -360.5185832 -0.273669E-04  0.656E-03    0.29       1.1  T
   5   -360.5185859 -0.265012E-05  0.337E-03    0.29       2.1  T
   6   -360.5185881 -0.224781E-05  0.111E-03    0.29       6.2  T
   7   -360.5185884 -0.293543E-06  0.440E-04    0.29      15.7  T
   8   -360.5185885 -0.265586E-07  0.252E-04    0.29      27.5  T
     SCC iter.                  ...        0 min,  0.352 sec
     gradient                   ...        0 min,  0.147 sec
 * total energy  :  -355.0583479 Eh     change       -0.7147502E-03 Eh
   gradient norm :     0.0107774 Eh/α   predicted    -0.6607938E-03 (  -7.55%)
   displ. norm   :     0.5737306 α      lambda       -0.6025954E-03
   maximum displ.:     0.1554370 α      in ANC's #5, #20, #23, ...

........................................................................
.............................. CYCLE   54 ..............................
........................................................................
   1   -360.5161974 -0.360516E+03  0.952E-02    0.29       0.0  T
   2   -360.5162241 -0.267037E-04  0.463E-02    0.30       1.0  T
   3   -360.5162079  0.162054E-04  0.121E-02    0.30       1.0  T
   4   -360.5162280 -0.200473E-04  0.635E-03    0.30       1.1  T
   5   -360.5162306 -0.265171E-05  0.319E-03    0.29       2.2  T
   6   -360.5162326 -0.200192E-05  0.107E-03    0.30       6.4  T
   7   -360.5162329 -0.250141E-06  0.421E-04    0.30      16.4  T
   8   -360.5162329 -0.280371E-07  0.236E-04    0.30      29.3  T
     SCC iter.                  ...        0 min,  0.355 sec
     gradient                   ...        0 min,  0.148 sec
 * total energy  :  -355.0587811 Eh     change       -0.4332482E-03 Eh
   gradient norm :     0.0099979 Eh/α   predicted    -0.4004829E-03 (  -7.56%)
   displ. norm   :     0.5013529 α      lambda       -0.6739026E-03
   maximum displ.:     0.1477708 α      in ANC's #5, #20, #23, ...

........................................................................
.............................. CYCLE   55 ..............................
........................................................................
   1   -360.5243128 -0.360524E+03  0.776E-02    0.29       0.0  T
   2   -360.5243315 -0.186659E-04  0.382E-02    0.29       1.0  T
   3   -360.5243210  0.104797E-04  0.101E-02    0.29       1.0  T
   4   -360.5243339 -0.128202E-04  0.538E-03    0.30       1.3  T
   5   -360.5243360 -0.218618E-05  0.262E-03    0.29       2.6  T
   6   -360.5243372 -0.118848E-05  0.949E-04    0.30       7.3  T
   7   -360.5243374 -0.196894E-06  0.401E-04    0.29      17.3  T
   8   -360.5243374 -0.252309E-07  0.237E-04    0.30      29.2  T
     SCC iter.                  ...        0 min,  0.352 sec
     gradient                   ...        0 min,  0.147 sec
 * total energy  :  -355.0592490 Eh     change       -0.4678443E-03 Eh
   gradient norm :     0.0138421 Eh/α   predicted    -0.4216512E-03 (  -9.87%)
   displ. norm   :     0.6610171 α      lambda       -0.8218369E-03
   maximum displ.:     0.1924311 α      in ANC's #5, #20, #22, ...

........................................................................
.............................. CYCLE   56 ..............................
........................................................................
   1   -360.5253323 -0.360525E+03  0.105E-01    0.29       0.0  T
   2   -360.5253670 -0.346840E-04  0.514E-02    0.29       1.0  T
   3   -360.5253459  0.211019E-04  0.139E-02    0.29       1.0  T
   4   -360.5253700 -0.241341E-04  0.759E-03    0.29       1.0  T
   5   -360.5253740 -0.399582E-05  0.400E-03    0.29       1.7  T
   6   -360.5253773 -0.327650E-05  0.141E-03    0.29       4.9  T
   7   -360.5253779 -0.553478E-06  0.455E-04    0.29      15.2  T
   8   -360.5253779 -0.275500E-07  0.265E-04    0.29      26.1  T
     SCC iter.                  ...        0 min,  0.355 sec
[...]
   148   1 H    0.998 --    30 C    0.985
   149   1 H    0.997 --    30 C    0.985
   150   1 H    0.998 --    30 C    0.984
   151   1 H    0.997 --    31 C    0.955
   152   1 H    0.999 --    38 C    0.967
   153   1 H    0.998 --    39 C    0.965
   154   1 H    0.995 --    42 C    0.978
   155   1 H    0.995 --    42 C    0.978
   156   1 H    0.996 --    42 C    0.981
   157   1 H    0.997 --    43 C    0.967
   158   1 H    0.998 --    44 C    0.966
   159   1 H    0.998 --    46 C    0.966
   160   1 H    0.996 --    47 C    0.963
   161   1 H    0.995 --    50 C    0.978
   162   1 H    0.996 --    50 C    0.981
   163   1 H    0.996 --    50 C    0.981
   164   1 H    0.997 --    51 C    0.963
   165   1 H    0.999 --    52 C    0.967
   166   1 H    0.999 --    59 C    0.967
   167   1 H    0.998 --    60 C    0.965
   168   1 H    0.996 --    63 C    0.979
   169   1 H    0.996 --    63 C    0.982
   170   1 H    0.997 --    63 C    0.982
   171   1 H    0.997 --    64 C    0.967
   172   1 H    0.998 --    65 C    0.965
   173   1 H    0.999 --    67 C    0.967
   174   1 H    0.998 --    68 C    0.965
   175   1 H    0.997 --    71 C    0.982
   176   1 H    0.995 --    71 C    0.978
   177   1 H    0.995 --    71 C    0.975
   178   1 H    0.997 --    72 C    0.967
   179   1 H    0.999 --    73 C    0.963
   180   1 H    0.999 --    80 C    0.964
   181   1 H    0.998 --    81 C    0.966
   182   1 H    0.997 --    84 C    0.984
   183   1 H    0.997 --    84 C    0.984
   184   1 H    0.996 --    84 C    0.980
   185   1 H    0.997 --    85 C    0.967
   186   1 H    0.998 --    86 C    0.964
   187   1 H    0.998 --    88 C    0.961
   188   1 H    0.997 --    89 C    0.965
   189   1 H    0.995 --    92 C    0.974
   190   1 H    0.996 --    92 C    0.978
   191   1 H    0.996 --    92 C    0.982
   192   1 H    0.997 --    93 C    0.961
   193   1 H    0.999 --    94 C    0.964
   194   1 H    0.998 --   101 C    0.966
   195   1 H    0.996 --   102 C    0.967
   196   1 H    0.995 --   105 C    0.979
   197   1 H    0.994 --   105 C    0.979
   198   1 H    0.996 --   105 C    0.983
   199   1 H    0.997 --   106 C    0.965
   200   1 H    0.998 --   107 C    0.967
   201   1 H    0.998 --   109 C    0.967
   202   1 H    0.998 --   110 C    0.965
   203   1 H    0.996 --   113 C    0.982
   204   1 H    0.996 --   113 C    0.982
   205   1 H    0.995 --   113 C    0.978
   206   1 H    0.995 --   114 C    0.960
   207   1 H    0.995 --   115 C    0.959
   208   1 H    0.991 --   118 C    0.929
   209   1 H    0.994 --   126 C    0.956
 ---------------------------------------------------------------------------

Topologies differ in bond orders
Writing corrected topology to xtbtopo.mol

molecular dipole:
                 x           y           z       tot (Debye)
 q only:        1.138      -3.688      -0.432
   full:        1.708      -5.324      -1.120      14.494
molecular quadrupole (traceless):
                xx          xy          yy          xz          yz          zz
 q only:       36.621       7.014      35.219      61.805     -35.870     -71.839
  q+dip:       47.102     -10.532      26.571      37.701     -48.852     -73.673
   full:       47.875      -8.054      24.285      38.791     -50.317     -72.160

           -------------------------------------------------
          |                Geometry Summary                 |
           -------------------------------------------------

      molecular mass/u    :     2154.6268561
   center of mass at/Å    :        0.2804763       1.0067317       0.0260490
  moments of inertia/u·Å² :        0.4205481E+05   0.1511870E+06   0.1612014E+06
rotational constants/cm⁻¹ :        0.4008491E-03   0.1115019E-03   0.1045750E-03

 * 192 selected distances

     #   Z          #   Z                                           value/Å
     1   6 C        2   6 C                                       1.3678030
     3   6 C        4   8 O                                       1.2110469
     5   6 C        6  16 S                                       1.7110208
     6  16 S        7   6 C                                       1.7398526
     7   6 C        8  35 Br                                      1.8731181 (max)
     7   6 C        9   6 C                                       1.3677373
     5   6 C       10   6 C                                       1.3882372
     9   6 C       10   6 C                                       1.4049974
    11   6 C       12   6 C                                       1.3731091
    13   6 C       14   7 N                                       1.1475237
    15   6 C       16   7 N                                       1.1491400
     1   6 C       17   6 C                                       1.4056954
    17   6 C       18   6 C                                       1.4023657
    19   6 C       20   6 C                                       1.5319870
    18   6 C       21   6 C                                       1.3923294
    21   6 C       22   6 C                                       1.4031125
    22   6 C       23  16 S                                       1.7042553
    22   6 C       24   6 C                                       1.4034813
    24   6 C       25   6 C                                       1.3931546
    27   6 C       28   6 C                                       1.5238040
    29   6 C       30   6 C                                       1.5237002
    25   6 C       31   6 C                                       1.3875447
    31   6 C       32   6 C                                       1.3883170
    24   6 C       33  16 S                                       1.7153124
    32   6 C       33  16 S                                       1.7510037
    32   6 C       34   6 C                                       1.4196518
    34   6 C       35   6 C                                       1.3927557
    35   6 C       36   7 N                                       1.3803944
    36   7 N       37   6 C                                       1.3987247
    37   6 C       38   6 C                                       1.3925483
    38   6 C       39   6 C                                       1.3812382
    39   6 C       40   6 C                                       1.3890323
    40   6 C       43   6 C                                       1.3955092
    37   6 C       44   6 C                                       1.3970995
    43   6 C       44   6 C                                       1.3747286
    36   7 N       45   6 C                                       1.4093272
    45   6 C       46   6 C                                       1.3942282
    46   6 C       47   6 C                                       1.3768018
    47   6 C       48   6 C                                       1.3932617
    48   6 C       51   6 C                                       1.3885808
    45   6 C       52   6 C                                       1.3931666
    51   6 C       52   6 C                                       1.3805831
    35   6 C       53   6 C                                       1.4193108
    53   6 C       54  16 S                                       1.7244943
    54  16 S       55   6 C                                       1.7630337
    55   6 C       56   6 C                                       1.3785329
    56   6 C       57   7 N                                       1.4010118
    57   7 N       58   6 C                                       1.4045655
    58   6 C       59   6 C                                       1.3933433
    59   6 C       60   6 C                                       1.3813481
    60   6 C       61   6 C                                       1.3872666
    61   6 C       64   6 C                                       1.3937774
    58   6 C       65   6 C                                       1.3953577
    64   6 C       65   6 C                                       1.3762207
    57   7 N       66   6 C                                       1.4004667
    66   6 C       67   6 C                                       1.3922965
    67   6 C       68   6 C                                       1.3803155
    68   6 C       69   6 C                                       1.3882646
    69   6 C       72   6 C                                       1.3925806
    66   6 C       73   6 C                                       1.3932614
    72   6 C       73   6 C                                       1.3764649
    53   6 C       74   6 C                                       1.3824233
    56   6 C       74   6 C                                       1.4198530
    74   6 C       75  16 S                                       1.7260954
    55   6 C       76   6 C                                       1.4364299
    76   6 C       77   6 C                                       1.3750857
    77   6 C       78   7 N                                       1.4125124
    78   7 N       79   6 C                                       1.3913445
    79   6 C       80   6 C                                       1.3948246
    80   6 C       81   6 C                                       1.3801164
    81   6 C       82   6 C                                       1.3855999
    82   6 C       85   6 C                                       1.3908256
    79   6 C       86   6 C                                       1.3961544
    85   6 C       86   6 C                                       1.3767661
    78   7 N       87   6 C                                       1.4258118
    87   6 C       88   6 C                                       1.3910248
    88   6 C       89   6 C                                       1.3769781
    89   6 C       90   6 C                                       1.3929753
    90   6 C       93   6 C                                       1.3877711
    87   6 C       94   6 C                                       1.3900399
    93   6 C       94   6 C                                       1.3819162
    77   6 C       95   6 C                                       1.4157127
    95   6 C       96  16 S                                       1.7231122
    97   6 C       98   6 C                                       1.4073760
    98   6 C       99   7 N                                       1.3666926
    99   7 N      100   6 C                                       1.3989059
   100   6 C      101   6 C                                       1.3951959
   101   6 C      102   6 C                                       1.3770969
   102   6 C      103   6 C                                       1.3934893
   103   6 C      106   6 C                                       1.3899964
   100   6 C      107   6 C                                       1.3949082
   106   6 C      107   6 C                                       1.3796841
    99   7 N      108   6 C                                       1.4121441
   108   6 C      109   6 C                                       1.3892801
   109   6 C      110   6 C                                       1.3817172
   110   6 C      111   6 C                                       1.3893252
   111   6 C      114   6 C                                       1.3951983
   108   6 C      115   6 C                                       1.3958636
   114   6 C      115   6 C                                       1.3759850
    95   6 C      116   6 C                                       1.3834316
    98   6 C      116   6 C                                       1.4147841
    76   6 C      117  16 S                                       1.7604675
   116   6 C      117  16 S                                       1.7268261
    97   6 C      118   6 C                                       1.4004901
   118   6 C      119   6 C                                       1.3713344
   120   6 C      121   8 O                                       1.2136859
   122   6 C      123  16 S                                       1.7106285
   123  16 S      124   6 C                                       1.7392528
   124   6 C      125  35 Br                                      1.8730660
   124   6 C      126   6 C                                       1.3684749
   122   6 C      127   6 C                                       1.3884186
   126   6 C      127   6 C                                       1.4043608
   119   6 C      128   6 C                                       1.4389798
   128   6 C      129   6 C                                       1.3754157
   130   6 C      131   7 N                                       1.1496680
   132   6 C      133   7 N                                       1.1491368
     1   6 C      134   1 H                                       1.0845785
     9   6 C      135   1 H                                       1.0743265 (min)
    19   6 C      136   1 H                                       1.0890317
    19   6 C      137   1 H                                       1.0908368
    20   6 C      138   1 H                                       1.0874988
    20   6 C      139   1 H                                       1.0873857
    20   6 C      140   1 H                                       1.0868510
    27   6 C      141   1 H                                       1.0928847
    27   6 C      142   1 H                                       1.0919046
    28   6 C      143   1 H                                       1.0883276
    28   6 C      144   1 H                                       1.0834734
    28   6 C      145   1 H                                       1.0863553
    29   6 C      146   1 H                                       1.0928118
    29   6 C      147   1 H                                       1.0895662
    30   6 C      148   1 H                                       1.0863849
    30   6 C      149   1 H                                       1.0879762
    30   6 C      150   1 H                                       1.0864720
    31   6 C      151   1 H                                       1.0753765
    38   6 C      152   1 H                                       1.0803877
    39   6 C      153   1 H                                       1.0779663
    42   6 C      154   1 H                                       1.0855561
    42   6 C      155   1 H                                       1.0860173
    42   6 C      156   1 H                                       1.0859516
    43   6 C      157   1 H                                       1.0788818
    44   6 C      158   1 H                                       1.0792609
    46   6 C      159   1 H                                       1.0793689
    47   6 C      160   1 H                                       1.0786867
    50   6 C      161   1 H                                       1.0853494
    50   6 C      162   1 H                                       1.0862638
    50   6 C      163   1 H                                       1.0857371
    51   6 C      164   1 H                                       1.0778402
    52   6 C      165   1 H                                       1.0807761
    59   6 C      166   1 H                                       1.0806004
    60   6 C      167   1 H                                       1.0781545
    63   6 C      168   1 H                                       1.0855251
    63   6 C      169   1 H                                       1.0861465
    63   6 C      170   1 H                                       1.0861135
    64   6 C      171   1 H                                       1.0792608
    65   6 C      172   1 H                                       1.0790192
    67   6 C      173   1 H                                       1.0798669
    68   6 C      174   1 H                                       1.0776365
    71   6 C      175   1 H                                       1.0859673
    71   6 C      176   1 H                                       1.0855708
    71   6 C      177   1 H                                       1.0862593
    72   6 C      178   1 H                                       1.0792869
    73   6 C      179   1 H                                       1.0790903
    80   6 C      180   1 H                                       1.0801878
    81   6 C      181   1 H                                       1.0787291
    84   6 C      182   1 H                                       1.0857539
    84   6 C      183   1 H                                       1.0864410
    84   6 C      184   1 H                                       1.0855333
    85   6 C      185   1 H                                       1.0791410
    86   6 C      186   1 H                                       1.0782847
    88   6 C      187   1 H                                       1.0777082
    89   6 C      188   1 H                                       1.0789263
    92   6 C      189   1 H                                       1.0861965
    92   6 C      190   1 H                                       1.0856868
    92   6 C      191   1 H                                       1.0860914
    93   6 C      192   1 H                                       1.0772904
    94   6 C      193   1 H                                       1.0807153
   101   6 C      194   1 H                                       1.0794262
   102   6 C      195   1 H                                       1.0787056
   105   6 C      196   1 H                                       1.0853574
   105   6 C      197   1 H                                       1.0862668
   105   6 C      198   1 H                                       1.0862572
   106   6 C      199   1 H                                       1.0779667
   107   6 C      200   1 H                                       1.0805539
   109   6 C      201   1 H                                       1.0802027
   110   6 C      202   1 H                                       1.0778031
   113   6 C      203   1 H                                       1.0861361
   113   6 C      204   1 H                                       1.0859365
   113   6 C      205   1 H                                       1.0855906
   114   6 C      206   1 H                                       1.0784517
   115   6 C      207   1 H                                       1.0800148
   118   6 C      208   1 H                                       1.0840331
   126   6 C      209   1 H                                       1.0743702

 * 6 distinct bonds (by element types)

   Z      Z             #   av. dist./Å        max./Å        min./Å
   1 H    6 C          76     1.0830571     1.0928847     1.0743265
   6 C    6 C          83     1.3959061     1.5319870     1.3677373
   6 C    7 N          16     1.3373356     1.4258118     1.1475237
   6 C    8 O           2     1.2123664     1.2136859     1.2110469
   6 C   16 S          13     1.7304119     1.7630337     1.7042553
   6 C   35 Br          2     1.8730920     1.8731181     1.8730660


optimized geometry written to: xtbopt.mol


           -------------------------------------------------
          | TOTAL ENERGY             -355.101413143514 Eh   |
          | GRADIENT NORM               0.000437823082 Eh/α |
          | HOMO-LUMO GAP               0.377273528887 eV   |
           -------------------------------------------------

------------------------------------------------------------------------
 * finished run on 2022/02/09 at 09:06:57.093     
------------------------------------------------------------------------
 total:
 * wall-time:     0 d,  0 h,  2 min, 39.978 sec
 *  cpu-time:     0 d,  0 h, 21 min, 19.624 sec
 * ratio c/w:     7.999 speedup
 SCF:
 * wall-time:     0 d,  0 h,  0 min,  0.961 sec
 *  cpu-time:     0 d,  0 h,  0 min,  7.671 sec
 * ratio c/w:     7.981 speedup
 ANC optimizer:
 * wall-time:     0 d,  0 h,  2 min, 38.896 sec
 *  cpu-time:     0 d,  0 h, 21 min, 11.087 sec
 * ratio c/w:     7.999 speedup

