      -----------------------------------------------------------      
     |                   =====================                   |     
     |                           x T B                           |     
     |                   =====================                   |     
     |                         S. Grimme                         |     
     |          Mulliken Center for Theoretical Chemistry        |     
     |                    University of Bonn                     |     
      -----------------------------------------------------------      

   * xtb version 6.4.1 (unknown) compiled by 'oda6@login1.crc.pitt.edu' on 2021-06-25

   xtb is free software: you can redistribute it and/or modify it under
   the terms of the GNU Lesser General Public License as published by
   the Free Software Foundation, either version 3 of the License, or
   (at your option) any later version.
   
   xtb is distributed in the hope that it will be useful,
   but WITHOUT ANY WARRANTY; without even the implied warranty of
   MERCHANTABILITY or FITNESS FOR A PARTICULAR PURPOSE.  See the
   GNU Lesser General Public License for more details.
   
   Cite this work as:
   * C. Bannwarth, E. Caldeweyher, S. Ehlert, A. Hansen, P. Pracht,
     J. Seibert, S. Spicher, S. Grimme, WIREs Comput. Mol. Sci., 2020, 11,
     e01493. DOI: 10.1002/wcms.1493
   
   for GFN2-xTB:
   * C. Bannwarth, S. Ehlert and S. Grimme., J. Chem. Theory Comput., 2019,
     15, 1652-1671. DOI: 10.1021/acs.jctc.8b01176
   for GFN1-xTB:
   * S. Grimme, C. Bannwarth, P. Shushkov, J. Chem. Theory Comput., 2017,
     13, 1989-2009. DOI: 10.1021/acs.jctc.7b00118
   for GFN0-xTB:
   * P. Pracht, E. Caldeweyher, S. Ehlert, S. Grimme, ChemRxiv, 2019, preprint.
     DOI: 10.26434/chemrxiv.8326202.v1
   for GFN-FF:
   * S. Spicher and S. Grimme, Angew. Chem. Int. Ed., 2020, 59, 15665-15673.
     DOI: 10.1002/anie.202004239
   
   for DFT-D4:
   * E. Caldeweyher, C. Bannwarth and S. Grimme, J. Chem. Phys., 2017,
     147, 034112. DOI: 10.1063/1.4993215
   * E. Caldeweyher, S. Ehlert, A. Hansen, H. Neugebauer, S. Spicher,
     C. Bannwarth and S. Grimme, J. Chem. Phys., 2019, 150, 154122.
     DOI: 10.1063/1.5090222
   * E. Caldeweyher, J.-M. Mewes, S. Ehlert and S. Grimme, Phys. Chem. Chem. Phys.
     2020, 22, 8499-8512. DOI: 10.1039/D0CP00502A
   
   for sTDA-xTB:
   * S. Grimme and C. Bannwarth, J. Chem. Phys., 2016, 145, 054103.
     DOI: 10.1063/1.4959605
   
   in the mass-spec context:
   * V. Asgeirsson, C. Bauer and S. Grimme, Chem. Sci., 2017, 8, 4879.
     DOI: 10.1039/c7sc00601b
   * J. Koopman and S. Grimme, ACS Omega 2019, 4, 12, 15120-15133.
     DOI: 10.1021/acsomega.9b02011
   
   for metadynamics refer to:
   * S. Grimme, J. Chem. Theory Comput., 2019, 155, 2847-2862
     DOI: 10.1021/acs.jctc.9b00143
   
   for SPH calculations refer to:
   * S. Spicher and S. Grimme, J. Chem. Theory Comput., 2021, 17, 1701-1714
     DOI: 10.1021/acs.jctc.0c01306
   
   with help from (in alphabetical order)
   P. Atkinson, C. Bannwarth, F. Bohle, G. Brandenburg, E. Caldeweyher
   M. Checinski, S. Dohm, S. Ehlert, S. Ehrlich, I. Gerasimov, J. Koopman
   C. Lavigne, S. Lehtola, F. März, M. Müller, F. Musil, H. Neugebauer
   J. Pisarek, C. Plett, P. Pracht, J. Seibert, P. Shushkov, S. Spicher
   M. Stahn, M. Steiner, T. Strunk, J. Stückrath, T. Rose, and J. Unsleber
   
 * started run on 2022/02/14 at 10:36:55.331     

           -------------------------------------------------
          |                Calculation Setup                |
           -------------------------------------------------

          program call               : /ihome/ghutchison/oda6/xtb/xtb-641/bin/xtb ../../FF_optimized/29_130_130_6_29.mol -opt
          hostname                   : smp-n25
          coordinate file            : ../../FF_optimized/29_130_130_6_29.mol
          omp threads                :                     8
          number of atoms            :                   208
          number of electrons        :                   654
          charge                     :                     0
          spin                       :                   0.0
          first test random number   :      0.66975604087546

   ID    Z sym.   atoms
    1    6 C      1-3, 5-9, 11-15, 17, 19, 20, 22-25, 27-33, 35-38, 40, 41,
                  43-46, 48-54, 56-59, 61, 62, 64-67, 69-75, 77-80, 82, 83,
                  85-88, 90-96, 98-101, 103, 105-107, 109-114, 116-118,
                  120-124, 126-130, 132
    2    8 O      4, 119
    3    9 F      10, 125
    4    7 N      16, 18, 21, 42, 63, 84, 108, 131, 133
    5   16 S      26, 34, 39, 47, 55, 60, 68, 76, 81, 89, 97, 102, 104, 115
    6    1 H      134-208
########################################################################
[WARNING] Please study the warnings concerning your input carefully
-1- prog_main_parseArguments: the use of '-opt' is discouraged, please use '--opt' next time
########################################################################

           -------------------------------------------------
          |                 G F N 2 - x T B                 |
           -------------------------------------------------

        Reference                      10.1021/acs.jctc.8b01176
      * Hamiltonian:
        H0-scaling (s, p, d)           1.850000    2.230000    2.230000
        zeta-weighting                 0.500000
      * Dispersion:
        s8                             2.700000
        a1                             0.520000
        a2                             5.000000
        s9                             5.000000
      * Repulsion:
        kExp                           1.500000    1.000000
        rExp                           1.000000
      * Coulomb:
        alpha                          2.000000
        third order                    shell-resolved
        anisotropic                    true
        a3                             3.000000
        a5                             4.000000
        cn-shift                       1.200000
        cn-exp                         4.000000
        max-rad                        5.000000


          ...................................................
          :                      SETUP                      :
          :.................................................:
          :  # basis functions                 691          :
          :  # atomic orbitals                 677          :
          :  # shells                          355          :
          :  # electrons                       654          :
          :  max. iterations                   250          :
          :  Hamiltonian                  GFN2-xTB          :
          :  restarted?                      false          :
          :  GBSA solvation                  false          :
          :  PC potential                    false          :
          :  electronic temp.          300.0000000     K    :
          :  accuracy                    1.0000000          :
          :  -> integral cutoff          0.2500000E+02      :
          :  -> integral neglect         0.1000000E-07      :
          :  -> SCF convergence          0.1000000E-05 Eh   :
          :  -> wf. convergence          0.1000000E-03 e    :
          :  Broyden damping             0.4000000          :
          ...................................................

 iter      E             dE          RMSdq      gap      omega  full diag
   1   -358.8165398 -0.358817E+03  0.499E+00    1.20       0.0  T
   2   -359.0352294 -0.218690E+00  0.296E+00    1.17       1.0  T
   3   -358.4972741  0.537955E+00  0.208E+00    0.22       1.0  T
   4   -359.1520968 -0.654823E+00  0.740E-01    0.57       1.0  T
   5   -359.2306332 -0.785364E-01  0.260E-01    0.39       1.0  T
   6   -359.2324848 -0.185167E-02  0.142E-01    0.47       1.0  T
   7   -359.2350064 -0.252155E-02  0.684E-02    0.43       1.0  T
   8   -359.2357869 -0.780492E-03  0.270E-02    0.44       1.0  T
   9   -359.2358444 -0.575130E-04  0.156E-02    0.44       1.0  T
  10   -359.2358596 -0.152102E-04  0.858E-03    0.44       1.0  T
  11   -359.2358678 -0.816023E-05  0.283E-03    0.44       2.4  T
  12   -359.2358686 -0.829060E-06  0.147E-03    0.44       4.7  T
  13   -359.2358687 -0.129751E-06  0.804E-04    0.44       8.6  T
  14   -359.2358688 -0.517357E-07  0.397E-04    0.44      17.5  T

   *** convergence criteria satisfied after 14 iterations ***

         #    Occupation            Energy/Eh            Energy/eV
      -------------------------------------------------------------
         1        2.0000           -0.8396442             -22.8479
       ...           ...                  ...                  ...
       321        2.0000           -0.3711932             -10.1007
       322        2.0000           -0.3680880             -10.0162
       323        2.0000           -0.3669633              -9.9856
       324        2.0000           -0.3632976              -9.8858
       325        2.0000           -0.3625587              -9.8657
       326        2.0000           -0.3605286              -9.8105
       327        1.9996           -0.3577091              -9.7338 (HOMO)
       328        0.0004           -0.3414099              -9.2902 (LUMO)
       329        0.0000           -0.3394037              -9.2356
       330        0.0000           -0.3355744              -9.1314
       331                         -0.3283622              -8.9352
       332                         -0.3123251              -8.4988
       ...                                ...                  ...
       677                          1.0806410              29.4057
      -------------------------------------------------------------
                  HL-Gap            0.0162992 Eh            0.4435 eV
             Fermi-level           -0.3495869 Eh           -9.5127 eV

 SCC (total)                   0 d,  0 h,  0 min,  2.224 sec
 SCC setup                      ...        0 min,  0.004 sec (  0.202%)
 Dispersion                     ...        0 min,  0.017 sec (  0.782%)
 classical contributions        ...        0 min,  0.001 sec (  0.040%)
 integral evaluation            ...        0 min,  0.069 sec (  3.087%)
 iterations                     ...        0 min,  1.898 sec ( 85.329%)
 molecular gradient             ...        0 min,  0.228 sec ( 10.267%)
 printout                       ...        0 min,  0.006 sec (  0.288%)

         :::::::::::::::::::::::::::::::::::::::::::::::::::::
         ::                     SUMMARY                     ::
         :::::::::::::::::::::::::::::::::::::::::::::::::::::
         :: total energy            -354.097536391849 Eh    ::
         :: gradient norm              0.418463479453 Eh/a0 ::
         :: HOMO-LUMO gap              0.443524808944 eV    ::
         ::.................................................::
         :: SCC energy              -359.235868783553 Eh    ::
         :: -> isotropic ES            0.149064131497 Eh    ::
         :: -> anisotropic ES          0.031431870261 Eh    ::
         :: -> anisotropic XC          0.232189311888 Eh    ::
         :: -> dispersion             -0.346807509470 Eh    ::
         :: repulsion energy           5.124249111852 Eh    ::
         :: add. restraining           0.000000000000 Eh    ::
         :: total charge              -0.000000000000 e     ::
         :::::::::::::::::::::::::::::::::::::::::::::::::::::

      ----------------------------------------------------------- 
     |                   =====================                   |
     |                        A N C O P T                        |
     |                   =====================                   |
     |               Approximate Normal Coordinate               |
     |                Rational Function Optimizer                |
      ----------------------------------------------------------- 

          ...................................................
          :                      SETUP                      :
          :.................................................:
          :   optimization level            normal          :
          :   max. optcycles                   624          :
          :   ANC micro-cycles                  20          :
          :   degrees of freedom               618          :
          :.................................................:
          :   RF solver                   davidson          :
          :   write xtbopt.log                true          :
          :   linear?                        false          :
          :   energy convergence         0.5000000E-05 Eh   :
          :   grad. convergence          0.1000000E-02 Eh/α :
          :   maximium RF displ.         1.0000000          :
          :   Hlow (freq-cutoff)         0.1000000E-01      :
          :   Hmax (freq-cutoff)         5.0000000          :
          :   S6 in model hess.         20.0000000          :
          ...................................................

generating ANC from model Hessian ...
Using Lindh-Hessian (1995)
 Shifting diagonal of input Hessian by   9.999345241721211E-003
 Lowest  eigenvalues of input Hessian
    0.000000    0.000000    0.000000    0.000000    0.000000    0.000000
    0.010000    0.010008    0.010012    0.010025    0.010030    0.010040
    0.010052    0.010060    0.010076    0.010082    0.010091    0.010097
 Highest eigenvalues
    2.213334    2.313930    2.470106    2.504562    2.560626    2.580835
 

........................................................................
.............................. CYCLE    1 ..............................
........................................................................
   1   -359.2358688 -0.359236E+03  0.180E-04    0.44       0.0  T
   2   -359.2358688  0.107065E-08  0.157E-04    0.44      44.1  T
   3   -359.2358688 -0.414838E-08  0.813E-05    0.44      85.2  T
     SCC iter.                  ...        0 min,  0.329 sec
     gradient                   ...        0 min,  0.238 sec
 * total energy  :  -354.0975364 Eh     change       -0.1823099E-07 Eh
   gradient norm :     0.4184633 Eh/α   predicted     0.0000000E+00 (-100.00%)
   displ. norm   :     0.5694335 α      lambda       -0.1859040E+00
   maximum displ.:     0.0958242 α      in ANC's #338, #389, #370, ...

........................................................................
.............................. CYCLE    2 ..............................
........................................................................
   1   -359.5120381 -0.359512E+03  0.287E-01    0.48       0.0  T
   2   -359.5136672 -0.162907E-02  0.196E-01    0.51       1.0  T
   3   -359.5132899  0.377278E-03  0.108E-01    0.50       1.0  T
   4   -359.5146649 -0.137501E-02  0.471E-02    0.50       1.0  T
   5   -359.5150292 -0.364298E-03  0.184E-02    0.51       1.0  T
   6   -359.5150656 -0.363757E-04  0.776E-03    0.51       1.0  T
   7   -359.5150725 -0.686771E-05  0.355E-03    0.51       2.0  T
   8   -359.5150745 -0.203930E-05  0.161E-03    0.51       4.3  T
   9   -359.5150746 -0.854437E-07  0.100E-03    0.51       6.9  T
  10   -359.5150747 -0.980933E-07  0.437E-04    0.51      15.9  T
  11   -359.5150747 -0.202189E-07  0.208E-04    0.51      33.3  T
     SCC iter.                  ...        0 min,  1.928 sec
     gradient                   ...        0 min,  0.236 sec
 * total energy  :  -354.2372328 Eh     change       -0.1396964E+00 Eh
   gradient norm :     0.1996040 Eh/α   predicted    -0.1231741E+00 ( -11.83%)
   displ. norm   :     0.6057361 α      lambda       -0.9230825E-01
   maximum displ.:     0.0858497 α      in ANC's #338, #185, #328, ...

........................................................................
.............................. CYCLE    3 ..............................
........................................................................
   1   -359.6825047 -0.359683E+03  0.248E-01    0.50       0.0  T
   2   -359.6837755 -0.127077E-02  0.165E-01    0.52       1.0  T
   3   -359.6835512  0.224271E-03  0.956E-02    0.51       1.0  T
   4   -359.6846034 -0.105217E-02  0.444E-02    0.52       1.0  T
   5   -359.6849522 -0.348872E-03  0.170E-02    0.52       1.0  T
   6   -359.6849838 -0.315395E-04  0.767E-03    0.52       1.0  T
   7   -359.6849915 -0.775059E-05  0.351E-03    0.52       2.0  T
   8   -359.6849935 -0.195907E-05  0.149E-03    0.52       4.7  T
   9   -359.6849936 -0.916199E-07  0.892E-04    0.52       7.8  T
  10   -359.6849936 -0.491395E-07  0.423E-04    0.52      16.4  T
     SCC iter.                  ...        0 min,  1.792 sec
     gradient                   ...        0 min,  0.237 sec
 * total energy  :  -354.3015933 Eh     change       -0.6436049E-01 Eh
   gradient norm :     0.0739822 Eh/α   predicted    -0.6308885E-01 (  -1.98%)
   displ. norm   :     0.6638730 α      lambda       -0.3712939E-01
   maximum displ.:     0.1320934 α      in ANC's #105, #126, #130, ...

........................................................................
.............................. CYCLE    4 ..............................
........................................................................
   1   -359.7654506 -0.359765E+03  0.180E-01    0.50       0.0  T
   2   -359.7657080 -0.257398E-03  0.110E-01    0.50       1.0  T
   3   -359.7649583  0.749778E-03  0.752E-02    0.51       1.0  T
   4   -359.7660745 -0.111629E-02  0.259E-02    0.51       1.0  T
   5   -359.7661952 -0.120616E-03  0.112E-02    0.51       1.0  T
   6   -359.7662077 -0.125024E-04  0.505E-03    0.51       1.4  T
   7   -359.7662110 -0.334472E-05  0.209E-03    0.51       3.3  T
   8   -359.7662117 -0.688064E-06  0.882E-04    0.51       7.9  T
   9   -359.7662117 -0.258344E-07  0.538E-04    0.51      12.9  T
     SCC iter.                  ...        0 min,  1.676 sec
     gradient                   ...        0 min,  0.225 sec
 * total energy  :  -354.3301892 Eh     change       -0.2859587E-01 Eh
   gradient norm :     0.0549402 Eh/α   predicted    -0.2674669E-01 (  -6.47%)
   displ. norm   :     0.6979365 α      lambda       -0.2296614E-01
   maximum displ.:     0.1517239 α      in ANC's #126, #71, #105, ...

........................................................................
.............................. CYCLE    5 ..............................
........................................................................
   1   -359.8213872 -0.359821E+03  0.155E-01    0.49       0.0  T
   2   -359.8215037 -0.116496E-03  0.876E-02    0.50       1.0  T
   3   -359.8208050  0.698765E-03  0.598E-02    0.50       1.0  T
   4   -359.8216361 -0.831194E-03  0.178E-02    0.50       1.0  T
   5   -359.8216871 -0.509400E-04  0.852E-03    0.50       1.0  T
   6   -359.8216944 -0.732766E-05  0.361E-03    0.50       1.9  T
   7   -359.8216964 -0.198307E-05  0.130E-03    0.50       5.3  T
   8   -359.8216966 -0.244495E-06  0.637E-04    0.50      10.9  T
   9   -359.8216967 -0.235184E-07  0.379E-04    0.50      18.3  T
     SCC iter.                  ...        0 min,  1.707 sec
     gradient                   ...        0 min,  0.223 sec
 * total energy  :  -354.3486141 Eh     change       -0.1842490E-01 Eh
   gradient norm :     0.0450622 Eh/α   predicted    -0.1707666E-01 (  -7.32%)
   displ. norm   :     0.7343269 α      lambda       -0.1666097E-01
   maximum displ.:     0.1833650 α      in ANC's #71, #105, #95, ...

........................................................................
.............................. CYCLE    6 ..............................
........................................................................
   1   -359.8528225 -0.359853E+03  0.154E-01    0.48       0.0  T
   2   -359.8529673 -0.144725E-03  0.873E-02    0.49       1.0  T
   3   -359.8523416  0.625670E-03  0.594E-02    0.49       1.0  T
   4   -359.8530908 -0.749237E-03  0.143E-02    0.49       1.0  T
   5   -359.8531077 -0.168280E-04  0.852E-03    0.49       1.0  T
   6   -359.8531190 -0.113910E-04  0.324E-03    0.49       2.1  T
   7   -359.8531205 -0.148009E-05  0.133E-03    0.49       5.2  T
   8   -359.8531208 -0.261997E-06  0.623E-04    0.49      11.1  T
   9   -359.8531208 -0.356686E-07  0.350E-04    0.49      19.8  T
     SCC iter.                  ...        0 min,  1.716 sec
     gradient                   ...        0 min,  0.222 sec
 * total energy  :  -354.3619604 Eh     change       -0.1334628E-01 Eh
   gradient norm :     0.0528938 Eh/α   predicted    -0.1282261E-01 (  -3.92%)
   displ. norm   :     0.7414191 α      lambda       -0.1370909E-01
   maximum displ.:     0.2257338 α      in ANC's #71, #54, #95, ...

........................................................................
.............................. CYCLE    7 ..............................
........................................................................
   1   -359.8919625 -0.359892E+03  0.143E-01    0.48       0.0  T
   2   -359.8923148 -0.352295E-03  0.807E-02    0.49       1.0  T
   3   -359.8920022  0.312633E-03  0.473E-02    0.48       1.0  T
   4   -359.8923911 -0.388923E-03  0.169E-02    0.49       1.0  T
   5   -359.8924319 -0.407990E-04  0.771E-03    0.49       1.0  T
   6   -359.8924400 -0.808134E-05  0.334E-03    0.49       2.1  T
   7   -359.8924413 -0.129779E-05  0.142E-03    0.49       4.9  T
   8   -359.8924416 -0.324431E-06  0.619E-04    0.49      11.2  T
   9   -359.8924417 -0.446512E-07  0.355E-04    0.49      19.5  T
     SCC iter.                  ...        0 min,  1.706 sec
     gradient                   ...        0 min,  0.221 sec
 * total energy  :  -354.3716545 Eh     change       -0.9694087E-02 Eh
   gradient norm :     0.0442030 Eh/α   predicted    -0.1062251E-01 (   9.58%)
   displ. norm   :     0.7292714 α      lambda       -0.1041420E-01
   maximum displ.:     0.1987804 α      in ANC's #71, #54, #99, ...

........................................................................
.............................. CYCLE    8 ..............................
........................................................................
   1   -359.9018484 -0.359902E+03  0.152E-01    0.48       0.0  T
   2   -359.9021212 -0.272728E-03  0.885E-02    0.50       1.0  T
   3   -359.9015607  0.560424E-03  0.610E-02    0.48       1.0  T
   4   -359.9022942 -0.733439E-03  0.148E-02    0.49       1.0  T
   5   -359.9023158 -0.215835E-04  0.819E-03    0.49       1.0  T
   6   -359.9023254 -0.966250E-05  0.311E-03    0.49       2.2  T
   7   -359.9023263 -0.877442E-06  0.136E-03    0.49       5.1  T
   8   -359.9023265 -0.160719E-06  0.704E-04    0.49       9.8  T
   9   -359.9023265 -0.361894E-07  0.391E-04    0.49      17.7  T
     SCC iter.                  ...        0 min,  1.747 sec
     gradient                   ...        0 min,  0.221 sec
 * total energy  :  -354.3793034 Eh     change       -0.7648888E-02 Eh
   gradient norm :     0.0347186 Eh/α   predicted    -0.7976430E-02 (   4.28%)
   displ. norm   :     0.6963460 α      lambda       -0.6898336E-02
   maximum displ.:     0.1919274 α      in ANC's #71, #28, #41, ...

........................................................................
.............................. CYCLE    9 ..............................
........................................................................
   1   -359.9167574 -0.359917E+03  0.115E-01    0.49       0.0  T
   2   -359.9168247 -0.673076E-04  0.648E-02    0.50       1.0  T
   3   -359.9165144  0.310263E-03  0.414E-02    0.49       1.0  T
   4   -359.9168896 -0.375127E-03  0.103E-02    0.49       1.0  T
   5   -359.9169004 -0.107873E-04  0.559E-03    0.50       1.2  T
   6   -359.9169039 -0.351297E-05  0.203E-03    0.50       3.4  T
   7   -359.9169044 -0.584045E-06  0.673E-04    0.50      10.3  T
   8   -359.9169045 -0.483765E-07  0.344E-04    0.50      20.2  T
     SCC iter.                  ...        0 min,  1.484 sec
     gradient                   ...        0 min,  0.182 sec
 * total energy  :  -354.3851487 Eh     change       -0.5845384E-02 Eh
   gradient norm :     0.0220076 Eh/α   predicted    -0.5121667E-02 ( -12.38%)
   displ. norm   :     0.7656402 α      lambda       -0.6329032E-02
   maximum displ.:     0.2062337 α      in ANC's #41, #28, #25, ...

........................................................................
.............................. CYCLE   10 ..............................
........................................................................
   1   -359.9261111 -0.359926E+03  0.133E-01    0.49       0.0  T
   2   -359.9261630 -0.519208E-04  0.748E-02    0.50       1.0  T
   3   -359.9257143  0.448728E-03  0.447E-02    0.49       1.0  T
   4   -359.9262263 -0.511963E-03  0.965E-03    0.50       1.0  T
   5   -359.9262346 -0.833260E-05  0.532E-03    0.50       1.3  T
   6   -359.9262375 -0.286102E-05  0.193E-03    0.50       3.6  T
   7   -359.9262380 -0.512522E-06  0.783E-04    0.50       8.9  T
   8   -359.9262380 -0.543079E-07  0.420E-04    0.50      16.5  T
     SCC iter.                  ...        0 min,  1.477 sec
     gradient                   ...        0 min,  0.180 sec
 * total energy  :  -354.3902304 Eh     change       -0.5081670E-02 Eh
   gradient norm :     0.0230869 Eh/α   predicted    -0.5019588E-02 (  -1.22%)
   displ. norm   :     0.8037074 α      lambda       -0.5897652E-02
   maximum displ.:     0.2263967 α      in ANC's #28, #41, #25, ...

........................................................................
.............................. CYCLE   11 ..............................
........................................................................
   1   -359.9369336 -0.359937E+03  0.156E-01    0.50       0.0  T
   2   -359.9370546 -0.121031E-03  0.866E-02    0.50       1.0  T
   3   -359.9368047  0.249902E-03  0.360E-02    0.50       1.0  T
   4   -359.9370934 -0.288670E-03  0.102E-02    0.50       1.0  T
   5   -359.9371057 -0.122918E-04  0.547E-03    0.50       1.3  T
   6   -359.9371093 -0.363363E-05  0.213E-03    0.50       3.3  T
   7   -359.9371099 -0.580804E-06  0.769E-04    0.50       9.0  T
   8   -359.9371100 -0.643301E-07  0.364E-04    0.50      19.0  T
     SCC iter.                  ...        0 min,  1.533 sec
     gradient                   ...        0 min,  0.182 sec
 * total energy  :  -354.3939189 Eh     change       -0.3688497E-02 Eh
   gradient norm :     0.0450115 Eh/α   predicted    -0.4853610E-02 (  31.59%)
   displ. norm   :     0.6946461 α      lambda       -0.4948304E-02
   maximum displ.:     0.2212511 α      in ANC's #41, #28, #25, ...

........................................................................
.............................. CYCLE   12 ..............................
........................................................................
   1   -359.9347573 -0.359935E+03  0.134E-01    0.50       0.0  T
   2   -359.9348560 -0.987066E-04  0.750E-02    0.51       1.0  T
   3   -359.9345387  0.317367E-03  0.392E-02    0.50       1.0  T
   4   -359.9349011 -0.362465E-03  0.905E-03    0.51       1.0  T
   5   -359.9349106 -0.943213E-05  0.500E-03    0.51       1.4  T
   6   -359.9349140 -0.343523E-05  0.200E-03    0.51       3.5  T
   7   -359.9349144 -0.401015E-06  0.822E-04    0.51       8.4  T
   8   -359.9349145 -0.735611E-07  0.392E-04    0.51      17.7  T
     SCC iter.                  ...        0 min,  1.549 sec
     gradient                   ...        0 min,  0.195 sec
 * total energy  :  -354.3975306 Eh     change       -0.3611723E-02 Eh
   gradient norm :     0.0311021 Eh/α   predicted    -0.3668017E-02 (   1.56%)
   displ. norm   :     0.7022877 α      lambda       -0.5066860E-02
   maximum displ.:     0.2248190 α      in ANC's #28, #41, #25, ...

........................................................................
.............................. CYCLE   13 ..............................
........................................................................
   1   -359.9266636 -0.359927E+03  0.168E-01    0.48       0.0  T
   2   -359.9267547 -0.911009E-04  0.947E-02    0.50       1.0  T
   3   -359.9261518  0.602923E-03  0.510E-02    0.48       1.0  T
   4   -359.9268283 -0.676507E-03  0.946E-03    0.50       1.0  T
   5   -359.9268397 -0.114358E-04  0.520E-03    0.49       1.3  T
   6   -359.9268429 -0.321866E-05  0.212E-03    0.49       3.3  T
   7   -359.9268434 -0.484157E-06  0.104E-03    0.49       6.7  T
   8   -359.9268436 -0.187647E-06  0.456E-04    0.49      15.2  T
   9   -359.9268436 -0.167348E-07  0.249E-04    0.49      27.8  T
     SCC iter.                  ...        0 min,  1.725 sec
     gradient                   ...        0 min,  0.189 sec
 * total energy  :  -354.4001558 Eh     change       -0.2625134E-02 Eh
   gradient norm :     0.0641547 Eh/α   predicted    -0.3782948E-02 (  44.10%)
   displ. norm   :     0.5962268 α      lambda       -0.5273574E-02
   maximum displ.:     0.1803630 α      in ANC's #28, #25, #41, ...

........................................................................
.............................. CYCLE   14 ..............................
........................................................................
   1   -359.9491016 -0.359949E+03  0.131E-01    0.51       0.0  T
   2   -359.9491532 -0.516504E-04  0.734E-02    0.50       1.0  T
   3   -359.9488469  0.306300E-03  0.392E-02    0.51       1.0  T
   4   -359.9491960 -0.349003E-03  0.717E-03    0.50       1.0  T
   5   -359.9492021 -0.611465E-05  0.408E-03    0.50       1.7  T
   6   -359.9492045 -0.239852E-05  0.144E-03    0.50       4.8  T
   7   -359.9492047 -0.215670E-06  0.688E-04    0.50      10.1  T
   8   -359.9492048 -0.699471E-07  0.318E-04    0.50      21.8  T
     SCC iter.                  ...        0 min,  1.498 sec
     gradient                   ...        0 min,  0.219 sec
 * total energy  :  -354.4034572 Eh     change       -0.3301382E-02 Eh
   gradient norm :     0.0260409 Eh/α   predicted    -0.3574135E-02 (   8.26%)
   displ. norm   :     0.6744086 α      lambda       -0.5161016E-02
   maximum displ.:     0.2159618 α      in ANC's #28, #41, #25, ...

........................................................................
.............................. CYCLE   15 ..............................
........................................................................
   1   -359.9552566 -0.359955E+03  0.114E-01    0.51       0.0  T
   2   -359.9553293 -0.726708E-04  0.654E-02    0.51       1.0  T
   3   -359.9550996  0.229612E-03  0.353E-02    0.51       1.0  T
   4   -359.9553695 -0.269837E-03  0.989E-03    0.51       1.0  T
   5   -359.9553768 -0.727591E-05  0.650E-03    0.51       1.1  T
   6   -359.9553852 -0.839899E-05  0.208E-03    0.51       3.3  T
   7   -359.9553856 -0.461157E-06  0.103E-03    0.51       6.7  T
   8   -359.9553858 -0.191675E-06  0.441E-04    0.51      15.7  T
   9   -359.9553858 -0.755364E-08  0.259E-04    0.51      26.8  T
     SCC iter.                  ...        0 min,  1.044 sec
     gradient                   ...        0 min,  0.214 sec
 * total energy  :  -354.4064186 Eh     change       -0.2961472E-02 Eh
   gradient norm :     0.0327817 Eh/α   predicted    -0.3754199E-02 (  26.77%)
   displ. norm   :     0.7026815 α      lambda       -0.4169178E-02
   maximum displ.:     0.2273551 α      in ANC's #28, #25, #41, ...

........................................................................
.............................. CYCLE   16 ..............................
........................................................................
   1   -359.9566229 -0.359957E+03  0.958E-02    0.51       0.0  T
   2   -359.9566594 -0.365102E-04  0.545E-02    0.51       1.0  T
   3   -359.9565545  0.104843E-03  0.244E-02    0.50       1.0  T
   4   -359.9566692 -0.114651E-03  0.759E-03    0.51       1.0  T
   5   -359.9566770 -0.779194E-05  0.396E-03    0.51       1.8  T
   6   -359.9566794 -0.241844E-05  0.139E-03    0.51       5.0  T
   7   -359.9566796 -0.233311E-06  0.656E-04    0.51      10.6  T
   8   -359.9566797 -0.758931E-07  0.300E-04    0.51      23.1  T
     SCC iter.                  ...        0 min,  1.493 sec
     gradient                   ...        0 min,  0.209 sec
 * total energy  :  -354.4098217 Eh     change       -0.3403093E-02 Eh
   gradient norm :     0.0212163 Eh/α   predicted    -0.3113887E-02 (  -8.50%)
   displ. norm   :     0.7888092 α      lambda       -0.4554328E-02
   maximum displ.:     0.2658960 α      in ANC's #28, #25, #41, ...

........................................................................
.............................. CYCLE   17 ..............................
........................................................................
   1   -359.9536037 -0.359954E+03  0.116E-01    0.50       0.0  T
   2   -359.9536553 -0.515161E-04  0.669E-02    0.51       1.0  T
   3   -359.9533134  0.341893E-03  0.402E-02    0.50       1.0  T
   4   -359.9536973 -0.383935E-03  0.991E-03    0.51       1.0  T
   5   -359.9537119 -0.146293E-04  0.515E-03    0.51       1.3  T
   6   -359.9537157 -0.380442E-05  0.205E-03    0.51       3.4  T
   7   -359.9537163 -0.531858E-06  0.902E-04    0.51       7.7  T
   8   -359.9537164 -0.149250E-06  0.396E-04    0.51      17.5  T
     SCC iter.                  ...        0 min,  1.482 sec
     gradient                   ...        0 min,  0.182 sec
 * total energy  :  -354.4129129 Eh     change       -0.3091183E-02 Eh
   gradient norm :     0.0291256 Eh/α   predicted    -0.3694083E-02 (  19.50%)
   displ. norm   :     0.7789665 α      lambda       -0.3854882E-02
   maximum displ.:     0.2555975 α      in ANC's #28, #25, #41, ...

........................................................................
.............................. CYCLE   18 ..............................
........................................................................
   1   -359.9568175 -0.359957E+03  0.985E-02    0.51       0.0  T
   2   -359.9568449 -0.273790E-04  0.551E-02    0.51       1.0  T
   3   -359.9567598  0.851091E-04  0.204E-02    0.51       1.0  T
   4   -359.9568474 -0.876288E-04  0.758E-03    0.51       1.0  T
   5   -359.9568556 -0.822466E-05  0.398E-03    0.51       1.7  T
   6   -359.9568584 -0.271328E-05  0.133E-03    0.51       5.2  T
   7   -359.9568586 -0.255607E-06  0.582E-04    0.51      11.9  T
   8   -359.9568587 -0.517273E-07  0.282E-04    0.51      24.6  T
     SCC iter.                  ...        0 min,  1.455 sec
     gradient                   ...        0 min,  0.171 sec
 * total energy  :  -354.4161563 Eh     change       -0.3243362E-02 Eh
   gradient norm :     0.0182712 Eh/α   predicted    -0.3097009E-02 (  -4.51%)
   displ. norm   :     0.8420595 α      lambda       -0.3589822E-02
   maximum displ.:     0.2762755 α      in ANC's #28, #25, #41, ...

........................................................................
.............................. CYCLE   19 ..............................
........................................................................
   1   -359.9622738 -0.359962E+03  0.106E-01    0.51       0.0  T
   2   -359.9623008 -0.269821E-04  0.590E-02    0.51       1.0  T
   3   -359.9621104  0.190378E-03  0.289E-02    0.51       1.0  T
   4   -359.9623204 -0.209926E-03  0.806E-03    0.51       1.0  T
   5   -359.9623249 -0.457911E-05  0.503E-03    0.51       1.4  T
   6   -359.9623296 -0.469667E-05  0.158E-03    0.51       4.4  T
   7   -359.9623301 -0.429841E-06  0.629E-04    0.51      11.0  T
   8   -359.9623301 -0.668946E-07  0.289E-04    0.51      24.0  T
     SCC iter.                  ...        0 min,  1.538 sec
     gradient                   ...        0 min,  0.171 sec
 * total energy  :  -354.4192493 Eh     change       -0.3093015E-02 Eh
   gradient norm :     0.0135530 Eh/α   predicted    -0.3067636E-02 (  -0.82%)
   displ. norm   :     0.8644708 α      lambda       -0.3281581E-02
   maximum displ.:     0.2812076 α      in ANC's #28, #25, #31, ...

........................................................................
.............................. CYCLE   20 ..............................
........................................................................
   1   -359.9698624 -0.359970E+03  0.106E-01    0.51       0.0  T
   2   -359.9698853 -0.228708E-04  0.588E-02    0.51       1.0  T
   3   -359.9697783  0.107011E-03  0.216E-02    0.51       1.0  T
   4   -359.9698910 -0.112690E-03  0.779E-03    0.51       1.0  T
   5   -359.9698977 -0.672666E-05  0.436E-03    0.51       1.6  T
   6   -359.9699011 -0.341200E-05  0.129E-03    0.51       5.4  T
   7   -359.9699014 -0.289542E-06  0.500E-04    0.51      13.9  T
   8   -359.9699014 -0.432225E-07  0.224E-04    0.51      31.0  T
     SCC iter.                  ...        0 min,  1.499 sec
     gradient                   ...        0 min,  0.170 sec
 * total energy  :  -354.4221950 Eh     change       -0.2945723E-02 Eh
   gradient norm :     0.0124427 Eh/α   predicted    -0.2866978E-02 (  -2.67%)
   displ. norm   :     0.8927476 α      lambda       -0.3149544E-02
   maximum displ.:     0.2775549 α      in ANC's #28, #25, #31, ...
 * RMSD in coord.:     0.7983223 α      energy gain  -0.3246586E+00 Eh

generating ANC from model Hessian ...
Using Lindh-Hessian (1995)
 Shifting diagonal of input Hessian by   1.000343717985644E-002
 Lowest  eigenvalues of input Hessian
    0.010000    0.000000    0.000000    0.000000    0.000000    0.000000
    0.000000    0.010011    0.010014    0.010026    0.010031    0.010045
    0.010058    0.010076    0.010086    0.010102    0.010116    0.010126
 Highest eigenvalues
    2.274523    2.281463    2.608362    2.611408    2.647990    2.655219
 

........................................................................
.............................. CYCLE   21 ..............................
........................................................................
   1   -359.9696930 -0.359970E+03  0.110E-01    0.51       0.0  T
   2   -359.9697200 -0.269915E-04  0.607E-02    0.51       1.0  T
   3   -359.9696363  0.837323E-04  0.203E-02    0.51       1.0  T
   4   -359.9697279 -0.916300E-04  0.743E-03    0.51       1.0  T
   5   -359.9697325 -0.464473E-05  0.408E-03    0.51       1.7  T
   6   -359.9697355 -0.295640E-05  0.124E-03    0.51       5.6  T
   7   -359.9697358 -0.257674E-06  0.544E-04    0.51      12.7  T
   8   -359.9697358 -0.528082E-07  0.242E-04    0.51      28.7  T
     SCC iter.                  ...        0 min,  1.485 sec
     gradient                   ...        0 min,  0.169 sec
 * total energy  :  -354.4249957 Eh     change       -0.2800686E-02 Eh
   gradient norm :     0.0120422 Eh/α   predicted     0.0000000E+00 (-100.00%)
   displ. norm   :     0.2662226 α      lambda       -0.1143174E-02
   maximum displ.:     0.0938343 α      in ANC's #33, #14, #30, ...

........................................................................
.............................. CYCLE   22 ..............................
........................................................................
   1   -359.9770131 -0.359977E+03  0.500E-02    0.51       0.0  T
   2   -359.9770200 -0.696509E-05  0.275E-02    0.51       1.0  T
   3   -359.9770090  0.109727E-04  0.816E-03    0.51       1.0  T
   4   -359.9770226 -0.135391E-04  0.266E-03    0.51       2.6  T
   5   -359.9770231 -0.495931E-06  0.148E-03    0.51       4.7  T
   6   -359.9770234 -0.353150E-06  0.522E-04    0.51      13.3  T
   7   -359.9770235 -0.459366E-07  0.218E-04    0.51      31.8  T
     SCC iter.                  ...        0 min,  1.299 sec
     gradient                   ...        0 min,  0.169 sec
 * total energy  :  -354.4259287 Eh     change       -0.9329945E-03 Eh
   gradient norm :     0.0072813 Eh/α   predicted    -0.6126182E-03 ( -34.34%)
   displ. norm   :     0.7645596 α      lambda       -0.2847526E-02
   maximum displ.:     0.2732585 α      in ANC's #33, #14, #30, ...

........................................................................
.............................. CYCLE   23 ..............................
........................................................................
   1   -359.9925730 -0.359993E+03  0.122E-01    0.51       0.0  T
   2   -359.9926126 -0.395294E-04  0.667E-02    0.51       1.0  T
   3   -359.9925545  0.580941E-04  0.201E-02    0.51       1.0  T
   4   -359.9926274 -0.729361E-04  0.681E-03    0.51       1.0  T
   5   -359.9926298 -0.234801E-05  0.343E-03    0.51       2.0  T
   6   -359.9926317 -0.190434E-05  0.977E-04    0.51       7.1  T
   7   -359.9926318 -0.111949E-06  0.474E-04    0.51      14.6  T
   8   -359.9926318 -0.123630E-07  0.262E-04    0.51      26.5  T
     SCC iter.                  ...        0 min,  1.483 sec
     gradient                   ...        0 min,  0.169 sec
 * total energy  :  -354.4277302 Eh     change       -0.1801555E-02 Eh
   gradient norm :     0.0169791 Eh/α   predicted    -0.2256028E-02 (  25.23%)
   displ. norm   :     0.6925283 α      lambda       -0.2651386E-02
   maximum displ.:     0.2404640 α      in ANC's #33, #14, #23, ...

........................................................................
.............................. CYCLE   24 ..............................
........................................................................
   1   -359.9915191 -0.359992E+03  0.124E-01    0.51       0.0  T
   2   -359.9915612 -0.421449E-04  0.674E-02    0.51       1.0  T
   3   -359.9915075  0.536786E-04  0.185E-02    0.51       1.0  T
   4   -359.9915762 -0.686628E-04  0.644E-03    0.51       1.1  T
   5   -359.9915780 -0.184526E-05  0.383E-03    0.51       1.8  T
   6   -359.9915811 -0.307967E-05  0.107E-03    0.51       6.5  T
   7   -359.9915813 -0.183251E-06  0.524E-04    0.51      13.2  T
   8   -359.9915813 -0.394341E-07  0.241E-04    0.51      28.7  T
     SCC iter.                  ...        0 min,  1.494 sec
     gradient                   ...        0 min,  0.171 sec
 * total energy  :  -354.4296362 Eh     change       -0.1905980E-02 Eh
   gradient norm :     0.0176918 Eh/α   predicted    -0.1961494E-02 (   2.91%)
   displ. norm   :     0.7200319 α      lambda       -0.2670369E-02
   maximum displ.:     0.2592088 α      in ANC's #33, #14, #30, ...

........................................................................
.............................. CYCLE   25 ..............................
........................................................................
   1   -359.9782312 -0.359978E+03  0.112E-01    0.51       0.0  T
   2   -359.9782657 -0.345839E-04  0.608E-02    0.51       1.0  T
   3   -359.9781953  0.704265E-04  0.196E-02    0.51       1.0  T
   4   -359.9782777 -0.823668E-04  0.699E-03    0.51       1.0  T
   5   -359.9782802 -0.249587E-05  0.408E-03    0.51       1.7  T
   6   -359.9782835 -0.337138E-05  0.140E-03    0.51       4.9  T
   7   -359.9782839 -0.400258E-06  0.540E-04    0.51      12.8  T
   8   -359.9782840 -0.415670E-07  0.267E-04    0.51      26.0  T
     SCC iter.                  ...        0 min,  1.477 sec
     gradient                   ...        0 min,  0.169 sec
 * total energy  :  -354.4315718 Eh     change       -0.1935580E-02 Eh
   gradient norm :     0.0150559 Eh/α   predicted    -0.2027405E-02 (   4.74%)
   displ. norm   :     0.7481220 α      lambda       -0.2269801E-02
   maximum displ.:     0.2610897 α      in ANC's #33, #14, #23, ...

........................................................................
.............................. CYCLE   26 ..............................
........................................................................
   1   -359.9706283 -0.359971E+03  0.109E-01    0.51       0.0  T
   2   -359.9706586 -0.303190E-04  0.594E-02    0.51       1.0  T
   3   -359.9705675  0.911331E-04  0.202E-02    0.51       1.0  T
   4   -359.9706685 -0.100972E-03  0.724E-03    0.51       1.0  T
   5   -359.9706732 -0.471699E-05  0.425E-03    0.51       1.6  T
   6   -359.9706767 -0.353012E-05  0.119E-03    0.51       5.8  T
   7   -359.9706770 -0.240428E-06  0.525E-04    0.51      13.2  T
   8   -359.9706770 -0.477334E-07  0.229E-04    0.51      30.3  T
     SCC iter.                  ...        0 min,  1.479 sec
     gradient                   ...        0 min,  0.170 sec
 * total energy  :  -354.4332054 Eh     change       -0.1633594E-02 Eh
   gradient norm :     0.0180834 Eh/α   predicted    -0.1770089E-02 (   8.36%)
   displ. norm   :     0.6972603 α      lambda       -0.2728566E-02
   maximum displ.:     0.2424195 α      in ANC's #14, #33, #30, ...

........................................................................
.............................. CYCLE   27 ..............................
........................................................................
   1   -359.9729421 -0.359973E+03  0.110E-01    0.51       0.0  T
   2   -359.9729752 -0.331624E-04  0.604E-02    0.51       1.0  T
   3   -359.9728674  0.107785E-03  0.216E-02    0.51       1.0  T
   4   -359.9729865 -0.119089E-03  0.711E-03    0.51       1.0  T
   5   -359.9729928 -0.623989E-05  0.397E-03    0.51       1.7  T
   6   -359.9729954 -0.267895E-05  0.128E-03    0.51       5.4  T
   7   -359.9729957 -0.262503E-06  0.541E-04    0.51      12.8  T
   8   -359.9729957 -0.492665E-07  0.238E-04    0.51      29.1  T
     SCC iter.                  ...        0 min,  1.476 sec
     gradient                   ...        0 min,  0.171 sec
 * total energy  :  -354.4352604 Eh     change       -0.2055055E-02 Eh
   gradient norm :     0.0134375 Eh/α   predicted    -0.2027566E-02 (  -1.34%)
   displ. norm   :     0.8016490 α      lambda       -0.2055295E-02
   maximum displ.:     0.2831285 α      in ANC's #14, #33, #23, ...

........................................................................
.............................. CYCLE   28 ..............................
........................................................................
   1   -359.9767284 -0.359977E+03  0.889E-02    0.51       0.0  T
   2   -359.9767448 -0.163959E-04  0.479E-02    0.51       1.0  T
   3   -359.9766589  0.858741E-04  0.191E-02    0.51       1.0  T
   4   -359.9767485 -0.895717E-04  0.731E-03    0.51       1.0  T
   5   -359.9767544 -0.594123E-05  0.384E-03    0.51       1.8  T
   6   -359.9767571 -0.262702E-05  0.110E-03    0.51       6.3  T
   7   -359.9767573 -0.220111E-06  0.440E-04    0.51      15.8  T
   8   -359.9767573 -0.344639E-07  0.185E-04    0.51      37.4  T
     SCC iter.                  ...        0 min,  1.467 sec
     gradient                   ...        0 min,  0.181 sec
 * total energy  :  -354.4371404 Eh     change       -0.1879915E-02 Eh
   gradient norm :     0.0106332 Eh/α   predicted    -0.1688066E-02 ( -10.21%)
   displ. norm   :     0.8261756 α      lambda       -0.2302685E-02
   maximum displ.:     0.3044817 α      in ANC's #14, #33, #5, ...

........................................................................
.............................. CYCLE   29 ..............................
........................................................................
   1   -359.9946980 -0.359995E+03  0.102E-01    0.51       0.0  T
   2   -359.9947205 -0.224500E-04  0.558E-02    0.51       1.0  T
   3   -359.9945673  0.153203E-03  0.252E-02    0.50       1.0  T
   4   -359.9947334 -0.166184E-03  0.748E-03    0.51       1.0  T
   5   -359.9947397 -0.622150E-05  0.393E-03    0.51       1.8  T
   6   -359.9947420 -0.236613E-05  0.134E-03    0.51       5.2  T
   7   -359.9947424 -0.332949E-06  0.517E-04    0.51      13.4  T
   8   -359.9947424 -0.367966E-07  0.247E-04    0.51      28.1  T
     SCC iter.                  ...        0 min,  1.528 sec
     gradient                   ...        0 min,  0.180 sec
 * total energy  :  -354.4389637 Eh     change       -0.1823308E-02 Eh
   gradient norm :     0.0118913 Eh/α   predicted    -0.1937216E-02 (   6.25%)
   displ. norm   :     0.8774734 α      lambda       -0.2126264E-02
   maximum displ.:     0.3119697 α      in ANC's #14, #33, #23, ...

........................................................................
.............................. CYCLE   30 ..............................
........................................................................
   1   -359.9889718 -0.359989E+03  0.985E-02    0.51       0.0  T
   2   -359.9889919 -0.201417E-04  0.530E-02    0.51       1.0  T
   3   -359.9889152  0.767448E-04  0.193E-02    0.51       1.0  T
   4   -359.9889967 -0.815212E-04  0.765E-03    0.51       1.0  T
   5   -359.9890014 -0.471313E-05  0.415E-03    0.51       1.7  T
   6   -359.9890046 -0.326380E-05  0.126E-03    0.51       5.5  T
   7   -359.9890050 -0.324689E-06  0.465E-04    0.51      14.9  T
   8   -359.9890050 -0.331486E-07  0.225E-04    0.51      30.8  T
     SCC iter.                  ...        0 min,  1.517 sec
     gradient                   ...        0 min,  0.178 sec
 * total energy  :  -354.4407749 Eh     change       -0.1811279E-02 Eh
   gradient norm :     0.0101717 Eh/α   predicted    -0.1881708E-02 (   3.89%)
   displ. norm   :     0.8645988 α      lambda       -0.1815379E-02
   maximum displ.:     0.3241173 α      in ANC's #14, #33, #5, ...

........................................................................
.............................. CYCLE   31 ..............................
........................................................................
   1   -359.9905414 -0.359991E+03  0.899E-02    0.51       0.0  T
   2   -359.9905568 -0.153855E-04  0.485E-02    0.52       1.0  T
   3   -359.9904912  0.656270E-04  0.178E-02    0.51       1.0  T
   4   -359.9905598 -0.685615E-04  0.713E-03    0.52       1.0  T
   5   -359.9905642 -0.447084E-05  0.389E-03    0.51       1.8  T
   6   -359.9905672 -0.294636E-05  0.102E-03    0.51       6.8  T
   7   -359.9905674 -0.202155E-06  0.418E-04    0.51      16.6  T
   8   -359.9905674 -0.304364E-07  0.187E-04    0.51      37.1  T
     SCC iter.                  ...        0 min,  1.495 sec
     gradient                   ...        0 min,  0.182 sec
 * total energy  :  -354.4424078 Eh     change       -0.1632845E-02 Eh
   gradient norm :     0.0103461 Eh/α   predicted    -0.1586221E-02 (  -2.86%)
   displ. norm   :     0.8883362 α      lambda       -0.1832019E-02
   maximum displ.:     0.3345674 α      in ANC's #14, #5, #33, ...

........................................................................
.............................. CYCLE   32 ..............................
........................................................................
   1   -359.9856802 -0.359986E+03  0.997E-02    0.51       0.0  T
   2   -359.9857024 -0.222189E-04  0.536E-02    0.51       1.0  T
   3   -359.9856404  0.619577E-04  0.180E-02    0.51       1.0  T
   4   -359.9857081 -0.677255E-04  0.709E-03    0.52       1.0  T
   5   -359.9857116 -0.342322E-05  0.411E-03    0.51       1.7  T
   6   -359.9857150 -0.343340E-05  0.103E-03    0.51       6.8  T
   7   -359.9857152 -0.190862E-06  0.475E-04    0.51      14.6  T
   8   -359.9857152 -0.373904E-07  0.212E-04    0.51      32.8  T
     SCC iter.                  ...        0 min,  1.499 sec
     gradient                   ...        0 min,  0.179 sec
 * total energy  :  -354.4440168 Eh     change       -0.1609019E-02 Eh
   gradient norm :     0.0104997 Eh/α   predicted    -0.1638870E-02 (   1.86%)
   displ. norm   :     0.8362636 α      lambda       -0.1835836E-02
   maximum displ.:     0.3314649 α      in ANC's #14, #5, #21, ...

........................................................................
.............................. CYCLE   33 ..............................
........................................................................
   1   -360.0147298 -0.360015E+03  0.816E-02    0.51       0.0  T
   2   -360.0147461 -0.162193E-04  0.442E-02    0.52       1.0  T
   3   -360.0146991  0.469390E-04  0.168E-02    0.51       1.0  T
   4   -360.0147521 -0.530042E-04  0.598E-03    0.52       1.2  T
   5   -360.0147537 -0.159591E-05  0.356E-03    0.52       1.9  T
   6   -360.0147561 -0.237573E-05  0.831E-04    0.52       8.3  T
   7   -360.0147562 -0.114610E-06  0.414E-04    0.52      16.8  T
   8   -360.0147562 -0.258652E-07  0.197E-04    0.52      35.1  T
     SCC iter.                  ...        0 min,  1.485 sec
     gradient                   ...        0 min,  0.180 sec
 * total energy  :  -354.4454640 Eh     change       -0.1447161E-02 Eh
   gradient norm :     0.0111936 Eh/α   predicted    -0.1559860E-02 (   7.79%)
   displ. norm   :     0.8787058 α      lambda       -0.1780503E-02
   maximum displ.:     0.3329313 α      in ANC's #14, #5, #23, ...

........................................................................
.............................. CYCLE   34 ..............................
........................................................................
   1   -360.0004441 -0.360000E+03  0.949E-02    0.51       0.0  T
   2   -360.0004677 -0.236234E-04  0.509E-02    0.52       1.0  T
   3   -360.0003981  0.695538E-04  0.188E-02    0.51       1.0  T
   4   -360.0004700 -0.718961E-04  0.780E-03    0.52       1.0  T
   5   -360.0004773 -0.730547E-05  0.406E-03    0.52       1.7  T
   6   -360.0004801 -0.281112E-05  0.141E-03    0.52       4.9  T
   7   -360.0004805 -0.393728E-06  0.469E-04    0.52      14.8  T
   8   -360.0004806 -0.289054E-07  0.249E-04    0.52      27.8  T
     SCC iter.                  ...        0 min,  1.475 sec
     gradient                   ...        0 min,  0.182 sec
 * total energy  :  -354.4468764 Eh     change       -0.1412454E-02 Eh
   gradient norm :     0.0128092 Eh/α   predicted    -0.1577628E-02 (  11.69%)
   displ. norm   :     0.8293784 α      lambda       -0.1626209E-02
   maximum displ.:     0.3244904 α      in ANC's #14, #5, #23, ...

........................................................................
.............................. CYCLE   35 ..............................
........................................................................
   1   -359.9935605 -0.359994E+03  0.843E-02    0.52       0.0  T
   2   -359.9935755 -0.150289E-04  0.451E-02    0.53       1.0  T
   3   -359.9935108  0.646536E-04  0.177E-02    0.52       1.0  T
   4   -359.9935790 -0.681335E-04  0.692E-03    0.53       1.0  T
   5   -359.9935832 -0.420879E-05  0.373E-03    0.52       1.9  T
   6   -359.9935858 -0.259425E-05  0.986E-04    0.52       7.0  T
   7   -359.9935860 -0.179166E-06  0.403E-04    0.52      17.2  T
   8   -359.9935860 -0.224669E-07  0.206E-04    0.52      33.7  T
     SCC iter.                  ...        0 min,  1.537 sec
     gradient                   ...        0 min,  0.180 sec
 * total energy  :  -354.4481983 Eh     change       -0.1321869E-02 Eh
   gradient norm :     0.0102322 Eh/α   predicted    -0.1372419E-02 (   3.82%)
   displ. norm   :     0.8235227 α      lambda       -0.1511937E-02
   maximum displ.:     0.3242788 α      in ANC's #14, #5, #21, ...

........................................................................
.............................. CYCLE   36 ..............................
........................................................................
   1   -359.9964970 -0.359996E+03  0.796E-02    0.52       0.0  T
   2   -359.9965117 -0.146622E-04  0.424E-02    0.53       1.0  T
   3   -359.9964645  0.471986E-04  0.160E-02    0.52       1.0  T
   4   -359.9965139 -0.494563E-04  0.652E-03    0.53       1.1  T
   5   -359.9965181 -0.413176E-05  0.330E-03    0.53       2.1  T
   6   -359.9965200 -0.196868E-05  0.883E-04    0.53       7.9  T
   7   -359.9965202 -0.142518E-06  0.364E-04    0.53      19.1  T
   8   -359.9965202 -0.162755E-07  0.191E-04    0.53      36.4  T
     SCC iter.                  ...        0 min,  1.523 sec
     gradient                   ...        0 min,  0.181 sec
 * total energy  :  -354.4495153 Eh     change       -0.1317053E-02 Eh
   gradient norm :     0.0105835 Eh/α   predicted    -0.1268658E-02 (  -3.67%)
   displ. norm   :     0.8191383 α      lambda       -0.1707330E-02
   maximum displ.:     0.3159025 α      in ANC's #14, #5, #21, ...

........................................................................
.............................. CYCLE   37 ..............................
........................................................................
   1   -360.0152273 -0.360015E+03  0.781E-02    0.53       0.0  T
   2   -360.0152439 -0.166754E-04  0.416E-02    0.53       1.0  T
   3   -360.0152014  0.425334E-04  0.159E-02    0.53       1.0  T
   4   -360.0152461 -0.447372E-04  0.663E-03    0.53       1.0  T
   5   -360.0152503 -0.415096E-05  0.358E-03    0.53       1.9  T
   6   -360.0152525 -0.222563E-05  0.102E-03    0.53       6.8  T
   7   -360.0152527 -0.216466E-06  0.410E-04    0.53      16.9  T
   8   -360.0152528 -0.226252E-07  0.222E-04    0.53      31.3  T
     SCC iter.                  ...        0 min,  1.497 sec
     gradient                   ...        0 min,  0.180 sec
 * total energy  :  -354.4507989 Eh     change       -0.1283578E-02 Eh
   gradient norm :     0.0136725 Eh/α   predicted    -0.1426467E-02 (  11.13%)
   displ. norm   :     0.8453781 α      lambda       -0.1585713E-02
   maximum displ.:     0.3279074 α      in ANC's #14, #5, #23, ...

........................................................................
.............................. CYCLE   38 ..............................
........................................................................
   1   -360.0132939 -0.360013E+03  0.852E-02    0.53       0.0  T
   2   -360.0133117 -0.177881E-04  0.449E-02    0.54       1.0  T
   3   -360.0132658  0.458625E-04  0.162E-02    0.54       1.0  T
   4   -360.0133139 -0.480670E-04  0.692E-03    0.54       1.0  T
   5   -360.0133175 -0.362591E-05  0.396E-03    0.54       1.8  T
   6   -360.0133208 -0.331876E-05  0.104E-03    0.54       6.7  T
   7   -360.0133210 -0.204216E-06  0.386E-04    0.54      18.0  T
   8   -360.0133210 -0.159031E-07  0.204E-04    0.54      34.1  T
     SCC iter.                  ...        0 min,  1.486 sec
     gradient                   ...        0 min,  0.180 sec
 * total energy  :  -354.4521842 Eh     change       -0.1385253E-02 Eh
   gradient norm :     0.0098046 Eh/α   predicted    -0.1359481E-02 (  -1.86%)
   displ. norm   :     0.8860669 α      lambda       -0.1464015E-02
   maximum displ.:     0.3367558 α      in ANC's #5, #14, #21, ...

........................................................................
.............................. CYCLE   39 ..............................
........................................................................
   1   -360.0070256 -0.360007E+03  0.887E-02    0.54       0.0  T
   2   -360.0070446 -0.189426E-04  0.466E-02    0.55       1.0  T
   3   -360.0070033  0.412912E-04  0.158E-02    0.54       1.0  T
   4   -360.0070461 -0.428331E-04  0.711E-03    0.55       1.0  T
   5   -360.0070504 -0.427817E-05  0.398E-03    0.55       1.7  T
   6   -360.0070538 -0.334629E-05  0.891E-04    0.55       7.8  T
   7   -360.0070539 -0.133338E-06  0.390E-04    0.55      17.8  T
   8   -360.0070539 -0.176182E-07  0.208E-04    0.55      33.4  T
     SCC iter.                  ...        0 min,  1.505 sec
     gradient                   ...        0 min,  0.180 sec
 * total energy  :  -354.4535173 Eh     change       -0.1333103E-02 Eh
   gradient norm :     0.0090107 Eh/α   predicted    -0.1306716E-02 (  -1.98%)
   displ. norm   :     0.8725333 α      lambda       -0.1473018E-02
   maximum displ.:     0.3511470 α      in ANC's #5, #14, #3, ...

........................................................................
.............................. CYCLE   40 ..............................
........................................................................
   1   -360.0118100 -0.360012E+03  0.918E-02    0.55       0.0  T
   2   -360.0118314 -0.214407E-04  0.477E-02    0.55       1.0  T
   3   -360.0117854  0.459984E-04  0.171E-02    0.55       1.0  T
   4   -360.0118340 -0.486030E-04  0.746E-03    0.55       1.0  T
   5   -360.0118382 -0.422589E-05  0.432E-03    0.55       1.6  T
   6   -360.0118421 -0.383706E-05  0.994E-04    0.55       7.0  T
   7   -360.0118422 -0.169759E-06  0.445E-04    0.55      15.6  T
   8   -360.0118423 -0.307110E-07  0.229E-04    0.55      30.3  T
     SCC iter.                  ...        0 min,  1.314 sec
     gradient                   ...        0 min,  0.179 sec
 * total energy  :  -354.4547582 Eh     change       -0.1240923E-02 Eh
   gradient norm :     0.0114393 Eh/α   predicted    -0.1297227E-02 (   4.54%)
   displ. norm   :     0.8632207 α      lambda       -0.1587017E-02
   maximum displ.:     0.3387162 α      in ANC's #5, #14, #3, ...

........................................................................
.............................. CYCLE   41 ..............................
........................................................................
   1   -360.0047322 -0.360005E+03  0.870E-02    0.55       0.0  T
   2   -360.0047543 -0.221055E-04  0.453E-02    0.56       1.0  T
   3   -360.0047065  0.477968E-04  0.172E-02    0.56       1.0  T
   4   -360.0047561 -0.495909E-04  0.762E-03    0.56       1.0  T
   5   -360.0047616 -0.551442E-05  0.402E-03    0.56       1.7  T
   6   -360.0047644 -0.281538E-05  0.120E-03    0.56       5.8  T
   7   -360.0047647 -0.304171E-06  0.405E-04    0.56      17.1  T
   8   -360.0047647 -0.214709E-07  0.224E-04    0.56      30.9  T
     SCC iter.                  ...        0 min,  1.289 sec
     gradient                   ...        0 min,  0.196 sec
 * total energy  :  -354.4560379 Eh     change       -0.1279689E-02 Eh
   gradient norm :     0.0112078 Eh/α   predicted    -0.1384805E-02 (   8.21%)
   displ. norm   :     0.8423344 α      lambda       -0.1296734E-02
   maximum displ.:     0.3462083 α      in ANC's #5, #14, #3, ...

........................................................................
.............................. CYCLE   42 ..............................
........................................................................
   1   -360.0053057 -0.360005E+03  0.876E-02    0.56       0.0  T
   2   -360.0053251 -0.193979E-04  0.455E-02    0.56       1.0  T
   3   -360.0052705  0.545318E-04  0.176E-02    0.56       1.0  T
   4   -360.0053298 -0.592373E-04  0.701E-03    0.57       1.0  T
   5   -360.0053330 -0.323586E-05  0.405E-03    0.56       1.7  T
   6   -360.0053363 -0.329155E-05  0.968E-04    0.56       7.2  T
   7   -360.0053365 -0.183838E-06  0.433E-04    0.56      16.0  T
   8   -360.0053365 -0.327325E-07  0.204E-04    0.56      34.0  T
     SCC iter.                  ...        0 min,  1.289 sec
     gradient                   ...        0 min,  0.180 sec
 * total energy  :  -354.4571892 Eh     change       -0.1151287E-02 Eh
   gradient norm :     0.0118208 Eh/α   predicted    -0.1108403E-02 (  -3.72%)
   displ. norm   :     0.7973495 α      lambda       -0.1390163E-02
   maximum displ.:     0.3428500 α      in ANC's #5, #14, #3, ...
 * RMSD in coord.:     1.1282315 α      energy gain  -0.3499418E-01 Eh

generating ANC from model Hessian ...
Using Lindh-Hessian (1995)
 Shifting diagonal of input Hessian by   1.004873698742147E-002
 Lowest  eigenvalues of input Hessian
    0.010000    0.010042    0.000000    0.000000    0.000000    0.000000
    0.000000    0.000000    0.010055    0.010066    0.010077    0.010081
    0.010091    0.010111    0.010125    0.010132    0.010143    0.010173
 Highest eigenvalues
    2.272329    2.273644    2.608763    2.609941    2.647014    2.652922
 

........................................................................
.............................. CYCLE   43 ..............................
........................................................................
   1   -360.0204191 -0.360020E+03  0.836E-02    0.56       0.0  T
   2   -360.0204369 -0.177975E-04  0.434E-02    0.57       1.0  T
   3   -360.0203702  0.667008E-04  0.188E-02    0.57       1.0  T
   4   -360.0204443 -0.741215E-04  0.679E-03    0.57       1.0  T
   5   -360.0204468 -0.246128E-05  0.404E-03    0.57       1.7  T
   6   -360.0204500 -0.318134E-05  0.105E-03    0.57       6.6  T
   7   -360.0204502 -0.223416E-06  0.483E-04    0.57      14.4  T
   8   -360.0204503 -0.503925E-07  0.203E-04    0.57      34.2  T
     SCC iter.                  ...        0 min,  1.299 sec
     gradient                   ...        0 min,  0.179 sec
 * total energy  :  -354.4583538 Eh     change       -0.1164659E-02 Eh
   gradient norm :     0.0089948 Eh/α   predicted     0.0000000E+00 (-100.00%)
   displ. norm   :     0.1508514 α      lambda       -0.4083627E-03
   maximum displ.:     0.0551265 α      in ANC's #5, #20, #4, ...

........................................................................
.............................. CYCLE   44 ..............................
........................................................................
   1   -360.0186735 -0.360019E+03  0.269E-02    0.57       0.0  T
   2   -360.0186757 -0.216064E-05  0.143E-02    0.57       1.0  T
   3   -360.0186707  0.500178E-05  0.527E-03    0.57       1.3  T
   4   -360.0186765 -0.578171E-05  0.193E-03    0.57       3.6  T
   5   -360.0186767 -0.243975E-06  0.106E-03    0.57       6.5  T
   6   -360.0186769 -0.174584E-06  0.338E-04    0.57      20.5  T
   7   -360.0186769 -0.182288E-07  0.127E-04    0.57      54.5  T
     SCC iter.                  ...        0 min,  1.126 sec
     gradient                   ...        0 min,  0.195 sec
 * total energy  :  -354.4586928 Eh     change       -0.3389760E-03 Eh
   gradient norm :     0.0042384 Eh/α   predicted    -0.2088285E-03 ( -38.39%)
   displ. norm   :     0.5190902 α      lambda       -0.1008358E-02
   maximum displ.:     0.1855384 α      in ANC's #5, #4, #57, ...

........................................................................
.............................. CYCLE   45 ..............................
........................................................................
   1   -360.0119780 -0.360012E+03  0.819E-02    0.56       0.0  T
   2   -360.0119980 -0.199622E-04  0.424E-02    0.57       1.0  T
   3   -360.0119782  0.197565E-04  0.124E-02    0.57       1.0  T
   4   -360.0120023 -0.240360E-04  0.559E-03    0.57       1.2  T
   5   -360.0120041 -0.179725E-05  0.275E-03    0.57       2.5  T
   6   -360.0120055 -0.147115E-05  0.940E-04    0.57       7.4  T
   7   -360.0120057 -0.181542E-06  0.378E-04    0.57      18.3  T
   8   -360.0120057 -0.175611E-07  0.205E-04    0.57      33.9  T
     SCC iter.                  ...        0 min,  1.290 sec
     gradient                   ...        0 min,  0.180 sec
 * total energy  :  -354.4593054 Eh     change       -0.6125886E-03 Eh
   gradient norm :     0.0116855 Eh/α   predicted    -0.6402046E-03 (   4.51%)
   displ. norm   :     0.5879620 α      lambda       -0.1148971E-02
   maximum displ.:     0.2104906 α      in ANC's #5, #20, #4, ...

........................................................................
.............................. CYCLE   46 ..............................
........................................................................
   1   -360.0035099 -0.360004E+03  0.117E-01    0.56       0.0  T
   2   -360.0035515 -0.416269E-04  0.623E-02    0.57       1.0  T
   3   -360.0035242  0.273156E-04  0.154E-02    0.57       1.0  T
   4   -360.0035633 -0.390984E-04  0.662E-03    0.57       1.0  T
   5   -360.0035665 -0.322938E-05  0.299E-03    0.57       2.3  T
   6   -360.0035679 -0.144076E-05  0.107E-03    0.57       6.5  T
   7   -360.0035681 -0.214058E-06  0.456E-04    0.57      15.2  T
   8   -360.0035682 -0.244539E-07  0.258E-04    0.57      26.8  T
     SCC iter.                  ...        0 min,  1.341 sec
     gradient                   ...        0 min,  0.198 sec
 * total energy  :  -354.4596542 Eh     change       -0.3488201E-03 Eh
   gradient norm :     0.0209182 Eh/α   predicted    -0.7730914E-03 ( 121.63%)
   displ. norm   :     0.2773724 α      lambda       -0.1157456E-02
   maximum displ.:     0.1047142 α      in ANC's #5, #4, #14, ...

........................................................................
.............................. CYCLE   47 ..............................
........................................................................
   1   -360.0101832 -0.360010E+03  0.800E-02    0.57       0.0  T
   2   -360.0102027 -0.195309E-04  0.435E-02    0.57       1.0  T
   3   -360.0101859  0.167459E-04  0.105E-02    0.57       1.0  T
   4   -360.0102098 -0.238915E-04  0.359E-03    0.57       1.9  T
   5   -360.0102107 -0.874295E-06  0.198E-03    0.57       3.5  T
   6   -360.0102115 -0.830283E-06  0.584E-04    0.57      11.9  T
   7   -360.0102116 -0.672762E-07  0.272E-04    0.57      25.5  T
     SCC iter.                  ...        0 min,  1.171 sec
     gradient                   ...        0 min,  0.183 sec
 * total energy  :  -354.4603314 Eh     change       -0.6771720E-03 Eh
   gradient norm :     0.0152505 Eh/α   predicted    -0.6232534E-03 (  -7.96%)
   displ. norm   :     0.3383441 α      lambda       -0.1367907E-02
   maximum displ.:     0.1382927 α      in ANC's #5, #4, #20, ...

........................................................................
.............................. CYCLE   48 ..............................
........................................................................
   1   -360.0263706 -0.360026E+03  0.873E-02    0.56       0.0  T
   2   -360.0263945 -0.238936E-04  0.473E-02    0.57       1.0  T
   3   -360.0263760  0.185620E-04  0.117E-02    0.57       1.0  T
   4   -360.0264008 -0.248445E-04  0.450E-03    0.57       1.5  T
   5   -360.0264030 -0.213947E-05  0.242E-03    0.57       2.9  T
   6   -360.0264040 -0.103414E-05  0.907E-04    0.57       7.6  T
   7   -360.0264042 -0.153978E-06  0.375E-04    0.57      18.5  T
   8   -360.0264042 -0.152339E-07  0.225E-04    0.57      30.8  T
     SCC iter.                  ...        0 min,  1.346 sec
     gradient                   ...        0 min,  0.180 sec
 * total energy  :  -354.4609444 Eh     change       -0.6129921E-03 Eh
   gradient norm :     0.0111478 Eh/α   predicted    -0.7622511E-03 (  24.35%)
   displ. norm   :     0.6017684 α      lambda       -0.1102309E-02
   maximum displ.:     0.2322223 α      in ANC's #5, #14, #4, ...

........................................................................
.............................. CYCLE   49 ..............................
........................................................................
   1   -360.0202482 -0.360020E+03  0.104E-01    0.56       0.0  T
   2   -360.0202797 -0.315344E-04  0.545E-02    0.57       1.0  T
   3   -360.0202500  0.297392E-04  0.150E-02    0.57       1.0  T
   4   -360.0202875 -0.375293E-04  0.665E-03    0.57       1.0  T
   5   -360.0202906 -0.309881E-05  0.320E-03    0.57       2.2  T
   6   -360.0202926 -0.192234E-05  0.109E-03    0.57       6.4  T
   7   -360.0202928 -0.279030E-06  0.422E-04    0.57      16.4  T
   8   -360.0202929 -0.252415E-07  0.226E-04    0.57      30.7  T
     SCC iter.                  ...        0 min,  1.321 sec
     gradient                   ...        0 min,  0.196 sec
 * total energy  :  -354.4615832 Eh     change       -0.6387912E-03 Eh
   gradient norm :     0.0118773 Eh/α   predicted    -0.7507455E-03 (  17.53%)
   displ. norm   :     0.6008678 α      lambda       -0.1288129E-02
   maximum displ.:     0.2363742 α      in ANC's #5, #20, #4, ...

........................................................................
.............................. CYCLE   50 ..............................
........................................................................
   1   -360.0121005 -0.360012E+03  0.104E-01    0.57       0.0  T
   2   -360.0121331 -0.325575E-04  0.545E-02    0.57       1.0  T
   3   -360.0121041  0.289440E-04  0.149E-02    0.57       1.0  T
   4   -360.0121390 -0.349272E-04  0.705E-03    0.57       1.0  T
   5   -360.0121434 -0.440729E-05  0.338E-03    0.57       2.1  T
   6   -360.0121454 -0.194074E-05  0.125E-03    0.57       5.5  T
   7   -360.0121458 -0.404239E-06  0.436E-04    0.57      15.9  T
   8   -360.0121458 -0.242874E-07  0.246E-04    0.57      28.2  T
     SCC iter.                  ...        0 min,  1.326 sec
     gradient                   ...        0 min,  0.179 sec
 * total energy  :  -354.4620895 Eh     change       -0.5063191E-03 Eh
   gradient norm :     0.0181858 Eh/α   predicted    -0.8765996E-03 (  73.13%)
   displ. norm   :     0.3257521 α      lambda       -0.1360212E-02
   maximum displ.:     0.1380010 α      in ANC's #5, #4, #20, ...

........................................................................
.............................. CYCLE   51 ..............................
........................................................................
   1   -360.0207072 -0.360021E+03  0.634E-02    0.57       0.0  T
   2   -360.0207257 -0.184742E-04  0.341E-02    0.57       1.0  T
   3   -360.0207042  0.214739E-04  0.125E-02    0.57       1.0  T
   4   -360.0207278 -0.236011E-04  0.522E-03    0.58       1.3  T
   5   -360.0207318 -0.400125E-05  0.232E-03    0.57       3.0  T
   6   -360.0207322 -0.373862E-06  0.123E-03    0.57       5.6  T
   7   -360.0207326 -0.370342E-06  0.367E-04    0.57      18.9  T
   8   -360.0207326 -0.845398E-08  0.228E-04    0.57      30.4  T
     SCC iter.                  ...        0 min,  1.313 sec
     gradient                   ...        0 min,  0.183 sec
 * total energy  :  -354.4625892 Eh     change       -0.4996639E-03 Eh
   gradient norm :     0.0162906 Eh/α   predicted    -0.7522779E-03 (  50.56%)
   displ. norm   :     0.5165788 α      lambda       -0.1180947E-02
   maximum displ.:     0.2180465 α      in ANC's #5, #4, #14, ...

........................................................................
.............................. CYCLE   52 ..............................
........................................................................
   1   -360.0216694 -0.360022E+03  0.858E-02    0.57       0.0  T
   2   -360.0216897 -0.203058E-04  0.449E-02    0.57       1.0  T
   3   -360.0216662  0.234438E-04  0.126E-02    0.57       1.0  T
   4   -360.0216949 -0.287046E-04  0.532E-03    0.57       1.3  T
   5   -360.0216973 -0.231936E-05  0.247E-03    0.57       2.8  T
   6   -360.0216984 -0.117499E-05  0.712E-04    0.57       9.7  T
   7   -360.0216985 -0.864106E-07  0.360E-04    0.57      19.2  T
   8   -360.0216985 -0.202830E-07  0.187E-04    0.57      37.1  T
     SCC iter.                  ...        0 min,  1.323 sec
     gradient                   ...        0 min,  0.195 sec
 * total energy  :  -354.4633993 Eh     change       -0.8101079E-03 Eh
   gradient norm :     0.0076568 Eh/α   predicted    -0.7480442E-03 (  -7.66%)
   displ. norm   :     0.6949503 α      lambda       -0.8242967E-03
   maximum displ.:     0.3077332 α      in ANC's #5, #4, #20, ...

........................................................................
.............................. CYCLE   53 ..............................
........................................................................
   1   -360.0188371 -0.360019E+03  0.875E-02    0.57       0.0  T
   2   -360.0188555 -0.184633E-04  0.441E-02    0.57       1.0  T
   3   -360.0188252  0.303543E-04  0.138E-02    0.57       1.0  T
   4   -360.0188585 -0.333317E-04  0.655E-03    0.57       1.1  T
   5   -360.0188615 -0.297608E-05  0.323E-03    0.57       2.1  T
   6   -360.0188635 -0.201968E-05  0.966E-04    0.57       7.2  T
   7   -360.0188637 -0.233551E-06  0.374E-04    0.57      18.6  T
   8   -360.0188638 -0.291706E-07  0.173E-04    0.57      40.2  T
     SCC iter.                  ...        0 min,  1.291 sec
     gradient                   ...        0 min,  0.195 sec
 * total energy  :  -354.4641112 Eh     change       -0.7118959E-03 Eh
   gradient norm :     0.0080055 Eh/α   predicted    -0.6112029E-03 ( -14.14%)
   displ. norm   :     0.7416276 α      lambda       -0.8912120E-03
   maximum displ.:     0.3443334 α      in ANC's #5, #4, #20, ...

........................................................................
.............................. CYCLE   54 ..............................
........................................................................
   1   -360.0214398 -0.360021E+03  0.889E-02    0.57       0.0  T
   2   -360.0214582 -0.183311E-04  0.451E-02    0.57       1.0  T
   3   -360.0214298  0.283331E-04  0.135E-02    0.57       1.0  T
   4   -360.0214600 -0.301693E-04  0.672E-03    0.57       1.0  T
   5   -360.0214638 -0.378140E-05  0.319E-03    0.57       2.2  T
   6   -360.0214659 -0.205749E-05  0.913E-04    0.57       7.6  T
   7   -360.0214660 -0.191159E-06  0.388E-04    0.57      17.9  T
   8   -360.0214661 -0.291686E-07  0.189E-04    0.57      36.6  T
     SCC iter.                  ...        0 min,  1.318 sec
     gradient                   ...        0 min,  0.182 sec
 * total energy  :  -354.4648904 Eh     change       -0.7791977E-03 Eh
   gradient norm :     0.0075742 Eh/α   predicted    -0.6906961E-03 ( -11.36%)
   displ. norm   :     0.8035891 α      lambda       -0.9129044E-03
   maximum displ.:     0.3770511 α      in ANC's #5, #4, #20, ...

........................................................................
.............................. CYCLE   55 ..............................
........................................................................
   1   -360.0228318 -0.360023E+03  0.965E-02    0.56       0.0  T
   2   -360.0228535 -0.217160E-04  0.489E-02    0.56       1.0  T
   3   -360.0228204  0.331044E-04  0.146E-02    0.57       1.0  T
   4   -360.0228555 -0.351592E-04  0.730E-03    0.57       1.0  T
   5   -360.0228601 -0.456416E-05  0.344E-03    0.57       2.0  T
   6   -360.0228626 -0.244695E-05  0.981E-04    0.57       7.1  T
   7   -360.0228628 -0.223683E-06  0.408E-04    0.57      17.0  T
   8   -360.0228628 -0.334779E-07  0.193E-04    0.57      35.9  T
     SCC iter.                  ...        0 min,  1.301 sec
     gradient                   ...        0 min,  0.179 sec
 * total energy  :  -354.4657083 Eh     change       -0.8179694E-03 Eh
   gradient norm :     0.0064303 Eh/α   predicted    -0.7512130E-03 (  -8.16%)
   displ. norm   :     0.8207214 α      lambda       -0.9563027E-03
   maximum displ.:     0.3949049 α      in ANC's #5, #4, #20, ...

........................................................................
.............................. CYCLE   56 ..............................
........................................................................
   1   -360.0266941 -0.360027E+03  0.101E-01    0.56       0.0  T
   2   -360.0267188 -0.246704E-04  0.522E-02    0.56       1.0  T
   3   -360.0266870  0.317623E-04  0.148E-02    0.56       1.0  T
   4   -360.0267216 -0.346041E-04  0.735E-03    0.56       1.0  T
   5   -360.0267262 -0.463587E-05  0.350E-03    0.56       2.0  T
   6   -360.0267289 -0.265422E-05  0.937E-04    0.56       7.4  T
   7   -360.0267291 -0.173478E-06  0.440E-04    0.56      15.7  T
   8   -360.0267291 -0.344345E-07  0.217E-04    0.56      31.9  T
     SCC iter.                  ...        0 min,  1.272 sec
     gradient                   ...        0 min,  0.185 sec
 * total energy  :  -354.4664715 Eh     change       -0.7631577E-03 Eh
   gradient norm :     0.0075021 Eh/α   predicted    -0.8002274E-03 (   4.86%)
   displ. norm   :     0.8555053 α      lambda       -0.8829092E-03
   maximum displ.:     0.4052362 α      in ANC's #5, #4, #20, ...

........................................................................
.............................. CYCLE   57 ..............................
........................................................................
   1   -360.0227189 -0.360023E+03  0.103E-01    0.55       0.0  T
   2   -360.0227432 -0.242557E-04  0.519E-02    0.55       1.0  T
[...]
   141   1 H    0.996 --    24 C    0.966
   142   1 H    0.996 --    27 C    0.982
   143   1 H    0.997 --    27 C    0.983
   144   1 H    0.995 --    27 C    0.978
   145   1 H    0.998 --    28 C    0.965
   146   1 H    0.999 --    29 C    0.966
   147   1 H    0.998 --    31 C    0.966
   148   1 H    0.997 --    32 C    0.967
   149   1 H    0.995 --    35 C    0.978
   150   1 H    0.996 --    35 C    0.982
   151   1 H    0.996 --    35 C    0.982
   152   1 H    0.997 --    36 C    0.964
   153   1 H    0.997 --    37 C    0.961
   154   1 H    0.998 --    44 C    0.966
   155   1 H    0.997 --    45 C    0.968
   156   1 H    0.995 --    48 C    0.977
   157   1 H    0.997 --    48 C    0.983
   158   1 H    0.996 --    48 C    0.979
   159   1 H    0.998 --    49 C    0.965
   160   1 H    0.999 --    50 C    0.959
   161   1 H    0.998 --    52 C    0.962
   162   1 H    0.998 --    53 C    0.966
   163   1 H    0.997 --    56 C    0.981
   164   1 H    0.996 --    56 C    0.980
   165   1 H    0.997 --    56 C    0.983
   166   1 H    0.997 --    57 C    0.967
   167   1 H    0.998 --    58 C    0.966
   168   1 H    0.999 --    65 C    0.958
   169   1 H    0.998 --    66 C    0.965
   170   1 H    0.996 --    69 C    0.979
   171   1 H    0.995 --    69 C    0.978
   172   1 H    0.997 --    69 C    0.983
   173   1 H    0.998 --    70 C    0.968
   174   1 H    0.998 --    71 C    0.965
   175   1 H    0.999 --    73 C    0.959
   176   1 H    0.998 --    74 C    0.965
   177   1 H    0.997 --    77 C    0.976
   178   1 H    0.996 --    77 C    0.979
   179   1 H    0.997 --    77 C    0.983
   180   1 H    0.997 --    78 C    0.968
   181   1 H    0.998 --    79 C    0.967
   182   1 H    0.998 --    86 C    0.966
   183   1 H    0.997 --    87 C    0.967
   184   1 H    0.996 --    90 C    0.983
   185   1 H    0.996 --    90 C    0.978
   186   1 H    0.996 --    90 C    0.979
   187   1 H    0.998 --    91 C    0.964
   188   1 H    0.999 --    92 C    0.966
   189   1 H    0.999 --    94 C    0.967
   190   1 H    0.998 --    95 C    0.965
   191   1 H    0.997 --    98 C    0.983
   192   1 H    0.996 --    98 C    0.981
   193   1 H    0.995 --    98 C    0.978
   194   1 H    0.997 --    99 C    0.967
   195   1 H    0.997 --   100 C    0.963
   196   1 H    0.995 --   109 C    0.969
   197   1 H    0.996 --   109 C    0.969
   198   1 H    0.998 --   110 C    0.987
   199   1 H    0.997 --   110 C    0.986
   200   1 H    0.996 --   110 C    0.984
   201   1 H    0.998 --   112 C    0.961
   202   1 H    0.996 --   113 C    0.960
   203   1 H    0.995 --   116 C    0.939
   204   1 H    0.995 --   121 C    0.963
   205   1 H    0.997 --   123 C    0.985
   206   1 H    0.993 --   123 C    0.964
   207   1 H    0.993 --   123 C    0.965
   208   1 H    0.993 --   126 C    0.956
 ---------------------------------------------------------------------------

Topologies differ in bond orders
Writing corrected topology to xtbtopo.mol

molecular dipole:
                 x           y           z       tot (Debye)
 q only:       -1.320      -1.218      -0.767
   full:       -1.595      -0.327      -1.783       6.138
molecular quadrupole (traceless):
                xx          xy          yy          xz          yz          zz
 q only:     -230.476     -10.868     154.366      76.355      -7.400      76.110
  q+dip:     -241.104     -14.342     168.935      78.440       3.408      72.169
   full:     -246.188     -15.888     165.251      76.549      12.569      80.937

           -------------------------------------------------
          |                Geometry Summary                 |
           -------------------------------------------------

      molecular mass/u    :     1993.6965304
   center of mass at/Å    :        0.0559927       0.2559535      -0.0700260
  moments of inertia/u·Å² :        0.3334506E+05   0.1343124E+06   0.1492539E+06
rotational constants/cm⁻¹ :        0.5055511E-03   0.1255106E-03   0.1129460E-03

 * 190 selected distances

     #   Z          #   Z                                           value/Å
     1   6 C        2   6 C                                       1.3765120
     3   6 C        4   8 O                                       1.2191396
     5   6 C        6   6 C                                       1.3802935
     6   6 C        7   6 C                                       1.3909546
     7   6 C        9   6 C                                       1.3954806
     9   6 C       11   6 C                                       1.3862397
     5   6 C       12   6 C                                       1.4051667
    11   6 C       12   6 C                                       1.3851420
    13   6 C       14   6 C                                       1.3739350
    15   6 C       16   7 N                                       1.1500448
    17   6 C       18   7 N                                       1.1482879
     1   6 C       19   6 C                                       1.3936226
    19   6 C       20   6 C                                       1.4173875
    20   6 C       21   7 N                                       1.3717244
    21   7 N       22   6 C                                       1.4021971
    22   6 C       23   6 C                                       1.3954430
    23   6 C       24   6 C                                       1.3765351
    24   6 C       25   6 C                                       1.3934209
    25   6 C       28   6 C                                       1.3897575
    22   6 C       29   6 C                                       1.3936988
    28   6 C       29   6 C                                       1.3812249
    21   7 N       30   6 C                                       1.4091905
    30   6 C       31   6 C                                       1.3955276
    31   6 C       32   6 C                                       1.3759939
    32   6 C       33   6 C                                       1.3942388
    33   6 C       36   6 C                                       1.3887253
    30   6 C       37   6 C                                       1.3900077
    36   6 C       37   6 C                                       1.3805915
    20   6 C       38   6 C                                       1.4045640
    38   6 C       39  16 S                                       1.7325046
    39  16 S       40   6 C                                       1.7506355
    40   6 C       41   6 C                                       1.3819863
    41   6 C       42   7 N                                       1.3900835
    42   7 N       43   6 C                                       1.4009149
    43   6 C       44   6 C                                       1.3950175
    44   6 C       45   6 C                                       1.3763122
    45   6 C       46   6 C                                       1.3942363
    46   6 C       49   6 C                                       1.3867054
    43   6 C       50   6 C                                       1.3908168
    49   6 C       50   6 C                                       1.3801200
    42   7 N       51   6 C                                       1.4014639
    51   6 C       52   6 C                                       1.3942120
    52   6 C       53   6 C                                       1.3811614
    53   6 C       54   6 C                                       1.3880284
    54   6 C       57   6 C                                       1.3916720
    51   6 C       58   6 C                                       1.3961589
    57   6 C       58   6 C                                       1.3779779
    38   6 C       59   6 C                                       1.3885173
    41   6 C       59   6 C                                       1.4181080
    59   6 C       60  16 S                                       1.7260857
    61   6 C       62   6 C                                       1.3785449
    62   6 C       63   7 N                                       1.4012113
    63   7 N       64   6 C                                       1.3915595
    64   6 C       65   6 C                                       1.3923503
    65   6 C       66   6 C                                       1.3801994
    66   6 C       67   6 C                                       1.3859649
    67   6 C       70   6 C                                       1.3928691
    64   6 C       71   6 C                                       1.3966421
    70   6 C       71   6 C                                       1.3765705
    63   7 N       72   6 C                                       1.4050982
    72   6 C       73   6 C                                       1.3921854
    73   6 C       74   6 C                                       1.3824136
    74   6 C       75   6 C                                       1.3866401
    75   6 C       78   6 C                                       1.3925127
    72   6 C       79   6 C                                       1.3974735
    78   6 C       79   6 C                                       1.3755456
    62   6 C       80   6 C                                       1.4154767
    80   6 C       81  16 S                                       1.7273932
    82   6 C       83   6 C                                       1.3888439
    83   6 C       84   7 N                                       1.3843853
    84   7 N       85   6 C                                       1.3986812
    85   6 C       86   6 C                                       1.3949860
    86   6 C       87   6 C                                       1.3770677
    87   6 C       88   6 C                                       1.3932861
    88   6 C       91   6 C                                       1.3883495
    85   6 C       92   6 C                                       1.3928779
    91   6 C       92   6 C                                       1.3800142
    84   7 N       93   6 C                                       1.4032362
    93   6 C       94   6 C                                       1.3929917
    94   6 C       95   6 C                                       1.3810552
    95   6 C       96   6 C                                       1.3877849
    96   6 C       99   6 C                                       1.3942283
    93   6 C      100   6 C                                       1.3945649
    99   6 C      100   6 C                                       1.3766927
    80   6 C      101   6 C                                       1.3860828
    83   6 C      101   6 C                                       1.4161125
    61   6 C      102  16 S                                       1.7469277
   101   6 C      102  16 S                                       1.7248443
    82   6 C      103   6 C                                       1.4278850
   103   6 C      104  16 S                                       1.7586788 (max)
   104  16 S      105   6 C                                       1.7259558
   105   6 C      106   6 C                                       1.3926552
   106   6 C      107   6 C                                       1.4235920
   107   6 C      108   7 N                                       1.3719785
   108   7 N      109   6 C                                       1.4395634
   109   6 C      110   6 C                                       1.5270495
   105   6 C      111   6 C                                       1.4138270
   108   7 N      111   6 C                                       1.3657655
   103   6 C      112   6 C                                       1.3776250
   111   6 C      112   6 C                                       1.3971234
   107   6 C      113   6 C                                       1.3798000
   113   6 C      114   6 C                                       1.4004187
   106   6 C      115  16 S                                       1.7224912
   114   6 C      116   6 C                                       1.3986340
   116   6 C      117   6 C                                       1.3744728
   118   6 C      119   8 O                                       1.2185351
   120   6 C      121   6 C                                       1.3804463
   121   6 C      122   6 C                                       1.3906518
   122   6 C      124   6 C                                       1.3956585
   124   6 C      126   6 C                                       1.3858836
   120   6 C      127   6 C                                       1.4048085
   126   6 C      127   6 C                                       1.3854965
   128   6 C      129   6 C                                       1.3721721
   130   6 C      131   7 N                                       1.1481272
   132   6 C      133   7 N                                       1.1493136
     1   6 C      134   1 H                                       1.0825371
     6   6 C      135   1 H                                       1.0794906
     8   6 C      136   1 H                                       1.0895754
     8   6 C      137   1 H                                       1.0895262
     8   6 C      138   1 H                                       1.0860123
    11   6 C      139   1 H                                       1.0773500
    23   6 C      140   1 H                                       1.0779258
    24   6 C      141   1 H                                       1.0781669
    27   6 C      142   1 H                                       1.0864024
    27   6 C      143   1 H                                       1.0860247
    27   6 C      144   1 H                                       1.0855122
    28   6 C      145   1 H                                       1.0786663
    29   6 C      146   1 H                                       1.0807356
    31   6 C      147   1 H                                       1.0798986
    32   6 C      148   1 H                                       1.0790681
    35   6 C      149   1 H                                       1.0856134
    35   6 C      150   1 H                                       1.0860772
    35   6 C      151   1 H                                       1.0858483
    36   6 C      152   1 H                                       1.0774228
    37   6 C      153   1 H                                       1.0784921
    44   6 C      154   1 H                                       1.0796214
    45   6 C      155   1 H                                       1.0796677
    48   6 C      156   1 H                                       1.0865697
    48   6 C      157   1 H                                       1.0861894
    48   6 C      158   1 H                                       1.0856019
    49   6 C      159   1 H                                       1.0775720
    50   6 C      160   1 H                                       1.0779673
    52   6 C      161   1 H                                       1.0790088
    53   6 C      162   1 H                                       1.0788113
    56   6 C      163   1 H                                       1.0857043
    56   6 C      164   1 H                                       1.0855417
    56   6 C      165   1 H                                       1.0858478
    57   6 C      166   1 H                                       1.0789291
    58   6 C      167   1 H                                       1.0797283
    65   6 C      168   1 H                                       1.0781461
    66   6 C      169   1 H                                       1.0782696
    69   6 C      170   1 H                                       1.0861309
    69   6 C      171   1 H                                       1.0855555
    69   6 C      172   1 H                                       1.0863389
    70   6 C      173   1 H                                       1.0796055
    71   6 C      174   1 H                                       1.0792280
    73   6 C      175   1 H                                       1.0794051
    74   6 C      176   1 H                                       1.0786881
    77   6 C      177   1 H                                       1.0868089
    77   6 C      178   1 H                                       1.0856845
    77   6 C      179   1 H                                       1.0859023
    78   6 C      180   1 H                                       1.0789337
    79   6 C      181   1 H                                       1.0796199
    86   6 C      182   1 H                                       1.0800990
    87   6 C      183   1 H                                       1.0793222
    90   6 C      184   1 H                                       1.0863529
    90   6 C      185   1 H                                       1.0858342
    90   6 C      186   1 H                                       1.0856660
    91   6 C      187   1 H                                       1.0783645
    92   6 C      188   1 H                                       1.0801627
    94   6 C      189   1 H                                       1.0807486
    95   6 C      190   1 H                                       1.0780036
    98   6 C      191   1 H                                       1.0860340
    98   6 C      192   1 H                                       1.0855460
    98   6 C      193   1 H                                       1.0852965
    99   6 C      194   1 H                                       1.0789473
   100   6 C      195   1 H                                       1.0789539
   109   6 C      196   1 H                                       1.0933384
   109   6 C      197   1 H                                       1.0926744
   110   6 C      198   1 H                                       1.0876061
   110   6 C      199   1 H                                       1.0873275
   110   6 C      200   1 H                                       1.0862372
   112   6 C      201   1 H                                       1.0739666 (min)
   113   6 C      202   1 H                                       1.0751229
   116   6 C      203   1 H                                       1.0832818
   121   6 C      204   1 H                                       1.0794098
   123   6 C      205   1 H                                       1.0860077
   123   6 C      206   1 H                                       1.0895805
   123   6 C      207   1 H                                       1.0895061
   126   6 C      208   1 H                                       1.0772642

 * 5 distinct bonds (by element types)

   Z      Z             #   av. dist./Å        max./Å        min./Å
   1 H    6 C          75     1.0826144     1.0933384     1.0739666
   6 C    6 C          85     1.3920473     1.5270495     1.3721721
   6 C    7 N          19     1.3438330     1.4395634     1.1481272
   6 C    8 O           2     1.2188373     1.2191396     1.2185351
   6 C   16 S           9     1.7350574     1.7586788     1.7224912


optimized geometry written to: xtbopt.mol


           -------------------------------------------------
          | TOTAL ENERGY             -354.544099914919 Eh   |
          | GRADIENT NORM               0.000447821493 Eh/α |
          | HOMO-LUMO GAP               0.659601058373 eV   |
           -------------------------------------------------

------------------------------------------------------------------------
 * finished run on 2022/02/14 at 10:46:38.360     
------------------------------------------------------------------------
 total:
 * wall-time:     0 d,  0 h,  9 min, 43.028 sec
 *  cpu-time:     0 d,  0 h, 59 min, 40.788 sec
 * ratio c/w:     6.142 speedup
 SCF:
 * wall-time:     0 d,  0 h,  0 min,  2.227 sec
 *  cpu-time:     0 d,  0 h,  0 min, 11.072 sec
 * ratio c/w:     4.972 speedup
 ANC optimizer:
 * wall-time:     0 d,  0 h,  9 min, 40.664 sec
 *  cpu-time:     0 d,  0 h, 59 min, 29.006 sec
 * ratio c/w:     6.146 speedup

