      -----------------------------------------------------------      
     |                   =====================                   |     
     |                           x T B                           |     
     |                   =====================                   |     
     |                         S. Grimme                         |     
     |          Mulliken Center for Theoretical Chemistry        |     
     |                    University of Bonn                     |     
      -----------------------------------------------------------      

   * xtb version 6.4.1 (unknown) compiled by 'oda6@login1.crc.pitt.edu' on 2021-06-25

   xtb is free software: you can redistribute it and/or modify it under
   the terms of the GNU Lesser General Public License as published by
   the Free Software Foundation, either version 3 of the License, or
   (at your option) any later version.
   
   xtb is distributed in the hope that it will be useful,
   but WITHOUT ANY WARRANTY; without even the implied warranty of
   MERCHANTABILITY or FITNESS FOR A PARTICULAR PURPOSE.  See the
   GNU Lesser General Public License for more details.
   
   Cite this work as:
   * C. Bannwarth, E. Caldeweyher, S. Ehlert, A. Hansen, P. Pracht,
     J. Seibert, S. Spicher, S. Grimme, WIREs Comput. Mol. Sci., 2020, 11,
     e01493. DOI: 10.1002/wcms.1493
   
   for GFN2-xTB:
   * C. Bannwarth, S. Ehlert and S. Grimme., J. Chem. Theory Comput., 2019,
     15, 1652-1671. DOI: 10.1021/acs.jctc.8b01176
   for GFN1-xTB:
   * S. Grimme, C. Bannwarth, P. Shushkov, J. Chem. Theory Comput., 2017,
     13, 1989-2009. DOI: 10.1021/acs.jctc.7b00118
   for GFN0-xTB:
   * P. Pracht, E. Caldeweyher, S. Ehlert, S. Grimme, ChemRxiv, 2019, preprint.
     DOI: 10.26434/chemrxiv.8326202.v1
   for GFN-FF:
   * S. Spicher and S. Grimme, Angew. Chem. Int. Ed., 2020, 59, 15665-15673.
     DOI: 10.1002/anie.202004239
   
   for DFT-D4:
   * E. Caldeweyher, C. Bannwarth and S. Grimme, J. Chem. Phys., 2017,
     147, 034112. DOI: 10.1063/1.4993215
   * E. Caldeweyher, S. Ehlert, A. Hansen, H. Neugebauer, S. Spicher,
     C. Bannwarth and S. Grimme, J. Chem. Phys., 2019, 150, 154122.
     DOI: 10.1063/1.5090222
   * E. Caldeweyher, J.-M. Mewes, S. Ehlert and S. Grimme, Phys. Chem. Chem. Phys.
     2020, 22, 8499-8512. DOI: 10.1039/D0CP00502A
   
   for sTDA-xTB:
   * S. Grimme and C. Bannwarth, J. Chem. Phys., 2016, 145, 054103.
     DOI: 10.1063/1.4959605
   
   in the mass-spec context:
   * V. Asgeirsson, C. Bauer and S. Grimme, Chem. Sci., 2017, 8, 4879.
     DOI: 10.1039/c7sc00601b
   * J. Koopman and S. Grimme, ACS Omega 2019, 4, 12, 15120-15133.
     DOI: 10.1021/acsomega.9b02011
   
   for metadynamics refer to:
   * S. Grimme, J. Chem. Theory Comput., 2019, 155, 2847-2862
     DOI: 10.1021/acs.jctc.9b00143
   
   for SPH calculations refer to:
   * S. Spicher and S. Grimme, J. Chem. Theory Comput., 2021, 17, 1701-1714
     DOI: 10.1021/acs.jctc.0c01306
   
   with help from (in alphabetical order)
   P. Atkinson, C. Bannwarth, F. Bohle, G. Brandenburg, E. Caldeweyher
   M. Checinski, S. Dohm, S. Ehlert, S. Ehrlich, I. Gerasimov, J. Koopman
   C. Lavigne, S. Lehtola, F. März, M. Müller, F. Musil, H. Neugebauer
   J. Pisarek, C. Plett, P. Pracht, J. Seibert, P. Shushkov, S. Spicher
   M. Stahn, M. Steiner, T. Strunk, J. Stückrath, T. Rose, and J. Unsleber
   
 * started run on 2022/02/03 at 20:23:30.582     

           -------------------------------------------------
          |                Calculation Setup                |
           -------------------------------------------------

          program call               : /ihome/ghutchison/oda6/xtb/xtb-641/bin/xtb ../../FF_optimized/30_19_71_63_29.mol -opt
          hostname                   : smp-n57
          coordinate file            : ../../FF_optimized/30_19_71_63_29.mol
          omp threads                :                     8
          number of atoms            :                   127
          number of electrons        :                   412
          charge                     :                     0
          spin                       :                   0.0
          first test random number   :      0.44001668663761

   ID    Z sym.   atoms
    1    6 C      1-3, 5-15, 17, 19-21, 23-25, 29-37, 39-49, 51-54, 56, 57,
                  59-62, 64-66, 68-70, 72-76, 78-82, 84
    2    8 O      4, 63, 71
    3    7 N      16, 18, 26, 28, 83, 85
    4    9 F      22, 77
    5   16 S      27, 38, 50, 55, 58, 67
    6    1 H      86-127
########################################################################
[WARNING] Please study the warnings concerning your input carefully
-1- prog_main_parseArguments: the use of '-opt' is discouraged, please use '--opt' next time
########################################################################

           -------------------------------------------------
          |                 G F N 2 - x T B                 |
           -------------------------------------------------

        Reference                      10.1021/acs.jctc.8b01176
      * Hamiltonian:
        H0-scaling (s, p, d)           1.850000    2.230000    2.230000
        zeta-weighting                 0.500000
      * Dispersion:
        s8                             2.700000
        a1                             0.520000
        a2                             5.000000
        s9                             5.000000
      * Repulsion:
        kExp                           1.500000    1.000000
        rExp                           1.000000
      * Coulomb:
        alpha                          2.000000
        third order                    shell-resolved
        anisotropic                    true
        a3                             3.000000
        a5                             4.000000
        cn-shift                       1.200000
        cn-exp                         4.000000
        max-rad                        5.000000


          ...................................................
          :                      SETUP                      :
          :.................................................:
          :  # basis functions                 418          :
          :  # atomic orbitals                 412          :
          :  # shells                          218          :
          :  # electrons                       412          :
          :  max. iterations                   250          :
          :  Hamiltonian                  GFN2-xTB          :
          :  restarted?                      false          :
          :  GBSA solvation                  false          :
          :  PC potential                    false          :
          :  electronic temp.          300.0000000     K    :
          :  accuracy                    1.0000000          :
          :  -> integral cutoff          0.2500000E+02      :
          :  -> integral neglect         0.1000000E-07      :
          :  -> SCF convergence          0.1000000E-05 Eh   :
          :  -> wf. convergence          0.1000000E-03 e    :
          :  Broyden damping             0.4000000          :
          ...................................................

 iter      E             dE          RMSdq      gap      omega  full diag
   1   -228.4024581 -0.228402E+03  0.505E+00    1.52       0.0  T
   2   -228.5611208 -0.158663E+00  0.310E+00    1.05       1.0  T
   3   -228.3545143  0.206606E+00  0.217E+00    0.65       1.0  T
   4   -228.7114138 -0.356900E+00  0.772E-01    0.35       1.0  T
   5   -228.7708829 -0.594691E-01  0.235E-01    0.33       1.0  T
   6   -228.7720266 -0.114363E-02  0.116E-01    0.37       1.0  T
   7   -228.7728319 -0.805293E-03  0.609E-02    0.42       1.0  T
   8   -228.7731873 -0.355456E-03  0.244E-02    0.41       1.0  T
   9   -228.7732119 -0.246186E-04  0.151E-02    0.41       1.0  T
  10   -228.7732289 -0.169393E-04  0.593E-03    0.41       1.5  T
  11   -228.7732307 -0.182974E-05  0.271E-03    0.41       3.3  T
  12   -228.7732312 -0.445540E-06  0.124E-03    0.41       7.2  T
  13   -228.7732312 -0.381496E-07  0.748E-04    0.41      11.9  T
  14   -228.7732312 -0.279162E-07  0.366E-04    0.41      24.2  T

   *** convergence criteria satisfied after 14 iterations ***

         #    Occupation            Energy/Eh            Energy/eV
      -------------------------------------------------------------
         1        2.0000           -0.8368139             -22.7709
       ...           ...                  ...                  ...
       200        2.0000           -0.4095738             -11.1451
       201        2.0000           -0.4037176             -10.9857
       202        2.0000           -0.3998396             -10.8802
       203        2.0000           -0.3935880             -10.7101
       204        2.0000           -0.3702220             -10.0743
       205        2.0000           -0.3632548              -9.8847
       206        1.9993           -0.3579641              -9.7407 (HOMO)
       207        0.0007           -0.3428034              -9.3282 (LUMO)
       208        0.0000           -0.3371231              -9.1736
       209                         -0.3322676              -9.0415
       210                         -0.3283004              -8.9335
       211                         -0.3261643              -8.8754
       ...                                ...                  ...
       412                          1.0747888              29.2465
      -------------------------------------------------------------
                  HL-Gap            0.0151607 Eh            0.4125 eV
             Fermi-level           -0.3503832 Eh           -9.5344 eV

 SCC (total)                   0 d,  0 h,  0 min,  0.311 sec
 SCC setup                      ...        0 min,  0.001 sec (  0.267%)
 Dispersion                     ...        0 min,  0.006 sec (  1.812%)
 classical contributions        ...        0 min,  0.000 sec (  0.057%)
 integral evaluation            ...        0 min,  0.019 sec (  6.253%)
 iterations                     ...        0 min,  0.234 sec ( 75.327%)
 molecular gradient             ...        0 min,  0.049 sec ( 15.810%)
 printout                       ...        0 min,  0.001 sec (  0.445%)

         :::::::::::::::::::::::::::::::::::::::::::::::::::::
         ::                     SUMMARY                     ::
         :::::::::::::::::::::::::::::::::::::::::::::::::::::
         :: total energy            -225.450312362396 Eh    ::
         :: gradient norm              0.293270533994 Eh/a0 ::
         :: HOMO-LUMO gap              0.412542334062 eV    ::
         ::.................................................::
         :: SCC energy              -228.773231223163 Eh    ::
         :: -> isotropic ES            0.166401235373 Eh    ::
         :: -> anisotropic ES          0.013300608701 Eh    ::
         :: -> anisotropic XC          0.154805988540 Eh    ::
         :: -> dispersion             -0.191165861431 Eh    ::
         :: repulsion energy           3.320852186941 Eh    ::
         :: add. restraining           0.000000000000 Eh    ::
         :: total charge              -0.000000000000 e     ::
         :::::::::::::::::::::::::::::::::::::::::::::::::::::

      ----------------------------------------------------------- 
     |                   =====================                   |
     |                        A N C O P T                        |
     |                   =====================                   |
     |               Approximate Normal Coordinate               |
     |                Rational Function Optimizer                |
      ----------------------------------------------------------- 

          ...................................................
          :                      SETUP                      :
          :.................................................:
          :   optimization level            normal          :
          :   max. optcycles                   381          :
          :   ANC micro-cycles                  20          :
          :   degrees of freedom               375          :
          :.................................................:
          :   RF solver                   davidson          :
          :   write xtbopt.log                true          :
          :   linear?                        false          :
          :   energy convergence         0.5000000E-05 Eh   :
          :   grad. convergence          0.1000000E-02 Eh/α :
          :   maximium RF displ.         1.0000000          :
          :   Hlow (freq-cutoff)         0.1000000E-01      :
          :   Hmax (freq-cutoff)         5.0000000          :
          :   S6 in model hess.         20.0000000          :
          ...................................................

generating ANC from model Hessian ...
Using Lindh-Hessian (1995)
 Shifting diagonal of input Hessian by   9.994179982000494E-003
 Lowest  eigenvalues of input Hessian
    0.000000    0.000000    0.000000    0.000000    0.000000    0.000000
    0.010000    0.010007    0.010011    0.010032    0.010051    0.010055
    0.010081    0.010112    0.010145    0.010217    0.010238    0.010333
 Highest eigenvalues
    2.143045    2.145644    2.492544    2.495532    2.547991    2.553882
 

........................................................................
.............................. CYCLE    1 ..............................
........................................................................
   1   -228.7732312 -0.228773E+03  0.170E-04    0.41       0.0  T
   2   -228.7732312  0.436870E-09  0.147E-04    0.41      60.4  T
   3   -228.7732312 -0.205875E-08  0.813E-05    0.41     109.1  T
     SCC iter.                  ...        0 min,  0.053 sec
     gradient                   ...        0 min,  0.048 sec
 * total energy  :  -225.4503124 Eh     change       -0.9304557E-08 Eh
   gradient norm :     0.2932724 Eh/α   predicted     0.0000000E+00 (-100.00%)
   displ. norm   :     0.4178919 α      lambda       -0.8620173E-01
   maximum displ.:     0.1072844 α      in ANC's #240, #239, #238, ...

........................................................................
.............................. CYCLE    2 ..............................
........................................................................
   1   -228.9811913 -0.228981E+03  0.305E-01    0.45       0.0  T
   2   -228.9826179 -0.142665E-02  0.169E-01    0.45       1.0  T
   3   -228.9824087  0.209273E-03  0.932E-02    0.45       1.0  T
   4   -228.9827429 -0.334191E-03  0.450E-02    0.44       1.0  T
   5   -228.9828889 -0.146014E-03  0.183E-02    0.45       1.0  T
   6   -228.9829117 -0.228633E-04  0.831E-03    0.45       1.1  T
   7   -228.9829166 -0.483739E-05  0.336E-03    0.45       2.6  T
   8   -228.9829173 -0.730143E-06  0.172E-03    0.45       5.2  T
   9   -228.9829174 -0.125086E-06  0.945E-04    0.45       9.4  T
  10   -228.9829175 -0.468739E-07  0.365E-04    0.45      24.3  T
     SCC iter.                  ...        0 min,  0.172 sec
     gradient                   ...        0 min,  0.048 sec
 * total energy  :  -225.5120448 Eh     change       -0.6173239E-01 Eh
   gradient norm :     0.1380263 Eh/α   predicted    -0.5066073E-01 ( -17.93%)
   displ. norm   :     0.3862509 α      lambda       -0.3281086E-01
   maximum displ.:     0.0841860 α      in ANC's #73, #81, #239, ...

........................................................................
.............................. CYCLE    3 ..............................
........................................................................
   1   -229.0899746 -0.229090E+03  0.242E-01    0.44       0.0  T
   2   -229.0909107 -0.936037E-03  0.131E-01    0.45       1.0  T
   3   -229.0907974  0.113287E-03  0.703E-02    0.45       1.0  T
   4   -229.0909814 -0.184001E-03  0.355E-02    0.44       1.0  T
   5   -229.0910757 -0.942894E-04  0.130E-02    0.45       1.0  T
   6   -229.0910865 -0.108804E-04  0.644E-03    0.45       1.4  T
   7   -229.0910896 -0.304573E-05  0.266E-03    0.45       3.3  T
   8   -229.0910901 -0.466335E-06  0.127E-03    0.45       7.0  T
   9   -229.0910901 -0.816744E-07  0.677E-04    0.45      13.1  T
  10   -229.0910902 -0.195383E-07  0.265E-04    0.45      33.5  T
     SCC iter.                  ...        0 min,  0.171 sec
     gradient                   ...        0 min,  0.048 sec
 * total energy  :  -225.5309882 Eh     change       -0.1894342E-01 Eh
   gradient norm :     0.0378237 Eh/α   predicted    -0.1885295E-01 (  -0.48%)
   displ. norm   :     0.3860612 α      lambda       -0.5467869E-02
   maximum displ.:     0.1174380 α      in ANC's #22, #73, #69, ...

........................................................................
.............................. CYCLE    4 ..............................
........................................................................
   1   -229.1108563 -0.229111E+03  0.150E-01    0.45       0.0  T
   2   -229.1109192 -0.628747E-04  0.850E-02    0.45       1.0  T
   3   -229.1108010  0.118143E-03  0.364E-02    0.45       1.0  T
   4   -229.1109416 -0.140592E-03  0.101E-02    0.45       1.0  T
   5   -229.1109501 -0.844873E-05  0.453E-03    0.45       2.0  T
   6   -229.1109512 -0.111622E-05  0.217E-03    0.45       4.1  T
   7   -229.1109516 -0.397709E-06  0.770E-04    0.45      11.5  T
   8   -229.1109516 -0.223677E-07  0.424E-04    0.45      20.9  T
     SCC iter.                  ...        0 min,  0.137 sec
     gradient                   ...        0 min,  0.048 sec
 * total energy  :  -225.5342692 Eh     change       -0.3281037E-02 Eh
   gradient norm :     0.0177029 Eh/α   predicted    -0.3141445E-02 (  -4.25%)
   displ. norm   :     0.5362076 α      lambda       -0.4693259E-02
   maximum displ.:     0.1807710 α      in ANC's #22, #17, #73, ...

........................................................................
.............................. CYCLE    5 ..............................
........................................................................
   1   -229.1190687 -0.229119E+03  0.258E-01    0.43       0.0  T
   2   -229.1192259 -0.157160E-03  0.145E-01    0.44       1.0  T
   3   -229.1189742  0.251619E-03  0.505E-02    0.43       1.0  T
   4   -229.1192875 -0.313310E-03  0.120E-02    0.44       1.0  T
   5   -229.1192986 -0.110913E-04  0.614E-03    0.44       1.4  T
   6   -229.1193011 -0.243668E-05  0.269E-03    0.44       3.3  T
   7   -229.1193016 -0.557851E-06  0.982E-04    0.44       9.0  T
   8   -229.1193017 -0.463819E-07  0.489E-04    0.44      18.2  T
     SCC iter.                  ...        0 min,  0.135 sec
     gradient                   ...        0 min,  0.048 sec
 * total energy  :  -225.5353527 Eh     change       -0.1083486E-02 Eh
   gradient norm :     0.0343506 Eh/α   predicted    -0.3021355E-02 ( 178.86%)
   displ. norm   :     0.2541206 α      lambda       -0.2968018E-02
   maximum displ.:     0.1106022 α      in ANC's #22, #38, #21, ...

........................................................................
.............................. CYCLE    6 ..............................
........................................................................
   1   -229.1222984 -0.229122E+03  0.147E-01    0.45       0.0  T
   2   -229.1223436 -0.452265E-04  0.818E-02    0.45       1.0  T
   3   -229.1222887  0.548845E-04  0.229E-02    0.45       1.0  T
   4   -229.1223610 -0.722352E-04  0.494E-03    0.45       1.8  T
   5   -229.1223625 -0.149992E-05  0.285E-03    0.45       3.1  T
   6   -229.1223631 -0.629837E-06  0.115E-03    0.45       7.7  T
   7   -229.1223632 -0.790549E-07  0.461E-04    0.45      19.3  T
   8   -229.1223632 -0.139705E-07  0.198E-04    0.45      44.8  T
     SCC iter.                  ...        0 min,  0.139 sec
     gradient                   ...        0 min,  0.048 sec
 * total energy  :  -225.5369677 Eh     change       -0.1615032E-02 Eh
   gradient norm :     0.0219331 Eh/α   predicted    -0.1579842E-02 (  -2.18%)
   displ. norm   :     0.3450092 α      lambda       -0.1728059E-02
   maximum displ.:     0.1406254 α      in ANC's #22, #21, #36, ...

........................................................................
.............................. CYCLE    7 ..............................
........................................................................
   1   -229.1131747 -0.229113E+03  0.179E-01    0.45       0.0  T
   2   -229.1132331 -0.583931E-04  0.999E-02    0.45       1.0  T
   3   -229.1129697  0.263391E-03  0.476E-02    0.44       1.0  T
   4   -229.1132779 -0.308167E-03  0.630E-03    0.45       1.4  T
   5   -229.1132798 -0.191115E-05  0.383E-03    0.45       2.3  T
   6   -229.1132810 -0.117559E-05  0.145E-03    0.45       6.1  T
   7   -229.1132811 -0.112751E-06  0.649E-04    0.45      13.7  T
   8   -229.1132811 -0.307920E-07  0.267E-04    0.45      33.3  T
     SCC iter.                  ...        0 min,  0.140 sec
     gradient                   ...        0 min,  0.048 sec
 * total energy  :  -225.5372316 Eh     change       -0.2638844E-03 Eh
   gradient norm :     0.0313110 Eh/α   predicted    -0.9668776E-03 ( 266.40%)
   displ. norm   :     0.2825346 α      lambda       -0.1943930E-02
   maximum displ.:     0.1362559 α      in ANC's #22, #34, #27, ...

........................................................................
.............................. CYCLE    8 ..............................
........................................................................
   1   -229.1186110 -0.229119E+03  0.124E-01    0.45       0.0  T
   2   -229.1186447 -0.337152E-04  0.690E-02    0.45       1.0  T
   3   -229.1185874  0.572848E-04  0.244E-02    0.45       1.0  T
   4   -229.1186593 -0.718913E-04  0.409E-03    0.45       2.2  T
   5   -229.1186601 -0.784277E-06  0.252E-03    0.45       3.5  T
   6   -229.1186607 -0.576077E-06  0.970E-04    0.45       9.1  T
   7   -229.1186607 -0.451807E-07  0.440E-04    0.45      20.2  T
     SCC iter.                  ...        0 min,  0.122 sec
     gradient                   ...        0 min,  0.048 sec
 * total energy  :  -225.5382345 Eh     change       -0.1002836E-02 Eh
   gradient norm :     0.0162964 Eh/α   predicted    -0.1049553E-02 (   4.66%)
   displ. norm   :     0.3395589 α      lambda       -0.1167411E-02
   maximum displ.:     0.1743485 α      in ANC's #22, #27, #31, ...

........................................................................
.............................. CYCLE    9 ..............................
........................................................................
   1   -229.1199420 -0.229120E+03  0.134E-01    0.45       0.0  T
   2   -229.1199807 -0.387460E-04  0.749E-02    0.45       1.0  T
   3   -229.1198795  0.101235E-03  0.286E-02    0.46       1.0  T
   4   -229.1200014 -0.121857E-03  0.471E-03    0.45       1.9  T
   5   -229.1200025 -0.111551E-05  0.255E-03    0.45       3.5  T
   6   -229.1200029 -0.432821E-06  0.103E-03    0.45       8.6  T
   7   -229.1200030 -0.558012E-07  0.472E-04    0.45      18.8  T
   8   -229.1200030 -0.173017E-07  0.197E-04    0.45      44.9  T
     SCC iter.                  ...        0 min,  0.137 sec
     gradient                   ...        0 min,  0.048 sec
 * total energy  :  -225.5385853 Eh     change       -0.3508721E-03 Eh
   gradient norm :     0.0350748 Eh/α   predicted    -0.6510076E-03 (  85.54%)
   displ. norm   :     0.3251695 α      lambda       -0.1356920E-02
   maximum displ.:     0.1144163 α      in ANC's #22, #24, #14, ...

........................................................................
.............................. CYCLE   10 ..............................
........................................................................
   1   -229.1326906 -0.229133E+03  0.846E-02    0.45       0.0  T
   2   -229.1327070 -0.163557E-04  0.479E-02    0.45       1.0  T
   3   -229.1326563  0.507071E-04  0.223E-02    0.45       1.0  T
   4   -229.1327159 -0.596138E-04  0.359E-03    0.45       2.5  T
   5   -229.1327164 -0.546411E-06  0.218E-03    0.45       4.1  T
   6   -229.1327169 -0.433890E-06  0.886E-04    0.45      10.0  T
   7   -229.1327169 -0.407073E-07  0.414E-04    0.45      21.4  T
     SCC iter.                  ...        0 min,  0.117 sec
     gradient                   ...        0 min,  0.048 sec
 * total energy  :  -225.5392292 Eh     change       -0.6438566E-03 Eh
   gradient norm :     0.0176034 Eh/α   predicted    -0.7502010E-03 (  16.52%)
   displ. norm   :     0.4226990 α      lambda       -0.1182248E-02
   maximum displ.:     0.1931371 α      in ANC's #22, #17, #24, ...

........................................................................
.............................. CYCLE   11 ..............................
........................................................................
   1   -229.1216424 -0.229122E+03  0.151E-01    0.44       0.0  T
   2   -229.1216767 -0.343407E-04  0.838E-02    0.45       1.0  T
   3   -229.1215490  0.127713E-03  0.341E-02    0.44       1.0  T
   4   -229.1216994 -0.150348E-03  0.534E-03    0.45       1.7  T
   5   -229.1217006 -0.125846E-05  0.301E-03    0.44       2.9  T
   6   -229.1217013 -0.649507E-06  0.112E-03    0.44       7.9  T
   7   -229.1217013 -0.663039E-07  0.458E-04    0.44      19.4  T
   8   -229.1217013 -0.153589E-07  0.207E-04    0.44      42.8  T
     SCC iter.                  ...        0 min,  0.132 sec
     gradient                   ...        0 min,  0.048 sec
 * total energy  :  -225.5397147 Eh     change       -0.4855216E-03 Eh
   gradient norm :     0.0220574 Eh/α   predicted    -0.6967480E-03 (  43.51%)
   displ. norm   :     0.3904522 α      lambda       -0.1036900E-02
   maximum displ.:     0.1664974 α      in ANC's #22, #24, #2, ...

........................................................................
.............................. CYCLE   12 ..............................
........................................................................
   1   -229.1231222 -0.229123E+03  0.109E-01    0.46       0.0  T
   2   -229.1231405 -0.183494E-04  0.613E-02    0.45       1.0  T
   3   -229.1230876  0.529187E-04  0.220E-02    0.45       1.0  T
   4   -229.1231513 -0.637036E-04  0.364E-03    0.45       2.4  T
   5   -229.1231515 -0.228094E-06  0.241E-03    0.45       3.7  T
   6   -229.1231520 -0.470190E-06  0.828E-04    0.45      10.7  T
   7   -229.1231521 -0.366300E-07  0.375E-04    0.45      23.7  T
     SCC iter.                  ...        0 min,  0.116 sec
     gradient                   ...        0 min,  0.048 sec
 * total energy  :  -225.5403297 Eh     change       -0.6150072E-03 Eh
   gradient norm :     0.0119626 Eh/α   predicted    -0.5974906E-03 (  -2.85%)
   displ. norm   :     0.4645973 α      lambda       -0.8328223E-03
   maximum displ.:     0.1634455 α      in ANC's #22, #2, #24, ...

........................................................................
.............................. CYCLE   13 ..............................
........................................................................
   1   -229.1284597 -0.229128E+03  0.881E-02    0.45       0.0  T
   2   -229.1284721 -0.124082E-04  0.504E-02    0.45       1.0  T
   3   -229.1283851  0.869646E-04  0.264E-02    0.45       1.0  T
   4   -229.1284844 -0.992739E-04  0.414E-03    0.45       2.1  T
   5   -229.1284853 -0.864407E-06  0.226E-03    0.45       3.9  T
   6   -229.1284856 -0.366952E-06  0.837E-04    0.45      10.6  T
   7   -229.1284857 -0.363910E-07  0.434E-04    0.45      20.4  T
     SCC iter.                  ...        0 min,  0.128 sec
     gradient                   ...        0 min,  0.048 sec
 * total energy  :  -225.5409270 Eh     change       -0.5972590E-03 Eh
   gradient norm :     0.0141112 Eh/α   predicted    -0.5062953E-03 ( -15.23%)
   displ. norm   :     0.6070179 α      lambda       -0.7317687E-03
   maximum displ.:     0.2068440 α      in ANC's #22, #2, #24, ...

........................................................................
.............................. CYCLE   14 ..............................
........................................................................
   1   -229.1287036 -0.229129E+03  0.981E-02    0.45       0.0  T
   2   -229.1287166 -0.130520E-04  0.557E-02    0.44       1.0  T
   3   -229.1286556  0.610436E-04  0.217E-02    0.44       1.0  T
   4   -229.1287260 -0.704289E-04  0.452E-03    0.44       2.0  T
   5   -229.1287268 -0.763240E-06  0.267E-03    0.44       3.3  T
   6   -229.1287273 -0.511640E-06  0.802E-04    0.44      11.1  T
   7   -229.1287273 -0.446080E-07  0.405E-04    0.44      21.9  T
     SCC iter.                  ...        0 min,  0.123 sec
     gradient                   ...        0 min,  0.048 sec
 * total energy  :  -225.5415513 Eh     change       -0.6242940E-03 Eh
   gradient norm :     0.0107671 Eh/α   predicted    -0.5007026E-03 ( -19.80%)
   displ. norm   :     0.6660663 α      lambda       -0.8438675E-03
   maximum displ.:     0.2273063 α      in ANC's #2, #24, #14, ...

........................................................................
.............................. CYCLE   15 ..............................
........................................................................
   1   -229.1316855 -0.229132E+03  0.105E-01    0.44       0.0  T
   2   -229.1316994 -0.139324E-04  0.593E-02    0.43       1.0  T
   3   -229.1316076  0.917858E-04  0.267E-02    0.44       1.0  T
   4   -229.1317117 -0.104139E-03  0.495E-03    0.43       1.8  T
   5   -229.1317128 -0.106929E-05  0.284E-03    0.43       3.1  T
   6   -229.1317134 -0.560328E-06  0.946E-04    0.43       9.4  T
   7   -229.1317134 -0.657631E-07  0.448E-04    0.43      19.8  T
     SCC iter.                  ...        0 min,  0.120 sec
     gradient                   ...        0 min,  0.048 sec
 * total energy  :  -225.5422036 Eh     change       -0.6522974E-03 Eh
   gradient norm :     0.0101166 Eh/α   predicted    -0.6091262E-03 (  -6.62%)
   displ. norm   :     0.7386122 α      lambda       -0.7747303E-03
   maximum displ.:     0.2569687 α      in ANC's #2, #24, #14, ...

........................................................................
.............................. CYCLE   16 ..............................
........................................................................
   1   -229.1233222 -0.229123E+03  0.129E-01    0.43       0.0  T
   2   -229.1233459 -0.236551E-04  0.725E-02    0.43       1.0  T
   3   -229.1232531  0.927161E-04  0.274E-02    0.43       1.0  T
   4   -229.1233612 -0.108040E-03  0.578E-03    0.42       1.5  T
   5   -229.1233624 -0.122005E-05  0.335E-03    0.42       2.6  T
   6   -229.1233632 -0.788203E-06  0.108E-03    0.42       8.2  T
   7   -229.1233633 -0.866683E-07  0.486E-04    0.42      18.3  T
   8   -229.1233633 -0.130685E-07  0.234E-04    0.42      38.0  T
     SCC iter.                  ...        0 min,  0.136 sec
     gradient                   ...        0 min,  0.048 sec
 * total energy  :  -225.5427521 Eh     change       -0.5485459E-03 Eh
   gradient norm :     0.0119709 Eh/α   predicted    -0.5986975E-03 (   9.14%)
   displ. norm   :     0.5863365 α      lambda       -0.6504385E-03
   maximum displ.:     0.2249078 α      in ANC's #2, #1, #14, ...

........................................................................
.............................. CYCLE   17 ..............................
........................................................................
   1   -229.1274332 -0.229127E+03  0.776E-02    0.43       0.0  T
   2   -229.1274416 -0.834173E-05  0.442E-02    0.42       1.0  T
   3   -229.1273957  0.458708E-04  0.194E-02    0.43       1.0  T
   4   -229.1274478 -0.521009E-04  0.413E-03    0.42       2.1  T
   5   -229.1274487 -0.901027E-06  0.217E-03    0.42       4.1  T
   6   -229.1274490 -0.327922E-06  0.695E-04    0.42      12.8  T
   7   -229.1274491 -0.295561E-07  0.338E-04    0.42      26.2  T
     SCC iter.                  ...        0 min,  0.129 sec
     gradient                   ...        0 min,  0.049 sec
 * total energy  :  -225.5433000 Eh     change       -0.5478830E-03 Eh
   gradient norm :     0.0109753 Eh/α   predicted    -0.4370269E-03 ( -20.23%)
   displ. norm   :     0.6696103 α      lambda       -0.8171755E-03
   maximum displ.:     0.2708480 α      in ANC's #2, #1, #31, ...

........................................................................
.............................. CYCLE   18 ..............................
........................................................................
   1   -229.1307882 -0.229131E+03  0.962E-02    0.43       0.0  T
   2   -229.1308004 -0.122261E-04  0.547E-02    0.42       1.0  T
   3   -229.1307395  0.608897E-04  0.225E-02    0.43       1.0  T
   4   -229.1308086 -0.690611E-04  0.505E-03    0.43       1.8  T
   5   -229.1308100 -0.139598E-05  0.250E-03    0.43       3.5  T
   6   -229.1308104 -0.422074E-06  0.904E-04    0.43       9.8  T
   7   -229.1308105 -0.590484E-07  0.446E-04    0.43      19.9  T
     SCC iter.                  ...        0 min,  0.121 sec
     gradient                   ...        0 min,  0.048 sec
 * total energy  :  -225.5439599 Eh     change       -0.6598785E-03 Eh
   gradient norm :     0.0128747 Eh/α   predicted    -0.5917943E-03 ( -10.32%)
   displ. norm   :     0.7281486 α      lambda       -0.8493077E-03
   maximum displ.:     0.2975483 α      in ANC's #2, #31, #1, ...

........................................................................
.............................. CYCLE   19 ..............................
........................................................................
   1   -229.1343521 -0.229134E+03  0.931E-02    0.43       0.0  T
   2   -229.1343633 -0.112557E-04  0.531E-02    0.43       1.0  T
   3   -229.1343201  0.432574E-04  0.209E-02    0.44       1.0  T
   4   -229.1343698 -0.497062E-04  0.496E-03    0.43       1.8  T
   5   -229.1343709 -0.108182E-05  0.270E-03    0.44       3.3  T
   6   -229.1343715 -0.627381E-06  0.827E-04    0.44      10.7  T
   7   -229.1343715 -0.487280E-07  0.384E-04    0.44      23.1  T
     SCC iter.                  ...        0 min,  0.121 sec
     gradient                   ...        0 min,  0.048 sec
 * total energy  :  -225.5446695 Eh     change       -0.7096104E-03 Eh
   gradient norm :     0.0151181 Eh/α   predicted    -0.6498069E-03 (  -8.43%)
   displ. norm   :     0.7590847 α      lambda       -0.8740931E-03
   maximum displ.:     0.3132860 α      in ANC's #2, #31, #1, ...

........................................................................
.............................. CYCLE   20 ..............................
........................................................................
   1   -229.1304347 -0.229130E+03  0.988E-02    0.43       0.0  T
   2   -229.1304476 -0.128418E-04  0.566E-02    0.44       1.0  T
   3   -229.1303929  0.546607E-04  0.234E-02    0.44       1.0  T
   4   -229.1304549 -0.620041E-04  0.531E-03    0.45       1.7  T
   5   -229.1304561 -0.124069E-05  0.328E-03    0.44       2.7  T
   6   -229.1304573 -0.120305E-05  0.889E-04    0.44      10.0  T
   7   -229.1304574 -0.540272E-07  0.409E-04    0.44      21.7  T
   8   -229.1304574 -0.743455E-08  0.199E-04    0.44      44.6  T
     SCC iter.                  ...        0 min,  0.138 sec
     gradient                   ...        0 min,  0.048 sec
 * total energy  :  -225.5454239 Eh     change       -0.7544444E-03 Eh
   gradient norm :     0.0141782 Eh/α   predicted    -0.6888845E-03 (  -8.69%)
   displ. norm   :     0.7156243 α      lambda       -0.1042363E-02
   maximum displ.:     0.2884170 α      in ANC's #2, #31, #22, ...
 * RMSD in coord.:     0.6790431 α      energy gain  -0.9511156E-01 Eh

generating ANC from model Hessian ...
Using Lindh-Hessian (1995)
 Shifting diagonal of input Hessian by   9.996404430670380E-003
 Lowest  eigenvalues of input Hessian
    0.000000    0.000000    0.000000    0.000000    0.000000    0.000000
    0.010000    0.010004    0.010008    0.010034    0.010044    0.010053
    0.010076    0.010126    0.010150    0.010215    0.010236    0.010360
 Highest eigenvalues
    2.284355    2.295419    2.612166    2.614832    2.649129    2.653342
 

........................................................................
.............................. CYCLE   21 ..............................
........................................................................
   1   -229.1373149 -0.229137E+03  0.108E-01    0.44       0.0  T
   2   -229.1373350 -0.200927E-04  0.621E-02    0.45       1.0  T
   3   -229.1372794  0.556041E-04  0.228E-02    0.45       1.0  T
   4   -229.1373410 -0.616305E-04  0.693E-03    0.46       1.3  T
   5   -229.1373448 -0.377887E-05  0.341E-03    0.46       2.6  T
   6   -229.1373458 -0.960026E-06  0.115E-03    0.46       7.7  T
   7   -229.1373459 -0.828115E-07  0.595E-04    0.46      14.9  T
   8   -229.1373459 -0.253688E-07  0.277E-04    0.46      32.0  T
     SCC iter.                  ...        0 min,  0.142 sec
     gradient                   ...        0 min,  0.048 sec
 * total energy  :  -225.5460464 Eh     change       -0.6224268E-03 Eh
   gradient norm :     0.0134505 Eh/α   predicted     0.0000000E+00 (-100.00%)
   displ. norm   :     0.1600483 α      lambda       -0.6895899E-03
   maximum displ.:     0.0400295 α      in ANC's #21, #17, #22, ...

........................................................................
.............................. CYCLE   22 ..............................
........................................................................
   1   -229.1305274 -0.229131E+03  0.105E-01    0.45       0.0  T
   2   -229.1305461 -0.186696E-04  0.584E-02    0.46       1.0  T
   3   -229.1305194  0.267118E-04  0.170E-02    0.45       1.0  T
   4   -229.1305541 -0.347287E-04  0.411E-03    0.46       2.2  T
   5   -229.1305551 -0.102714E-05  0.208E-03    0.46       4.3  T
   6   -229.1305554 -0.306580E-06  0.823E-04    0.46      10.8  T
   7   -229.1305555 -0.381809E-07  0.361E-04    0.46      24.6  T
     SCC iter.                  ...        0 min,  0.121 sec
     gradient                   ...        0 min,  0.048 sec
 * total energy  :  -225.5463736 Eh     change       -0.3272587E-03 Eh
   gradient norm :     0.0091276 Eh/α   predicted    -0.3536391E-03 (   8.06%)
   displ. norm   :     0.2624364 α      lambda       -0.8681584E-03
   maximum displ.:     0.0861413 α      in ANC's #1, #18, #51, ...

........................................................................
.............................. CYCLE   23 ..............................
........................................................................
   1   -229.1238673 -0.229124E+03  0.109E-01    0.45       0.0  T
   2   -229.1238879 -0.205985E-04  0.612E-02    0.46       1.0  T
   3   -229.1238405  0.474368E-04  0.221E-02    0.45       1.0  T
   4   -229.1238973 -0.568139E-04  0.533E-03    0.46       1.7  T
   5   -229.1238991 -0.181096E-05  0.271E-03    0.46       3.3  T
   6   -229.1238996 -0.523480E-06  0.103E-03    0.46       8.6  T
   7   -229.1238997 -0.528906E-07  0.500E-04    0.46      17.7  T
   8   -229.1238997 -0.129375E-07  0.215E-04    0.46      41.3  T
     SCC iter.                  ...        0 min,  0.140 sec
     gradient                   ...        0 min,  0.048 sec
 * total energy  :  -225.5464665 Eh     change       -0.9290734E-04 Eh
   gradient norm :     0.0126021 Eh/α   predicted    -0.4639978E-03 ( 399.42%)
   displ. norm   :     0.1707927 α      lambda       -0.8484214E-03
   maximum displ.:     0.0526849 α      in ANC's #26, #1, #33, ...

........................................................................
.............................. CYCLE   24 ..............................
........................................................................
   1   -229.1262545 -0.229126E+03  0.118E-01    0.46       0.0  T
   2   -229.1262766 -0.220269E-04  0.652E-02    0.46       1.0  T
   3   -229.1262616  0.149654E-04  0.139E-02    0.46       1.0  T
   4   -229.1262861 -0.245293E-04  0.297E-03    0.46       3.0  T
   5   -229.1262864 -0.213775E-06  0.179E-03    0.46       5.0  T
   6   -229.1262867 -0.321219E-06  0.564E-04    0.46      15.7  T
   7   -229.1262867 -0.203554E-07  0.251E-04    0.46      35.4  T
     SCC iter.                  ...        0 min,  0.123 sec
     gradient                   ...        0 min,  0.048 sec
 * total energy  :  -225.5466481 Eh     change       -0.1815726E-03 Eh
   gradient norm :     0.0124759 Eh/α   predicted    -0.4365911E-03 ( 140.45%)
   displ. norm   :     0.1337721 α      lambda       -0.7423486E-03
   maximum displ.:     0.0475724 α      in ANC's #16, #67, #1, ...

........................................................................
.............................. CYCLE   25 ..............................
........................................................................
   1   -229.1351218 -0.229135E+03  0.106E-01    0.46       0.0  T
   2   -229.1351429 -0.211515E-04  0.588E-02    0.46       1.0  T
   3   -229.1351308  0.121330E-04  0.128E-02    0.47       1.0  T
   4   -229.1351504 -0.196106E-04  0.399E-03    0.47       2.2  T
   5   -229.1351516 -0.116206E-05  0.196E-03    0.47       4.5  T
   6   -229.1351518 -0.252286E-06  0.855E-04    0.47      10.4  T
   7   -229.1351519 -0.474048E-07  0.378E-04    0.47      23.5  T
     SCC iter.                  ...        0 min,  0.124 sec
     gradient                   ...        0 min,  0.048 sec
 * total energy  :  -225.5469573 Eh     change       -0.3091655E-03 Eh
   gradient norm :     0.0075739 Eh/α   predicted    -0.3778182E-03 (  22.21%)
   displ. norm   :     0.2054439 α      lambda       -0.4168328E-03
   maximum displ.:     0.0843082 α      in ANC's #1, #33, #15, ...

........................................................................
.............................. CYCLE   26 ..............................
........................................................................
   1   -229.1315941 -0.229132E+03  0.100E-01    0.46       0.0  T
   2   -229.1316103 -0.162344E-04  0.553E-02    0.47       1.0  T
   3   -229.1315835  0.267734E-04  0.163E-02    0.46       1.0  T
   4   -229.1316187 -0.351342E-04  0.272E-03    0.47       3.3  T
   5   -229.1316188 -0.130368E-06  0.158E-03    0.47       5.6  T
   6   -229.1316191 -0.239933E-06  0.541E-04    0.47      16.4  T
   7   -229.1316191 -0.210325E-07  0.247E-04    0.47      35.9  T
     SCC iter.                  ...        0 min,  0.121 sec
     gradient                   ...        0 min,  0.048 sec
 * total energy  :  -225.5470071 Eh     change       -0.4980127E-04 Eh
   gradient norm :     0.0120798 Eh/α   predicted    -0.2172190E-03 ( 336.17%)
   displ. norm   :     0.2820309 α      lambda       -0.6842851E-03
   maximum displ.:     0.1124066 α      in ANC's #1, #33, #18, ...

........................................................................
.............................. CYCLE   27 ..............................
........................................................................
   1   -229.1293238 -0.229129E+03  0.653E-02    0.47       0.0  T
   2   -229.1293284 -0.456327E-05  0.371E-02    0.47       1.0  T
   3   -229.1292886  0.397585E-04  0.186E-02    0.47       1.0  T
   4   -229.1293334 -0.447326E-04  0.310E-03    0.48       2.9  T
   5   -229.1293337 -0.319120E-06  0.186E-03    0.48       4.8  T
   6   -229.1293340 -0.289944E-06  0.576E-04    0.48      15.4  T
   7   -229.1293340 -0.188099E-07  0.283E-04    0.48      31.4  T
     SCC iter.                  ...        0 min,  0.122 sec
     gradient                   ...        0 min,  0.048 sec
 * total energy  :  -225.5473887 Eh     change       -0.3816851E-03 Eh
   gradient norm :     0.0079551 Eh/α   predicted    -0.3693598E-03 (  -3.23%)
   displ. norm   :     0.3483570 α      lambda       -0.5028491E-03
   maximum displ.:     0.1485560 α      in ANC's #1, #33, #18, ...

........................................................................
.............................. CYCLE   28 ..............................
........................................................................
   1   -229.1293159 -0.229129E+03  0.853E-02    0.47       0.0  T
   2   -229.1293258 -0.992807E-05  0.477E-02    0.48       1.0  T
   3   -229.1292738  0.520430E-04  0.207E-02    0.48       1.0  T
   4   -229.1293337 -0.599144E-04  0.343E-03    0.49       2.6  T
   5   -229.1293342 -0.481594E-06  0.192E-03    0.49       4.6  T
   6   -229.1293345 -0.271884E-06  0.632E-04    0.49      14.0  T
   7   -229.1293345 -0.293225E-07  0.283E-04    0.48      31.3  T
     SCC iter.                  ...        0 min,  0.123 sec
     gradient                   ...        0 min,  0.048 sec
 * total energy  :  -225.5476748 Eh     change       -0.2860962E-03 Eh
   gradient norm :     0.0089336 Eh/α   predicted    -0.2819364E-03 (  -1.45%)
   displ. norm   :     0.4963207 α      lambda       -0.6208912E-03
   maximum displ.:     0.2209864 α      in ANC's #1, #33, #18, ...

........................................................................
.............................. CYCLE   29 ..............................
........................................................................
   1   -229.1326302 -0.229133E+03  0.782E-02    0.48       0.0  T
   2   -229.1326370 -0.682553E-05  0.447E-02    0.49       1.0  T
   3   -229.1325388  0.981858E-04  0.288E-02    0.49       1.0  T
   4   -229.1326501 -0.111290E-03  0.478E-03    0.50       1.9  T
   5   -229.1326513 -0.122933E-05  0.253E-03    0.50       3.5  T
   6   -229.1326518 -0.453998E-06  0.788E-04    0.50      11.3  T
   7   -229.1326518 -0.476020E-07  0.362E-04    0.50      24.5  T
     SCC iter.                  ...        0 min,  0.121 sec
     gradient                   ...        0 min,  0.048 sec
 * total energy  :  -225.5481411 Eh     change       -0.4662217E-03 Eh
   gradient norm :     0.0078952 Eh/α   predicted    -0.3869210E-03 ( -17.01%)
   displ. norm   :     0.6214289 α      lambda       -0.6126424E-03
   maximum displ.:     0.2858164 α      in ANC's #1, #33, #18, ...

........................................................................
.............................. CYCLE   30 ..............................
........................................................................
   1   -229.1306290 -0.229131E+03  0.982E-02    0.48       0.0  T
   2   -229.1306388 -0.979509E-05  0.559E-02    0.50       1.0  T
   3   -229.1304629  0.175923E-03  0.381E-02    0.49       1.0  T
   4   -229.1306637 -0.200812E-03  0.580E-03    0.51       1.5  T
   5   -229.1306651 -0.143441E-05  0.320E-03    0.50       2.8  T
   6   -229.1306658 -0.717509E-06  0.975E-04    0.50       9.1  T
   7   -229.1306659 -0.815115E-07  0.429E-04    0.50      20.7  T
     SCC iter.                  ...        0 min,  0.120 sec
     gradient                   ...        0 min,  0.048 sec
 * total energy  :  -225.5486449 Eh     change       -0.5038089E-03 Eh
   gradient norm :     0.0067890 Eh/α   predicted    -0.4246176E-03 ( -15.72%)
   displ. norm   :     0.5881000 α      lambda       -0.5363202E-03
   maximum displ.:     0.2848000 α      in ANC's #1, #18, #33, ...

........................................................................
.............................. CYCLE   31 ..............................
........................................................................
   1   -229.1319001 -0.229132E+03  0.906E-02    0.49       0.0  T
   2   -229.1319089 -0.875446E-05  0.510E-02    0.51       1.0  T
   3   -229.1317757  0.133162E-03  0.326E-02    0.50       1.0  T
   4   -229.1319264 -0.150661E-03  0.523E-03    0.51       1.7  T
   5   -229.1319271 -0.720998E-06  0.304E-03    0.51       2.9  T
   6   -229.1319278 -0.687067E-06  0.876E-04    0.51      10.1  T
   7   -229.1319279 -0.647502E-07  0.398E-04    0.51      22.3  T
     SCC iter.                  ...        0 min,  0.115 sec
     gradient                   ...        0 min,  0.048 sec
 * total energy  :  -225.5490682 Eh     change       -0.4233376E-03 Eh
   gradient norm :     0.0065025 Eh/α   predicted    -0.3609062E-03 ( -14.75%)
   displ. norm   :     0.6390778 α      lambda       -0.4247055E-03
   maximum displ.:     0.3101529 α      in ANC's #1, #18, #33, ...

........................................................................
.............................. CYCLE   32 ..............................
........................................................................
   1   -229.1291949 -0.229129E+03  0.908E-02    0.49       0.0  T
   2   -229.1292000 -0.514145E-05  0.514E-02    0.51       1.0  T
   3   -229.1290307  0.169367E-03  0.365E-02    0.50       1.0  T
   4   -229.1292237 -0.193016E-03  0.551E-03    0.51       1.6  T
   5   -229.1292243 -0.641278E-06  0.313E-03    0.51       2.8  T
   6   -229.1292251 -0.790302E-06  0.887E-04    0.51      10.0  T
   7   -229.1292252 -0.779853E-07  0.392E-04    0.51      22.7  T
     SCC iter.                  ...        0 min,  0.116 sec
     gradient                   ...        0 min,  0.048 sec
 * total energy  :  -225.5494098 Eh     change       -0.3416237E-03 Eh
   gradient norm :     0.0060476 Eh/α   predicted    -0.2990823E-03 ( -12.45%)
   displ. norm   :     0.5525887 α      lambda       -0.4579809E-03
   maximum displ.:     0.2924097 α      in ANC's #1, #18, #4, ...

........................................................................
.............................. CYCLE   33 ..............................
........................................................................
   1   -229.1348856 -0.229135E+03  0.823E-02    0.51       0.0  T
   2   -229.1348943 -0.873950E-05  0.456E-02    0.51       1.0  T
   3   -229.1348601  0.341571E-04  0.165E-02    0.51       1.0  T
   4   -229.1348992 -0.390897E-04  0.462E-03    0.52       1.9  T
   5   -229.1348998 -0.590852E-06  0.239E-03    0.51       3.7  T
   6   -229.1349003 -0.449966E-06  0.713E-04    0.52      12.4  T
   7   -229.1349003 -0.376828E-07  0.371E-04    0.51      23.9  T
     SCC iter.                  ...        0 min,  0.115 sec
     gradient                   ...        0 min,  0.048 sec
 * total energy  :  -225.5497209 Eh     change       -0.3110214E-03 Eh
   gradient norm :     0.0065134 Eh/α   predicted    -0.2989151E-03 (  -3.89%)
   displ. norm   :     0.6057234 α      lambda       -0.3604527E-03
   maximum displ.:     0.3109478 α      in ANC's #1, #18, #4, ...

........................................................................
.............................. CYCLE   34 ..............................
........................................................................
   1   -229.1310642 -0.229131E+03  0.789E-02    0.50       0.0  T
   2   -229.1310692 -0.506639E-05  0.441E-02    0.51       1.0  T
   3   -229.1309632  0.106075E-03  0.282E-02    0.51       1.0  T
   4   -229.1310828 -0.119677E-03  0.500E-03    0.52       1.8  T
   5   -229.1310833 -0.467063E-06  0.276E-03    0.52       3.2  T
   6   -229.1310840 -0.683460E-06  0.773E-04    0.52      11.5  T
   7   -229.1310840 -0.590185E-07  0.363E-04    0.52      24.5  T
     SCC iter.                  ...        0 min,  0.117 sec
     gradient                   ...        0 min,  0.048 sec
 * total energy  :  -225.5500179 Eh     change       -0.2970075E-03 Eh
   gradient norm :     0.0053047 Eh/α   predicted    -0.2463527E-03 ( -17.06%)
   displ. norm   :     0.5433884 α      lambda       -0.3623216E-03
   maximum displ.:     0.2914733 α      in ANC's #1, #4, #18, ...

........................................................................
.............................. CYCLE   35 ..............................
........................................................................
   1   -229.1319519 -0.229132E+03  0.651E-02    0.51       0.0  T
   2   -229.1319578 -0.590378E-05  0.355E-02    0.52       1.0  T
   3   -229.1319386  0.191384E-04  0.129E-02    0.52       1.0  T
   4   -229.1319605 -0.218167E-04  0.428E-03    0.52       2.1  T
   5   -229.1319612 -0.706096E-06  0.221E-03    0.52       4.0  T
   6   -229.1319617 -0.488008E-06  0.556E-04    0.52      16.0  T
   7   -229.1319617 -0.250579E-07  0.284E-04    0.52      31.2  T
     SCC iter.                  ...        0 min,  0.126 sec
     gradient                   ...        0 min,  0.048 sec
 * total energy  :  -225.5503298 Eh     change       -0.3119376E-03 Eh
   gradient norm :     0.0052867 Eh/α   predicted    -0.2346561E-03 ( -24.77%)
   displ. norm   :     0.5955996 α      lambda       -0.4179804E-03
   maximum displ.:     0.3226086 α      in ANC's #1, #4, #18, ...

........................................................................
.............................. CYCLE   36 ..............................
........................................................................
   1   -229.1331003 -0.229133E+03  0.715E-02    0.52       0.0  T
   2   -229.1331080 -0.766206E-05  0.388E-02    0.52       1.0  T
   3   -229.1330927  0.153246E-04  0.127E-02    0.53       1.0  T
   4   -229.1331111 -0.183830E-04  0.435E-03    0.52       2.0  T
   5   -229.1331117 -0.598950E-06  0.204E-03    0.53       4.3  T
   6   -229.1331122 -0.547119E-06  0.582E-04    0.52      15.3  T
   7   -229.1331122 -0.217765E-07  0.318E-04    0.52      27.9  T
     SCC iter.                  ...        0 min,  0.116 sec
     gradient                   ...        0 min,  0.048 sec
 * total energy  :  -225.5506819 Eh     change       -0.3521196E-03 Eh
   gradient norm :     0.0062936 Eh/α   predicted    -0.2831307E-03 ( -19.59%)
   displ. norm   :     0.6382157 α      lambda       -0.4021966E-03
   maximum displ.:     0.3429410 α      in ANC's #1, #4, #18, ...

........................................................................
.............................. CYCLE   37 ..............................
........................................................................
   1   -229.1339187 -0.229134E+03  0.705E-02    0.52       0.0  T
   2   -229.1339258 -0.709129E-05  0.380E-02    0.53       1.0  T
   3   -229.1339084  0.173506E-04  0.132E-02    0.53       1.0  T
   4   -229.1339285 -0.200529E-04  0.465E-03    0.53       1.9  T
   5   -229.1339293 -0.776057E-06  0.207E-03    0.53       4.3  T
   6   -229.1339298 -0.570819E-06  0.573E-04    0.53      15.5  T
   7   -229.1339299 -0.218571E-07  0.318E-04    0.53      27.9  T
     SCC iter.                  ...        0 min,  0.114 sec
     gradient                   ...        0 min,  0.048 sec
 * total energy  :  -225.5510305 Eh     change       -0.3485967E-03 Eh
   gradient norm :     0.0066097 Eh/α   predicted    -0.2830118E-03 ( -18.81%)
   displ. norm   :     0.6640455 α      lambda       -0.4144963E-03
   maximum displ.:     0.3596023 α      in ANC's #1, #4, #18, ...

........................................................................
.............................. CYCLE   38 ..............................
........................................................................
   1   -229.1330122 -0.229133E+03  0.730E-02    0.53       0.0  T
   2   -229.1330194 -0.716654E-05  0.395E-02    0.53       1.0  T
   3   -229.1330080  0.113564E-04  0.113E-02    0.54       1.0  T
   4   -229.1330213 -0.133107E-04  0.469E-03    0.54       1.9  T
   5   -229.1330224 -0.104409E-05  0.185E-03    0.54       4.8  T
   6   -229.1330228 -0.395125E-06  0.534E-04    0.54      16.6  T
   7   -229.1330228 -0.182382E-07  0.300E-04    0.54      29.6  T
     SCC iter.                  ...        0 min,  0.116 sec
     gradient                   ...        0 min,  0.048 sec
 * total energy  :  -225.5513958 Eh     change       -0.3653048E-03 Eh
   gradient norm :     0.0066936 Eh/α   predicted    -0.2986360E-03 ( -18.25%)
   displ. norm   :     0.6679669 α      lambda       -0.4314055E-03
   maximum displ.:     0.3604079 α      in ANC's #1, #4, #2, ...

........................................................................
.............................. CYCLE   39 ..............................
........................................................................
   1   -229.1344550 -0.229134E+03  0.709E-02    0.54       0.0  T
   2   -229.1344613 -0.639185E-05  0.384E-02    0.54       1.0  T
   3   -229.1344468  0.145321E-04  0.123E-02    0.54       1.0  T
   4   -229.1344632 -0.164323E-04  0.469E-03    0.54       1.9  T
   5   -229.1344641 -0.830909E-06  0.214E-03    0.54       4.1  T
   6   -229.1344647 -0.595445E-06  0.552E-04    0.54      16.1  T
   7   -229.1344647 -0.226076E-07  0.296E-04    0.54      30.0  T
     SCC iter.                  ...        0 min,  0.114 sec
     gradient                   ...        0 min,  0.048 sec
 * total energy  :  -225.5517754 Eh     change       -0.3795343E-03 Eh
   gradient norm :     0.0066809 Eh/α   predicted    -0.3119512E-03 ( -17.81%)
   displ. norm   :     0.7013802 α      lambda       -0.4471724E-03
   maximum displ.:     0.3843120 α      in ANC's #1, #4, #2, ...

........................................................................
.............................. CYCLE   40 ..............................
........................................................................
   1   -229.1337395 -0.229134E+03  0.729E-02    0.54       0.0  T
   2   -229.1337467 -0.718504E-05  0.394E-02    0.55       1.0  T
   3   -229.1337390  0.762930E-05  0.105E-02    0.55       1.0  T
   4   -229.1337481 -0.910704E-05  0.477E-03    0.55       1.9  T
   5   -229.1337491 -0.933714E-06  0.186E-03    0.55       4.8  T
   6   -229.1337495 -0.437667E-06  0.521E-04    0.55      17.0  T
   7   -229.1337495 -0.215815E-07  0.271E-04    0.55      32.7  T
     SCC iter.                  ...        0 min,  0.115 sec
     gradient                   ...        0 min,  0.048 sec
 * total energy  :  -225.5521699 Eh     change       -0.3945746E-03 Eh
   gradient norm :     0.0066121 Eh/α   predicted    -0.3335795E-03 ( -15.46%)
   displ. norm   :     0.7073046 α      lambda       -0.4594525E-03
   maximum displ.:     0.3910754 α      in ANC's #1, #4, #2, ...

........................................................................
.............................. CYCLE   41 ..............................
........................................................................
   1   -229.1352178 -0.229135E+03  0.734E-02    0.55       0.0  T
   2   -229.1352253 -0.750768E-05  0.399E-02    0.56       1.0  T
   3   -229.1352080  0.172294E-04  0.133E-02    0.56       1.0  T
   4   -229.1352274 -0.193787E-04  0.493E-03    0.56       1.8  T
   5   -229.1352285 -0.104590E-05  0.232E-03    0.56       3.8  T
   6   -229.1352291 -0.633519E-06  0.656E-04    0.56      13.5  T
   7   -229.1352291 -0.377850E-07  0.330E-04    0.56      26.9  T
     SCC iter.                  ...        0 min,  0.115 sec
     gradient                   ...        0 min,  0.048 sec
 * total energy  :  -225.5525691 Eh     change       -0.3991249E-03 Eh
   gradient norm :     0.0067948 Eh/α   predicted    -0.3446584E-03 ( -13.65%)
   displ. norm   :     0.7495217 α      lambda       -0.4720716E-03
   maximum displ.:     0.4171217 α      in ANC's #1, #4, #2, ...

........................................................................
.............................. CYCLE   42 ..............................
........................................................................
   1   -229.1350091 -0.229135E+03  0.805E-02    0.56       0.0  T
   2   -229.1350202 -0.110550E-04  0.435E-02    0.56       1.0  T
   3   -229.1350096  0.106254E-04  0.124E-02    0.56       1.0  T
   4   -229.1350227 -0.130876E-04  0.534E-03    0.57       1.7  T
   5   -229.1350235 -0.868788E-06  0.269E-03    0.57       3.3  T
   6   -229.1350245 -0.923735E-06  0.623E-04    0.57      14.3  T
   7   -229.1350245 -0.284947E-07  0.331E-04    0.57      26.8  T
     SCC iter.                  ...        0 min,  0.118 sec
     gradient                   ...        0 min,  0.048 sec
 * total energy  :  -225.5529795 Eh     change       -0.4104519E-03 Eh
   gradient norm :     0.0068234 Eh/α   predicted    -0.3686424E-03 ( -10.19%)
   displ. norm   :     0.7412641 α      lambda       -0.4872322E-03
   maximum displ.:     0.4166855 α      in ANC's #1, #4, #2, ...
 * RMSD in coord.:     0.8761931 α      energy gain  -0.7555579E-02 Eh

generating ANC from model Hessian ...
Using Lindh-Hessian (1995)
 Shifting diagonal of input Hessian by   1.006599154154170E-002
 Lowest  eigenvalues of input Hessian
    0.010000    0.000000    0.000000    0.000000    0.000000    0.000000
    0.000000    0.010069    0.010074    0.010097    0.010110    0.010121
    0.010138    0.010184    0.010217    0.010271    0.010292    0.010395
 Highest eigenvalues
    2.278381    2.298105    2.609713    2.611387    2.646124    2.647805
 

........................................................................
.............................. CYCLE   43 ..............................
........................................................................
   1   -229.1360184 -0.229136E+03  0.819E-02    0.57       0.0  T
   2   -229.1360281 -0.968003E-05  0.446E-02    0.57       1.0  T
   3   -229.1360126  0.155078E-04  0.129E-02    0.57       1.0  T
   4   -229.1360307 -0.181424E-04  0.508E-03    0.57       1.7  T
   5   -229.1360321 -0.133748E-05  0.229E-03    0.57       3.9  T
   6   -229.1360326 -0.513559E-06  0.690E-04    0.57      12.9  T
   7   -229.1360326 -0.356556E-07  0.347E-04    0.57      25.5  T
     SCC iter.                  ...        0 min,  0.119 sec
     gradient                   ...        0 min,  0.048 sec
 * total energy  :  -225.5534017 Eh     change       -0.4222291E-03 Eh
   gradient norm :     0.0068020 Eh/α   predicted     0.0000000E+00 (-100.00%)
   displ. norm   :     0.0832021 α      lambda       -0.1112364E-03
   maximum displ.:     0.0353224 α      in ANC's #2, #5, #22, ...

........................................................................
.............................. CYCLE   44 ..............................
........................................................................
   1   -229.1376515 -0.229138E+03  0.172E-02    0.57       0.0  T
   2   -229.1376521 -0.600950E-06  0.981E-03    0.57       1.0  T
   3   -229.1376492  0.290802E-05  0.509E-03    0.57       1.7  T
   4   -229.1376524 -0.321784E-05  0.124E-03    0.57       7.2  T
   5   -229.1376525 -0.127847E-06  0.605E-04    0.57      14.7  T
   6   -229.1376526 -0.328973E-07  0.214E-04    0.57      41.4  T
     SCC iter.                  ...        0 min,  0.104 sec
     gradient                   ...        0 min,  0.048 sec
 * total energy  :  -225.5535144 Eh     change       -0.1126713E-03 Eh
   gradient norm :     0.0039776 Eh/α   predicted    -0.7036938E-04 ( -37.54%)
   displ. norm   :     0.3556564 α      lambda       -0.4454382E-03
   maximum displ.:     0.1510655 α      in ANC's #2, #5, #22, ...

........................................................................
.............................. CYCLE   45 ..............................
........................................................................
   1   -229.1389306 -0.229139E+03  0.116E-01    0.57       0.0  T
   2   -229.1389544 -0.238124E-04  0.645E-02    0.57       1.0  T
   3   -229.1389058  0.486469E-04  0.211E-02    0.58       1.0  T
   4   -229.1389650 -0.591708E-04  0.491E-03    0.57       1.8  T
   5   -229.1389665 -0.152315E-05  0.261E-03    0.57       3.4  T
   6   -229.1389671 -0.605262E-06  0.937E-04    0.57       9.5  T
   7   -229.1389671 -0.640283E-07  0.400E-04    0.57      22.2  T
     SCC iter.                  ...        0 min,  0.123 sec
     gradient                   ...        0 min,  0.048 sec
 * total energy  :  -225.5535638 Eh     change       -0.4939249E-04 Eh
   gradient norm :     0.0098629 Eh/α   predicted    -0.2508915E-03 ( 407.95%)
   displ. norm   :     0.1791487 α      lambda       -0.4800876E-03
   maximum displ.:     0.0713688 α      in ANC's #2, #22, #5, ...

........................................................................
.............................. CYCLE   46 ..............................
........................................................................
   1   -229.1377577 -0.229138E+03  0.836E-02    0.57       0.0  T
   2   -229.1377685 -0.107775E-04  0.462E-02    0.57       1.0  T
   3   -229.1377586  0.989163E-05  0.106E-02    0.57       1.0  T
   4   -229.1377733 -0.147806E-04  0.246E-03    0.57       3.6  T
   5   -229.1377735 -0.173839E-06  0.135E-03    0.57       6.6  T
   6   -229.1377737 -0.154595E-06  0.429E-04    0.57      20.7  T
   7   -229.1377737 -0.130105E-07  0.202E-04    0.57      43.9  T
     SCC iter.                  ...        0 min,  0.119 sec
     gradient                   ...        0 min,  0.048 sec
 * total energy  :  -225.5537499 Eh     change       -0.1860931E-03 Eh
   gradient norm :     0.0086126 Eh/α   predicted    -0.2477482E-03 (  33.13%)
   displ. norm   :     0.1211591 α      lambda       -0.3248979E-03
   maximum displ.:     0.0426930 α      in ANC's #2, #18, #5, ...

........................................................................
.............................. CYCLE   47 ..............................
........................................................................
   1   -229.1360091 -0.229136E+03  0.838E-02    0.57       0.0  T
   2   -229.1360214 -0.122931E-04  0.464E-02    0.57       1.0  T
   3   -229.1360105  0.108725E-04  0.110E-02    0.57       1.0  T
   4   -229.1360268 -0.163323E-04  0.233E-03    0.57       3.8  T
   5   -229.1360270 -0.221443E-06  0.137E-03    0.57       6.5  T
   6   -229.1360272 -0.167031E-06  0.467E-04    0.57      19.0  T
   7   -229.1360272 -0.169844E-07  0.182E-04    0.57      48.7  T
     SCC iter.                  ...        0 min,  0.119 sec
     gradient                   ...        0 min,  0.048 sec
 * total energy  :  -225.5537578 Eh     change       -0.7881816E-05 Eh
   gradient norm :     0.0074640 Eh/α   predicted    -0.1648340E-03 (1991.32%)
   displ. norm   :     0.1118341 α      lambda       -0.3687655E-03
   maximum displ.:     0.0484834 α      in ANC's #2, #31, #5, ...

........................................................................
.............................. CYCLE   48 ..............................
........................................................................
   1   -229.1373584 -0.229137E+03  0.683E-02    0.57       0.0  T
   2   -229.1373657 -0.738590E-05  0.377E-02    0.57       1.0  T
   3   -229.1373607  0.501759E-05  0.758E-03    0.57       1.2  T
   4   -229.1373691 -0.833314E-05  0.172E-03    0.57       5.2  T
   5   -229.1373691 -0.433203E-07  0.882E-04    0.57      10.1  T
   6   -229.1373692 -0.679347E-07  0.349E-04    0.57      25.4  T
     SCC iter.                  ...        0 min,  0.103 sec
     gradient                   ...        0 min,  0.048 sec
 * total energy  :  -225.5539085 Eh     change       -0.1507674E-03 Eh
   gradient norm :     0.0055790 Eh/α   predicted    -0.1866913E-03 (  23.83%)
   displ. norm   :     0.2111654 α      lambda       -0.3762248E-03
   maximum displ.:     0.0972403 α      in ANC's #2, #5, #22, ...

........................................................................
.............................. CYCLE   49 ..............................
........................................................................
   1   -229.1366241 -0.229137E+03  0.102E-01    0.58       0.0  T
   2   -229.1366396 -0.155200E-04  0.560E-02    0.58       1.0  T
   3   -229.1366368  0.279828E-05  0.833E-03    0.58       1.1  T
   4   -229.1366457 -0.894627E-05  0.260E-03    0.58       3.4  T
   5   -229.1366460 -0.225380E-06  0.134E-03    0.58       6.6  T
   6   -229.1366461 -0.181817E-06  0.431E-04    0.58      20.6  T
   7   -229.1366462 -0.172806E-07  0.168E-04    0.58      52.9  T
     SCC iter.                  ...        0 min,  0.120 sec
     gradient                   ...        0 min,  0.048 sec
 * total energy  :  -225.5539910 Eh     change       -0.8244472E-04 Eh
   gradient norm :     0.0066047 Eh/α   predicted    -0.1965018E-03 ( 138.34%)
   displ. norm   :     0.1726124 α      lambda       -0.2464300E-03
   maximum displ.:     0.0866416 α      in ANC's #2, #5, #22, ...

........................................................................
.............................. CYCLE   50 ..............................
........................................................................
   1   -229.1365590 -0.229137E+03  0.404E-02    0.58       0.0  T
   2   -229.1365613 -0.225130E-05  0.223E-02    0.58       1.0  T
   3   -229.1365596  0.167609E-05  0.461E-03    0.58       1.9  T
   4   -229.1365620 -0.242990E-05  0.177E-03    0.58       5.0  T
   5   -229.1365622 -0.166378E-06  0.773E-04    0.58      11.5  T
   6   -229.1365623 -0.618802E-07  0.224E-04    0.58      39.6  T
     SCC iter.                  ...        0 min,  0.104 sec
     gradient                   ...        0 min,  0.048 sec
 * total energy  :  -225.5541731 Eh     change       -0.1820971E-03 Eh
   gradient norm :     0.0035159 Eh/α   predicted    -0.1268870E-03 ( -30.32%)
   displ. norm   :     0.3843965 α      lambda       -0.2849003E-03
   maximum displ.:     0.2011941 α      in ANC's #2, #5, #8, ...

........................................................................
.............................. CYCLE   51 ..............................
........................................................................
   1   -229.1362050 -0.229136E+03  0.525E-02    0.58       0.0  T
   2   -229.1362086 -0.362158E-05  0.286E-02    0.58       1.0  T
   3   -229.1361990  0.959706E-05  0.950E-03    0.58       1.0  T
   4   -229.1362096 -0.105929E-04  0.371E-03    0.58       2.4  T
   5   -229.1362103 -0.698372E-06  0.157E-03    0.58       5.6  T
   6   -229.1362105 -0.247768E-06  0.429E-04    0.58      20.7  T
   7   -229.1362105 -0.150284E-07  0.205E-04    0.58      43.4  T
     SCC iter.                  ...        0 min,  0.121 sec
     gradient                   ...        0 min,  0.048 sec
 * total energy  :  -225.5543530 Eh     change       -0.1799159E-03 Eh
   gradient norm :     0.0058360 Eh/α   predicted    -0.1634989E-03 (  -9.12%)
   displ. norm   :     0.4785613 α      lambda       -0.2948224E-03
   maximum displ.:     0.2523171 α      in ANC's #2, #5, #8, ...

........................................................................
.............................. CYCLE   52 ..............................
........................................................................
   1   -229.1339284 -0.229134E+03  0.763E-02    0.58       0.0  T
   2   -229.1339375 -0.907206E-05  0.411E-02    0.58       1.0  T
   3   -229.1339325  0.493039E-05  0.888E-03    0.59       1.0  T
   4   -229.1339389 -0.638895E-05  0.468E-03    0.59       1.9  T
   5   -229.1339406 -0.168830E-05  0.180E-03    0.59       4.9  T
   6   -229.1339410 -0.347295E-06  0.469E-04    0.59      18.9  T
   7   -229.1339410 -0.121740E-07  0.242E-04    0.59      36.7  T
     SCC iter.                  ...        0 min,  0.120 sec
     gradient                   ...        0 min,  0.048 sec
 * total energy  :  -225.5545738 Eh     change       -0.2208111E-03 Eh
   gradient norm :     0.0059262 Eh/α   predicted    -0.1811731E-03 ( -17.95%)
   displ. norm   :     0.4965011 α      lambda       -0.2898035E-03
   maximum displ.:     0.2673535 α      in ANC's #2, #5, #8, ...

........................................................................
.............................. CYCLE   53 ..............................
........................................................................
   1   -229.1344661 -0.229134E+03  0.638E-02    0.59       0.0  T
   2   -229.1344724 -0.626673E-05  0.337E-02    0.59       1.0  T
   3   -229.1344642  0.816597E-05  0.960E-03    0.59       1.0  T
   4   -229.1344733 -0.908401E-05  0.456E-03    0.59       1.9  T
   5   -229.1344748 -0.148039E-05  0.172E-03    0.59       5.2  T
   6   -229.1344750 -0.290803E-06  0.454E-04    0.59      19.5  T
   7   -229.1344751 -0.148160E-07  0.226E-04    0.59      39.2  T
     SCC iter.                  ...        0 min,  0.120 sec
     gradient                   ...        0 min,  0.048 sec
 * total energy  :  -225.5548356 Eh     change       -0.2618351E-03 Eh
   gradient norm :     0.0057241 Eh/α   predicted    -0.1806246E-03 ( -31.02%)
   displ. norm   :     0.6044228 α      lambda       -0.4124577E-03
   maximum displ.:     0.3373740 α      in ANC's #2, #5, #8, ...

........................................................................
.............................. CYCLE   54 ..............................
........................................................................
   1   -229.1372501 -0.229137E+03  0.729E-02    0.60       0.0  T
   2   -229.1372585 -0.839281E-05  0.383E-02    0.59       1.0  T
   3   -229.1372396  0.189064E-04  0.133E-02    0.60       1.0  T
   4   -229.1372610 -0.214158E-04  0.520E-03    0.60       1.7  T
   5   -229.1372625 -0.150535E-05  0.206E-03    0.60       4.3  T
   6   -229.1372629 -0.388417E-06  0.576E-04    0.60      15.4  T
   7   -229.1372629 -0.273930E-07  0.293E-04    0.60      30.3  T
     SCC iter.                  ...        0 min,  0.122 sec
     gradient                   ...        0 min,  0.048 sec
 * total energy  :  -225.5551909 Eh     change       -0.3552421E-03 Eh
   gradient norm :     0.0044762 Eh/α   predicted    -0.2815742E-03 ( -20.74%)
   displ. norm   :     0.7174758 α      lambda       -0.4155712E-03
   maximum displ.:     0.4024901 α      in ANC's #2, #5, #8, ...

........................................................................
.............................. CYCLE   55 ..............................
........................................................................
   1   -229.1375536 -0.229138E+03  0.777E-02    0.60       0.0  T
   2   -229.1375633 -0.973367E-05  0.402E-02    0.60       1.0  T
   3   -229.1375377  0.255985E-04  0.156E-02    0.60       1.0  T
   4   -229.1375665 -0.287673E-04  0.599E-03    0.60       1.5  T
   5   -229.1375681 -0.167589E-05  0.249E-03    0.60       3.6  T
   6   -229.1375687 -0.565025E-06  0.682E-04    0.60      13.0  T
   7   -229.1375687 -0.416283E-07  0.309E-04    0.60      28.7  T
     SCC iter.                  ...        0 min,  0.121 sec
     gradient                   ...        0 min,  0.048 sec
 * total energy  :  -225.5555711 Eh     change       -0.3801810E-03 Eh
   gradient norm :     0.0054653 Eh/α   predicted    -0.3147481E-03 ( -17.21%)
   displ. norm   :     0.7454324 α      lambda       -0.4846501E-03
   maximum displ.:     0.4324463 α      in ANC's #2, #5, #8, ...

........................................................................
.............................. CYCLE   56 ..............................
........................................................................
   1   -229.1404214 -0.229140E+03  0.779E-02    0.61       0.0  T
   2   -229.1404312 -0.980262E-05  0.405E-02    0.60       1.0  T
   3   -229.1404007  0.304810E-04  0.168E-02    0.61       1.0  T
   4   -229.1404352 -0.345527E-04  0.595E-03    0.60       1.5  T
   5   -229.1404366 -0.133937E-05  0.262E-03    0.60       3.4  T
   6   -229.1404372 -0.660304E-06  0.693E-04    0.60      12.8  T
   7   -229.1404373 -0.407531E-07  0.327E-04    0.60      27.1  T
     SCC iter.                  ...        0 min,  0.122 sec
     gradient                   ...        0 min,  0.048 sec
 * total energy  :  -225.5560143 Eh     change       -0.4432621E-03 Eh
   gradient norm :     0.0055693 Eh/α   predicted    -0.3769813E-03 ( -14.95%)
   displ. norm   :     0.8174461 α      lambda       -0.5347686E-03
   maximum displ.:     0.4731010 α      in ANC's #2, #5, #8, ...

........................................................................
.............................. CYCLE   57 ..............................
........................................................................
   1   -229.1385381 -0.229139E+03  0.867E-02    0.61       0.0  T
   2   -229.1385510 -0.128672E-04  0.446E-02    0.61       1.0  T
   3   -229.1385219  0.290954E-04  0.174E-02    0.61       1.0  T
   4   -229.1385547 -0.328381E-04  0.683E-03    0.61       1.3  T
   5   -229.1385567 -0.201741E-05  0.307E-03    0.61       2.9  T
   6   -229.1385577 -0.941483E-06  0.848E-04    0.61      10.5  T
   7   -229.1385577 -0.634334E-07  0.355E-04    0.61      25.0  T
     SCC iter.                  ...        0 min,  0.122 sec
     gradient                   ...        0 min,  0.048 sec
 * total energy  :  -225.5565082 Eh     change       -0.4938643E-03 Eh
   gradient norm :     0.0060280 Eh/α   predicted    -0.4460610E-03 (  -9.68%)
   displ. norm   :     0.7790149 α      lambda       -0.6044928E-03
   maximum displ.:     0.4616534 α      in ANC's #2, #5, #8, ...

........................................................................
.............................. CYCLE   58 ..............................
........................................................................
   1   -229.1400308 -0.229140E+03  0.912E-02    0.61       0.0  T
   2   -229.1400446 -0.138657E-04  0.484E-02    0.61       1.0  T
   3   -229.1400156  0.290379E-04  0.178E-02    0.61       1.0  T
   4   -229.1400489 -0.332902E-04  0.651E-03    0.61       1.4  T
   5   -229.1400506 -0.174691E-05  0.314E-03    0.61       2.8  T
   6   -229.1400518 -0.114289E-05  0.899E-04    0.61       9.9  T
   7   -229.1400518 -0.690419E-07  0.385E-04    0.61      23.0  T
   8   -229.1400519 -0.812159E-08  0.182E-04    0.61      48.8  T
     SCC iter.                  ...        0 min,  0.141 sec
     gradient                   ...        0 min,  0.048 sec
 * total energy  :  -225.5570084 Eh     change       -0.5002143E-03 Eh
   gradient norm :     0.0077685 Eh/α   predicted    -0.4856701E-03 (  -2.91%)
   displ. norm   :     0.8491933 α      lambda       -0.5450486E-03
   maximum displ.:     0.5015489 α      in ANC's #2, #5, #8, ...

........................................................................
.............................. CYCLE   59 ..............................
........................................................................
   1   -229.1352459 -0.229135E+03  0.945E-02    0.61       0.0  T
   2   -229.1352620 -0.161173E-04  0.485E-02    0.61       1.0  T
   3   -229.1352441  0.178620E-04  0.156E-02    0.61       1.0  T
   4   -229.1352643 -0.201155E-04  0.735E-03    0.61       1.2  T
   5   -229.1352671 -0.284156E-05  0.326E-03    0.61       2.7  T
   6   -229.1352683 -0.117799E-05  0.910E-04    0.61       9.8  T
   7   -229.1352683 -0.716877E-07  0.371E-04    0.61      23.9  T
   8   -229.1352684 -0.522161E-08  0.200E-04    0.61      44.3  T
     SCC iter.                  ...        0 min,  0.139 sec
     gradient                   ...        0 min,  0.048 sec
 * total energy  :  -225.5574550 Eh     change       -0.4465755E-03 Eh
   gradient norm :     0.0086404 Eh/α   predicted    -0.4690545E-03 (   5.03%)
   displ. norm   :     0.7086870 α      lambda       -0.4956250E-03
   maximum displ.:     0.4275895 α      in ANC's #2, #5, #8, ...

........................................................................
.............................. CYCLE   60 ..............................
........................................................................
   1   -229.1367098 -0.229137E+03  0.726E-02    0.61       0.0  T
   2   -229.1367179 -0.809267E-05  0.378E-02    0.61       1.0  T
   3   -229.1367051  0.127335E-04  0.124E-02    0.62       1.0  T
   4   -229.1367191 -0.139899E-04  0.571E-03    0.61       1.6  T
   5   -229.1367209 -0.172188E-05  0.238E-03    0.62       3.7  T
[...]
 Mol. C8AA /au·bohr⁸  :    8080320.036363
 Mol. α(0) /au        :        857.507827


Wiberg/Mayer (AO) data.
largest (>0.10) Wiberg bond orders for each atom

 ---------------------------------------------------------------------------
     #   Z sym  total        # sym  WBO       # sym  WBO       # sym  WBO
 ---------------------------------------------------------------------------
     1   6 C    3.948 --     2 C    1.654    19 C    1.122    86 H    0.942
     2   6 C    3.969 --     1 C    1.654    13 C    1.110     3 C    1.002
     3   6 C    3.925 --     4 O    1.778     5 C    1.034     2 C    1.002
     4   8 O    2.060 --     3 C    1.778
     5   6 C    3.977 --     6 C    1.413    12 C    1.280     3 C    1.034
     6   6 C    3.985 --     5 C    1.413     7 C    1.407    87 H    0.964
     7   6 C    3.966 --     6 C    1.407     9 C    1.351     8 C    1.036
     8   6 C    3.992 --     7 C    1.036    88 H    0.984    90 H    0.964
                            89 H    0.964
     9   6 C    3.977 --    11 C    1.414     7 C    1.351    10 C    1.036
    10   6 C    3.993 --     9 C    1.036    93 H    0.984    92 H    0.964
                            91 H    0.964
    11   6 C    3.979 --     9 C    1.414    12 C    1.395    94 H    0.958
    12   6 C    3.983 --    11 C    1.395     5 C    1.280    13 C    1.097
    13   6 C    3.977 --    14 C    1.504     2 C    1.110    12 C    1.097
    14   6 C    3.962 --    13 C    1.504    17 C    1.094    15 C    1.093
    15   6 C    3.946 --    16 N    2.769    14 C    1.093
    16   7 N    2.974 --    15 C    2.769
    17   6 C    3.946 --    18 N    2.765    14 C    1.094
    18   7 N    2.973 --    17 C    2.765
    19   6 C    3.941 --    20 C    1.442    25 C    1.188     1 C    1.122
    20   6 C    3.970 --    19 C    1.442    21 C    1.336    95 H    0.963
    21   6 C    3.866 --    23 C    1.377    20 C    1.336    22 F    0.964
    22   9 F    1.096 --    21 C    0.964
    23   6 C    3.973 --    21 C    1.377    24 C    1.190    29 C    1.150
    24   6 C    3.972 --    28 N    1.396    23 C    1.190    25 C    1.173
    25   6 C    3.971 --    26 N    1.394    19 C    1.188    24 C    1.173
    26   7 N    3.081 --    27 S    1.436    25 C    1.394    28 N    0.158
    27  16 S    3.178 --    26 N    1.436    28 N    1.420
    28   7 N    3.124 --    27 S    1.420    24 C    1.396    26 N    0.158
    29   6 C    3.934 --    30 C    1.519    23 C    1.150    55 S    1.105
    30   6 C    3.927 --    29 C    1.519    31 C    1.246    96 H    0.956
    31   6 C    3.968 --    32 C    1.275    30 C    1.246    54 C    1.236
    32   6 C    3.960 --    42 C    1.398    31 C    1.275    33 C    1.040
    33   6 C    3.987 --    41 C    1.410    34 C    1.367    32 C    1.040
    34   6 C    3.985 --    35 C    1.451    33 C    1.367    97 H    0.969
    35   6 C    3.991 --    34 C    1.451    36 C    1.431    98 H    0.969
                            41 C    0.103
    36   6 C    3.983 --    35 C    1.431    37 C    1.390    99 H    0.966
    37   6 C    3.965 --    36 C    1.390    41 C    1.379    38 S    1.055
    38  16 S    2.253 --    37 C    1.055    39 C    0.980
    39   6 C    3.979 --    40 C    1.025    38 S    0.980   100 H    0.975
                           101 H    0.975
    40   6 C    3.993 --    39 C    1.025   103 H    0.986   104 H    0.986
                           102 H    0.980
    41   6 C    3.982 --    33 C    1.410    37 C    1.379   105 H    0.963
                            35 C    0.103
    42   6 C    3.944 --    32 C    1.398    43 C    1.238    58 S    1.093
    43   6 C    3.966 --    44 C    1.281    56 C    1.240    42 C    1.238
    44   6 C    3.960 --    54 C    1.387    43 C    1.281    45 C    1.045
    45   6 C    3.987 --    46 C    1.388    53 C    1.380    44 C    1.045
                            48 C    0.100
    46   6 C    3.982 --    47 C    1.428    45 C    1.388   106 H    0.965
    47   6 C    3.990 --    48 C    1.458    46 C    1.428   107 H    0.969
    48   6 C    3.981 --    47 C    1.458    49 C    1.367   108 H    0.968
                            45 C    0.100
    49   6 C    3.966 --    53 C    1.406    48 C    1.367    50 S    1.051
    50  16 S    2.254 --    49 C    1.051    51 C    0.983
    51   6 C    3.974 --    52 C    1.026    50 S    0.983   109 H    0.970
                           110 H    0.960
    52   6 C    3.993 --    51 C    1.026   112 H    0.986   111 H    0.984
                           113 H    0.979
    53   6 C    3.984 --    49 C    1.406    45 C    1.380   114 H    0.960
    54   6 C    3.946 --    44 C    1.387    31 C    1.236    55 S    1.110
    55  16 S    2.580 --    54 C    1.110    29 C    1.105
    56   6 C    3.959 --    57 C    1.527    43 C    1.240   115 H    0.954
    57   6 C    3.933 --    56 C    1.527    59 C    1.169    58 S    1.089
    58  16 S    2.500 --    42 C    1.093    57 C    1.089
    59   6 C    3.942 --    60 C    1.482    57 C    1.169    67 S    1.124
    60   6 C    3.960 --    59 C    1.482    61 C    1.302   116 H    0.955
    61   6 C    3.965 --    66 C    1.381    60 C    1.302    62 C    1.035
    62   6 C    3.925 --    63 O    1.814    61 C    1.035    64 C    0.984
    63   8 O    2.072 --    62 C    1.814
    64   6 C    3.992 --    65 C    0.996    62 C    0.984   117 H    0.974
                           118 H    0.956
    65   6 C    3.992 --    64 C    0.996   119 H    0.988   121 H    0.985
                           120 H    0.984
    66   6 C    3.939 --    61 C    1.381    68 C    1.204    67 S    1.138
    67  16 S    2.609 --    66 C    1.138    59 C    1.124
    68   6 C    3.949 --    69 C    1.593    66 C    1.204   122 H    0.929
    69   6 C    3.964 --    68 C    1.593    80 C    1.121    70 C    1.000
    70   6 C    3.928 --    71 O    1.795    72 C    1.018    69 C    1.000
    71   8 O    2.064 --    70 C    1.795
    72   6 C    3.974 --    73 C    1.416    79 C    1.291    70 C    1.018
    73   6 C    3.983 --    72 C    1.416    74 C    1.402   123 H    0.963
    74   6 C    3.968 --    73 C    1.402    76 C    1.343    75 C    1.035
    75   6 C    3.990 --    74 C    1.035   124 H    0.984   126 H    0.964
                           125 H    0.963
    76   6 C    3.881 --    78 C    1.402    74 C    1.343    77 F    0.975
    77   9 F    1.108 --    76 C    0.975
    78   6 C    3.977 --    76 C    1.402    79 C    1.395   127 H    0.958
    79   6 C    3.982 --    78 C    1.395    72 C    1.291    80 C    1.085
    80   6 C    3.977 --    81 C    1.496    69 C    1.121    79 C    1.085
    81   6 C    3.975 --    80 C    1.496    82 C    1.099    84 C    1.093
    82   6 C    3.946 --    83 N    2.762    81 C    1.099
    83   7 N    2.975 --    82 C    2.762
    84   6 C    3.947 --    85 N    2.771    81 C    1.093
    85   7 N    2.982 --    84 C    2.771
    86   1 H    0.991 --     1 C    0.942
    87   1 H    0.996 --     6 C    0.964
    88   1 H    0.997 --     8 C    0.984
    89   1 H    0.994 --     8 C    0.964
    90   1 H    0.994 --     8 C    0.964
    91   1 H    0.994 --    10 C    0.964
    92   1 H    0.994 --    10 C    0.964
    93   1 H    0.997 --    10 C    0.984
    94   1 H    0.996 --    11 C    0.958
    95   1 H    0.993 --    20 C    0.963
    96   1 H    0.995 --    30 C    0.956
    97   1 H    0.998 --    34 C    0.969
    98   1 H    0.998 --    35 C    0.969
    99   1 H    0.998 --    36 C    0.966
   100   1 H    0.998 --    39 C    0.975
   101   1 H    0.998 --    39 C    0.975
   102   1 H    0.997 --    40 C    0.980
   103   1 H    0.997 --    40 C    0.986
   104   1 H    0.997 --    40 C    0.986
   105   1 H    0.998 --    41 C    0.963
   106   1 H    0.997 --    46 C    0.965
   107   1 H    0.997 --    47 C    0.969
   108   1 H    0.997 --    48 C    0.968
   109   1 H    0.999 --    51 C    0.970
   110   1 H    0.995 --    51 C    0.960
   111   1 H    0.998 --    52 C    0.984
   112   1 H    0.997 --    52 C    0.986
   113   1 H    0.998 --    52 C    0.979
   114   1 H    0.998 --    53 C    0.960
   115   1 H    0.997 --    56 C    0.954
   116   1 H    0.995 --    60 C    0.955
   117   1 H    0.995 --    64 C    0.974
   118   1 H    0.996 --    64 C    0.956
   119   1 H    0.998 --    65 C    0.988
   120   1 H    0.997 --    65 C    0.984
   121   1 H    0.998 --    65 C    0.985
   122   1 H    0.985 --    68 C    0.929
   123   1 H    0.994 --    73 C    0.963
   124   1 H    0.997 --    75 C    0.984
   125   1 H    0.992 --    75 C    0.963
   126   1 H    0.992 --    75 C    0.964
   127   1 H    0.993 --    78 C    0.958
 ---------------------------------------------------------------------------

Topologies differ in bond orders
Writing corrected topology to xtbtopo.mol

molecular dipole:
                 x           y           z       tot (Debye)
 q only:       -1.372       2.385      -1.739
   full:       -0.766       2.889      -1.604       8.622
molecular quadrupole (traceless):
                xx          xy          yy          xz          yz          zz
 q only:       45.772      22.922      -4.561      57.857     -41.524     -41.211
  q+dip:       41.840      26.041      -5.174      75.056     -39.452     -36.666
   full:       39.303      25.981      -0.495      74.391     -45.571     -38.808

           -------------------------------------------------
          |                Geometry Summary                 |
           -------------------------------------------------

      molecular mass/u    :     1221.4875175
   center of mass at/Å    :        0.1576938      -0.4293334       0.6863982
  moments of inertia/u·Å² :        0.1793453E+05   0.6728644E+05   0.7767571E+05
rotational constants/cm⁻¹ :        0.9399540E-03   0.2505353E-03   0.2170258E-03

 * 112 selected distances

     #   Z          #   Z                                           value/Å
     1   6 C        2   6 C                                       1.3524175
     3   6 C        4   8 O                                       1.2113941
     5   6 C        6   6 C                                       1.3805035
     6   6 C        7   6 C                                       1.3902659
     7   6 C        9   6 C                                       1.4049469
     9   6 C       11   6 C                                       1.3914648
     5   6 C       12   6 C                                       1.4055866
    11   6 C       12   6 C                                       1.3861114
    13   6 C       14   6 C                                       1.3680721
    15   6 C       16   7 N                                       1.1477885
    17   6 C       18   7 N                                       1.1480778
    19   6 C       20   6 C                                       1.3814776
    20   6 C       21   6 C                                       1.3955970
    21   6 C       23   6 C                                       1.3895564
    23   6 C       24   6 C                                       1.4206793
    19   6 C       25   6 C                                       1.4169300
    24   6 C       25   6 C                                       1.4355679
    25   6 C       26   7 N                                       1.3307973
    26   7 N       27  16 S                                       1.6040220
    24   6 C       28   7 N                                       1.3296859
    27  16 S       28   7 N                                       1.6060470
    23   6 C       29   6 C                                       1.4361679
    29   6 C       30   6 C                                       1.3691341
    30   6 C       31   6 C                                       1.4136685
    31   6 C       32   6 C                                       1.4070779
    33   6 C       34   6 C                                       1.3948968
    34   6 C       35   6 C                                       1.3806936
    35   6 C       36   6 C                                       1.3849799
    36   6 C       37   6 C                                       1.3882068
    39   6 C       40   6 C                                       1.5170457
    33   6 C       41   6 C                                       1.3866716
    37   6 C       41   6 C                                       1.3913782
    32   6 C       42   6 C                                       1.3838758
    42   6 C       43   6 C                                       1.4190031
    43   6 C       44   6 C                                       1.4063248
    45   6 C       46   6 C                                       1.3905864
    46   6 C       47   6 C                                       1.3847508
    47   6 C       48   6 C                                       1.3801515
    48   6 C       49   6 C                                       1.3938746
    51   6 C       52   6 C                                       1.5161041
    45   6 C       53   6 C                                       1.3935327
    49   6 C       53   6 C                                       1.3848466
    31   6 C       54   6 C                                       1.4189596
    44   6 C       54   6 C                                       1.3863150
    29   6 C       55  16 S                                       1.7504085
    54   6 C       55  16 S                                       1.7428617
    43   6 C       56   6 C                                       1.4145745
    56   6 C       57   6 C                                       1.3652427
    42   6 C       58  16 S                                       1.7468867
    57   6 C       58  16 S                                       1.7522481 (max)
    57   6 C       59   6 C                                       1.4225246
    59   6 C       60   6 C                                       1.3728121
    60   6 C       61   6 C                                       1.4060225
    62   6 C       63   8 O                                       1.2109178
    64   6 C       65   6 C                                       1.5297111
    61   6 C       66   6 C                                       1.3932618
    59   6 C       67  16 S                                       1.7388470
    66   6 C       67  16 S                                       1.7387795
    66   6 C       68   6 C                                       1.4193029
    68   6 C       69   6 C                                       1.3572887
    70   6 C       71   8 O                                       1.2071661
    72   6 C       73   6 C                                       1.3817142
    73   6 C       74   6 C                                       1.3903519
    74   6 C       76   6 C                                       1.3975303
    76   6 C       78   6 C                                       1.3849405
    72   6 C       79   6 C                                       1.4066910
    78   6 C       79   6 C                                       1.3854196
    80   6 C       81   6 C                                       1.3685970
    82   6 C       83   7 N                                       1.1480665
    84   6 C       85   7 N                                       1.1476699
     1   6 C       86   1 H                                       1.0822358
     6   6 C       87   1 H                                       1.0798331
     8   6 C       88   1 H                                       1.0864806
     8   6 C       89   1 H                                       1.0895153
     8   6 C       90   1 H                                       1.0894962
    10   6 C       91   1 H                                       1.0895367
    10   6 C       92   1 H                                       1.0894081
    10   6 C       93   1 H                                       1.0863171
    11   6 C       94   1 H                                       1.0781852
    20   6 C       95   1 H                                       1.0795947
    30   6 C       96   1 H                                       1.0736988 (min)
    34   6 C       97   1 H                                       1.0792913
    35   6 C       98   1 H                                       1.0798968
    36   6 C       99   1 H                                       1.0778383
    39   6 C      100   1 H                                       1.0904130
    39   6 C      101   1 H                                       1.0902508
    40   6 C      102   1 H                                       1.0879131
    40   6 C      103   1 H                                       1.0874379
    40   6 C      104   1 H                                       1.0874440
    41   6 C      105   1 H                                       1.0794708
    46   6 C      106   1 H                                       1.0785616
    47   6 C      107   1 H                                       1.0796372
    48   6 C      108   1 H                                       1.0790045
    51   6 C      109   1 H                                       1.0902575
    51   6 C      110   1 H                                       1.0903603
    52   6 C      111   1 H                                       1.0885746
    52   6 C      112   1 H                                       1.0873938
    52   6 C      113   1 H                                       1.0882296
    53   6 C      114   1 H                                       1.0785303
    56   6 C      115   1 H                                       1.0758709
    60   6 C      116   1 H                                       1.0748586
    64   6 C      117   1 H                                       1.0910480
    64   6 C      118   1 H                                       1.0907260
    65   6 C      119   1 H                                       1.0876832
    65   6 C      120   1 H                                       1.0871411
    65   6 C      121   1 H                                       1.0874842
    68   6 C      122   1 H                                       1.0862228
    73   6 C      123   1 H                                       1.0793153
    75   6 C      124   1 H                                       1.0858700
    75   6 C      125   1 H                                       1.0896996
    75   6 C      126   1 H                                       1.0894142
    78   6 C      127   1 H                                       1.0778172

 * 6 distinct bonds (by element types)

   Z      Z             #   av. dist./Å        max./Å        min./Å
   1 H    6 C          42     1.0844752     1.0910480     1.0736988
   6 C    6 C          53     1.4008190     1.5297111     1.3524175
   6 C    7 N           6     1.2086810     1.3307973     1.1476699
   6 C    8 O           3     1.2098260     1.2113941     1.2071661
   6 C   16 S           6     1.7450053     1.7522481     1.7387795
   7 N   16 S           2     1.6050345     1.6060470     1.6040220


optimized geometry written to: xtbopt.mol


           -------------------------------------------------
          | TOTAL ENERGY             -225.576830822746 Eh   |
          | GRADIENT NORM               0.000231748678 Eh/α |
          | HOMO-LUMO GAP               0.572873925359 eV   |
           -------------------------------------------------

------------------------------------------------------------------------
 * finished run on 2022/02/03 at 20:24:12.405     
------------------------------------------------------------------------
 total:
 * wall-time:     0 d,  0 h,  0 min, 41.823 sec
 *  cpu-time:     0 d,  0 h,  5 min, 34.471 sec
 * ratio c/w:     7.997 speedup
 SCF:
 * wall-time:     0 d,  0 h,  0 min,  0.313 sec
 *  cpu-time:     0 d,  0 h,  0 min,  2.501 sec
 * ratio c/w:     7.994 speedup
 ANC optimizer:
 * wall-time:     0 d,  0 h,  0 min, 41.441 sec
 *  cpu-time:     0 d,  0 h,  5 min, 31.492 sec
 * ratio c/w:     7.999 speedup

