      -----------------------------------------------------------      
     |                   =====================                   |     
     |                           x T B                           |     
     |                   =====================                   |     
     |                         S. Grimme                         |     
     |          Mulliken Center for Theoretical Chemistry        |     
     |                    University of Bonn                     |     
      -----------------------------------------------------------      

   * xtb version 6.4.1 (unknown) compiled by 'oda6@login1.crc.pitt.edu' on 2021-06-25

   xtb is free software: you can redistribute it and/or modify it under
   the terms of the GNU Lesser General Public License as published by
   the Free Software Foundation, either version 3 of the License, or
   (at your option) any later version.
   
   xtb is distributed in the hope that it will be useful,
   but WITHOUT ANY WARRANTY; without even the implied warranty of
   MERCHANTABILITY or FITNESS FOR A PARTICULAR PURPOSE.  See the
   GNU Lesser General Public License for more details.
   
   Cite this work as:
   * C. Bannwarth, E. Caldeweyher, S. Ehlert, A. Hansen, P. Pracht,
     J. Seibert, S. Spicher, S. Grimme, WIREs Comput. Mol. Sci., 2020, 11,
     e01493. DOI: 10.1002/wcms.1493
   
   for GFN2-xTB:
   * C. Bannwarth, S. Ehlert and S. Grimme., J. Chem. Theory Comput., 2019,
     15, 1652-1671. DOI: 10.1021/acs.jctc.8b01176
   for GFN1-xTB:
   * S. Grimme, C. Bannwarth, P. Shushkov, J. Chem. Theory Comput., 2017,
     13, 1989-2009. DOI: 10.1021/acs.jctc.7b00118
   for GFN0-xTB:
   * P. Pracht, E. Caldeweyher, S. Ehlert, S. Grimme, ChemRxiv, 2019, preprint.
     DOI: 10.26434/chemrxiv.8326202.v1
   for GFN-FF:
   * S. Spicher and S. Grimme, Angew. Chem. Int. Ed., 2020, 59, 15665-15673.
     DOI: 10.1002/anie.202004239
   
   for DFT-D4:
   * E. Caldeweyher, C. Bannwarth and S. Grimme, J. Chem. Phys., 2017,
     147, 034112. DOI: 10.1063/1.4993215
   * E. Caldeweyher, S. Ehlert, A. Hansen, H. Neugebauer, S. Spicher,
     C. Bannwarth and S. Grimme, J. Chem. Phys., 2019, 150, 154122.
     DOI: 10.1063/1.5090222
   * E. Caldeweyher, J.-M. Mewes, S. Ehlert and S. Grimme, Phys. Chem. Chem. Phys.
     2020, 22, 8499-8512. DOI: 10.1039/D0CP00502A
   
   for sTDA-xTB:
   * S. Grimme and C. Bannwarth, J. Chem. Phys., 2016, 145, 054103.
     DOI: 10.1063/1.4959605
   
   in the mass-spec context:
   * V. Asgeirsson, C. Bauer and S. Grimme, Chem. Sci., 2017, 8, 4879.
     DOI: 10.1039/c7sc00601b
   * J. Koopman and S. Grimme, ACS Omega 2019, 4, 12, 15120-15133.
     DOI: 10.1021/acsomega.9b02011
   
   for metadynamics refer to:
   * S. Grimme, J. Chem. Theory Comput., 2019, 155, 2847-2862
     DOI: 10.1021/acs.jctc.9b00143
   
   for SPH calculations refer to:
   * S. Spicher and S. Grimme, J. Chem. Theory Comput., 2021, 17, 1701-1714
     DOI: 10.1021/acs.jctc.0c01306
   
   with help from (in alphabetical order)
   P. Atkinson, C. Bannwarth, F. Bohle, G. Brandenburg, E. Caldeweyher
   M. Checinski, S. Dohm, S. Ehlert, S. Ehrlich, I. Gerasimov, J. Koopman
   C. Lavigne, S. Lehtola, F. März, M. Müller, F. Musil, H. Neugebauer
   J. Pisarek, C. Plett, P. Pracht, J. Seibert, P. Shushkov, S. Spicher
   M. Stahn, M. Steiner, T. Strunk, J. Stückrath, T. Rose, and J. Unsleber
   
 * started run on 2022/02/14 at 04:45:08.116     

           -------------------------------------------------
          |                Calculation Setup                |
           -------------------------------------------------

          program call               : /ihome/ghutchison/oda6/xtb/xtb-641/bin/xtb ../../FF_optimized/39_130_130_62_39.mol -opt
          hostname                   : smp-n25
          coordinate file            : ../../FF_optimized/39_130_130_62_39.mol
          omp threads                :                     8
          number of atoms            :                   250
          number of electrons        :                   768
          charge                     :                     0
          spin                       :                   0.0
          first test random number   :      0.56691369283370

   ID    Z sym.   atoms
    1    6 C      1-3, 5-13, 15, 17-25, 27-30, 32-38, 40-43, 45, 46, 48-51,
                  53-59, 61-64, 66, 67, 69-72, 74-80, 82-85, 87, 88, 90-93,
                  95-101, 103-106, 108-114, 116-118, 120-128, 130, 132, 133,
                  135-137, 139-147, 149, 151-157
    2    8 O      4, 138
    3    7 N      14, 16, 26, 47, 68, 89, 148, 150
    4   16 S      31, 39, 44, 52, 60, 65, 73, 81, 86, 94, 102, 107, 119, 129,
                  131, 134
    5   17 Cl     115
    6    1 H      158-250
########################################################################
[WARNING] Please study the warnings concerning your input carefully
-1- prog_main_parseArguments: the use of '-opt' is discouraged, please use '--opt' next time
########################################################################

           -------------------------------------------------
          |                 G F N 2 - x T B                 |
           -------------------------------------------------

        Reference                      10.1021/acs.jctc.8b01176
      * Hamiltonian:
        H0-scaling (s, p, d)           1.850000    2.230000    2.230000
        zeta-weighting                 0.500000
      * Dispersion:
        s8                             2.700000
        a1                             0.520000
        a2                             5.000000
        s9                             5.000000
      * Repulsion:
        kExp                           1.500000    1.000000
        rExp                           1.000000
      * Coulomb:
        alpha                          2.000000
        third order                    shell-resolved
        anisotropic                    true
        a3                             3.000000
        a5                             4.000000
        cn-shift                       1.200000
        cn-exp                         4.000000
        max-rad                        5.000000


          ...................................................
          :                      SETUP                      :
          :.................................................:
          :  # basis functions                 823          :
          :  # atomic orbitals                 806          :
          :  # shells                          424          :
          :  # electrons                       768          :
          :  max. iterations                   250          :
          :  Hamiltonian                  GFN2-xTB          :
          :  restarted?                      false          :
          :  GBSA solvation                  false          :
          :  PC potential                    false          :
          :  electronic temp.          300.0000000     K    :
          :  accuracy                    1.0000000          :
          :  -> integral cutoff          0.2500000E+02      :
          :  -> integral neglect         0.1000000E-07      :
          :  -> SCF convergence          0.1000000E-05 Eh   :
          :  -> wf. convergence          0.1000000E-03 e    :
          :  Broyden damping             0.4000000          :
          ...................................................

 iter      E             dE          RMSdq      gap      omega  full diag
   1   -418.7041327 -0.418704E+03  0.480E+00    0.64       0.0  T
   2   -418.6791372  0.249956E-01  0.302E+00    0.74       1.0  T
   3   -417.2264952  0.145264E+01  0.241E+00    0.13       1.0  T
   4   -417.3097341 -0.832389E-01  0.153E+00    0.05       1.0  T
   5   -416.1265502  0.118318E+01  0.156E+00    0.10       1.0  T
   6   -419.1353705 -0.300882E+01  0.679E-01    0.66       1.0  T
   7   -419.1788612 -0.434908E-01  0.361E-01    0.52       1.0  T
   8   -419.1596702  0.191910E-01  0.467E-01    0.49       1.0  T
   9   -419.1837310 -0.240607E-01  0.197E-01    0.37       1.0  T
  10   -419.1856989 -0.196794E-02  0.145E-01    0.25       1.0  T
  11   -419.1889670 -0.326810E-02  0.401E-02    0.22       1.0  T
  12   -419.1891560 -0.188964E-03  0.221E-02    0.26       1.0  T
  13   -419.1892283 -0.723338E-04  0.130E-02    0.25       1.0  T
  14   -419.1892458 -0.175400E-04  0.102E-02    0.24       1.0  T
  15   -419.1892546 -0.872979E-05  0.644E-03    0.24       1.0  T
  16   -419.1892578 -0.325246E-05  0.469E-03    0.24       1.3  T
  17   -419.1892597 -0.192584E-05  0.334E-03    0.24       1.9  T
  18   -419.1892607 -0.939378E-06  0.236E-03    0.24       2.7  T
  19   -419.1892611 -0.455044E-06  0.172E-03    0.24       3.7  T
  20   -419.1892614 -0.278718E-06  0.117E-03    0.24       5.4  T
  21   -419.1892615 -0.126287E-06  0.630E-04    0.24      10.0  T
  22   -419.1892616 -0.567659E-07  0.294E-04    0.24      21.5  T

   *** convergence criteria satisfied after 22 iterations ***

         #    Occupation            Energy/Eh            Energy/eV
      -------------------------------------------------------------
         1        2.0000           -1.0506563             -28.5898
       ...           ...                  ...                  ...
       378        2.0000           -0.3638213              -9.9001
       379        2.0000           -0.3616479              -9.8409
       380        2.0000           -0.3608547              -9.8194
       381        2.0000           -0.3602006              -9.8016
       382        1.9990           -0.3546710              -9.6511
       383        1.9908           -0.3525984              -9.5947
       384        1.9862           -0.3522068              -9.5840 (HOMO)
       385        0.0240           -0.3432944              -9.3415 (LUMO)
       386        0.0000           -0.3357277              -9.1356
       387                         -0.3288726              -8.9491
       388                         -0.3223429              -8.7714
       389                         -0.3087048              -8.4003
       ...                                ...                  ...
       806                          1.0832411              29.4765
      -------------------------------------------------------------
                  HL-Gap            0.0089124 Eh            0.2425 eV
             Fermi-level           -0.3474854 Eh           -9.4556 eV

 SCC (total)                   0 d,  0 h,  0 min,  7.228 sec
 SCC setup                      ...        0 min,  0.005 sec (  0.070%)
 Dispersion                     ...        0 min,  0.019 sec (  0.261%)
 classical contributions        ...        0 min,  0.001 sec (  0.013%)
 integral evaluation            ...        0 min,  0.090 sec (  1.238%)
 iterations                     ...        0 min,  6.765 sec ( 93.583%)
 molecular gradient             ...        0 min,  0.340 sec (  4.704%)
 printout                       ...        0 min,  0.009 sec (  0.129%)

         :::::::::::::::::::::::::::::::::::::::::::::::::::::
         ::                     SUMMARY                     ::
         :::::::::::::::::::::::::::::::::::::::::::::::::::::
         :: total energy            -413.231580293534 Eh    ::
         :: gradient norm              0.428896538532 Eh/a0 ::
         :: HOMO-LUMO gap              0.242518429873 eV    ::
         ::.................................................::
         :: SCC energy              -419.189261597201 Eh    ::
         :: -> isotropic ES            0.132595873004 Eh    ::
         :: -> anisotropic ES          0.028689149786 Eh    ::
         :: -> anisotropic XC          0.273741179429 Eh    ::
         :: -> dispersion             -0.432455711234 Eh    ::
         :: repulsion energy           5.936614023375 Eh    ::
         :: add. restraining           0.000000000000 Eh    ::
         :: total charge              -0.000000000001 e     ::
         :::::::::::::::::::::::::::::::::::::::::::::::::::::

      ----------------------------------------------------------- 
     |                   =====================                   |
     |                        A N C O P T                        |
     |                   =====================                   |
     |               Approximate Normal Coordinate               |
     |                Rational Function Optimizer                |
      ----------------------------------------------------------- 

          ...................................................
          :                      SETUP                      :
          :.................................................:
          :   optimization level            normal          :
          :   max. optcycles                   750          :
          :   ANC micro-cycles                  20          :
          :   degrees of freedom               744          :
          :.................................................:
          :   RF solver                   davidson          :
          :   write xtbopt.log                true          :
          :   linear?                        false          :
          :   energy convergence         0.5000000E-05 Eh   :
          :   grad. convergence          0.1000000E-02 Eh/α :
          :   maximium RF displ.         1.0000000          :
          :   Hlow (freq-cutoff)         0.1000000E-01      :
          :   Hmax (freq-cutoff)         5.0000000          :
          :   S6 in model hess.         20.0000000          :
          ...................................................

generating ANC from model Hessian ...
Using Lindh-Hessian (1995)
 Shifting diagonal of input Hessian by   1.001995443791104E-002
 Lowest  eigenvalues of input Hessian
    0.010000    0.010004    0.000000    0.000000    0.000000    0.000000
    0.000000    0.000000    0.010021    0.010029    0.010034    0.010044
    0.010050    0.010057    0.010079    0.010095    0.010115    0.010120
 Highest eigenvalues
    2.059227    2.065202    2.448727    2.466852    2.486481    2.564870
 

........................................................................
.............................. CYCLE    1 ..............................
........................................................................
   1   -419.1892616 -0.419189E+03  0.158E-04    0.24       0.0  T
   2   -419.1892616  0.313895E-08  0.168E-04    0.24      37.5  T
   3   -419.1892616 -0.483305E-08  0.107E-04    0.24      59.1  T
     SCC iter.                  ...        0 min,  0.710 sec
     gradient                   ...        0 min,  0.340 sec
 * total energy  :  -413.2315803 Eh     change       -0.1299748E-07 Eh
   gradient norm :     0.4288967 Eh/α   predicted     0.0000000E+00 (-100.00%)
   displ. norm   :     0.5792418 α      lambda       -0.1910579E+00
   maximum displ.:     0.1360296 α      in ANC's #409, #419, #393, ...

........................................................................
.............................. CYCLE    2 ..............................
........................................................................
   1   -419.5544749 -0.419554E+03  0.275E-01    0.28       0.0  T
   2   -419.5523126  0.216222E-02  0.202E-01    0.26       1.0  T
   3   -419.5279686  0.243440E-01  0.351E-01    0.34       1.0  T
   4   -419.5537102 -0.257415E-01  0.110E-01    0.25       1.0  T
   5   -419.5570138 -0.330361E-02  0.389E-02    0.31       1.0  T
   6   -419.5574270 -0.413205E-03  0.174E-02    0.26       1.0  T
   7   -419.5575045 -0.775553E-04  0.904E-03    0.29       1.0  T
   8   -419.5575176 -0.130398E-04  0.507E-03    0.27       1.2  T
   9   -419.5575231 -0.557300E-05  0.241E-03    0.28       2.6  T
  10   -419.5575234 -0.292272E-06  0.176E-03    0.28       3.6  T
  11   -419.5575237 -0.306545E-06  0.117E-03    0.28       5.4  T
  12   -419.5575239 -0.119599E-06  0.826E-04    0.28       7.7  T
  13   -419.5575239 -0.484861E-07  0.592E-04    0.28      10.7  T
     SCC iter.                  ...        0 min,  3.677 sec
     gradient                   ...        0 min,  0.283 sec
 * total energy  :  -413.3783753 Eh     change       -0.1467950E+00 Eh
   gradient norm :     0.2227303 Eh/α   predicted    -0.1276364E+00 ( -13.05%)
   displ. norm   :     0.5894139 α      lambda       -0.1017270E+00
   maximum displ.:     0.1349422 α      in ANC's #409, #393, #419, ...

........................................................................
.............................. CYCLE    3 ..............................
........................................................................
   1   -419.8191093 -0.419819E+03  0.264E-01    0.31       0.0  T
   2   -419.8144504  0.465888E-02  0.204E-01    0.24       1.0  T
   3   -419.7888892  0.255612E-01  0.351E-01    0.38       1.0  T
   4   -419.8200384 -0.311492E-01  0.896E-02    0.32       1.0  T
   5   -419.8220803 -0.204188E-02  0.285E-02    0.27       1.0  T
   6   -419.8222449 -0.164618E-03  0.130E-02    0.30       1.0  T
   7   -419.8222650 -0.200563E-04  0.705E-03    0.28       1.0  T
   8   -419.8222738 -0.881943E-05  0.407E-03    0.29       1.6  T
   9   -419.8222763 -0.252368E-05  0.261E-03    0.29       2.4  T
  10   -419.8222771 -0.771006E-06  0.184E-03    0.29       3.4  T
  11   -419.8222774 -0.305367E-06  0.130E-03    0.29       4.9  T
  12   -419.8222776 -0.163142E-06  0.868E-04    0.29       7.3  T
  13   -419.8222777 -0.686138E-07  0.571E-04    0.29      11.1  T
     SCC iter.                  ...        0 min,  3.697 sec
     gradient                   ...        0 min,  0.302 sec
 * total energy  :  -413.4472449 Eh     change       -0.6886961E-01 Eh
   gradient norm :     0.0783432 Eh/α   predicted    -0.6853398E-01 (  -0.49%)
   displ. norm   :     0.6212554 α      lambda       -0.3411764E-01
   maximum displ.:     0.1422163 α      in ANC's #106, #114, #110, ...

........................................................................
.............................. CYCLE    4 ..............................
........................................................................
   1   -419.9347429 -0.419935E+03  0.177E-01    0.34       0.0  T
   2   -419.9322619  0.248094E-02  0.136E-01    0.28       1.0  T
   3   -419.9244925  0.776939E-02  0.202E-01    0.34       1.0  T
   4   -419.9345152 -0.100227E-01  0.538E-02    0.32       1.0  T
   5   -419.9355891 -0.107397E-02  0.134E-02    0.30       1.0  T
   6   -419.9356231 -0.339817E-04  0.593E-03    0.30       1.1  T
   7   -419.9356264 -0.323283E-05  0.346E-03    0.30       1.8  T
   8   -419.9356280 -0.161757E-05  0.194E-03    0.30       3.3  T
   9   -419.9356285 -0.570702E-06  0.130E-03    0.30       4.9  T
  10   -419.9356286 -0.742787E-07  0.977E-04    0.30       6.5  T
  11   -419.9356287 -0.103772E-06  0.648E-04    0.30       9.8  T
     SCC iter.                  ...        0 min,  3.030 sec
     gradient                   ...        0 min,  0.341 sec
 * total energy  :  -413.4728855 Eh     change       -0.2564058E-01 Eh
   gradient norm :     0.0518159 Eh/α   predicted    -0.2364283E-01 (  -7.79%)
   displ. norm   :     0.6921286 α      lambda       -0.2070772E-01
   maximum displ.:     0.1543251 α      in ANC's #104, #114, #106, ...

........................................................................
.............................. CYCLE    5 ..............................
........................................................................
   1   -420.0010198 -0.420001E+03  0.196E-01    0.37       0.0  T
   2   -419.9997119  0.130793E-02  0.127E-01    0.33       1.0  T
   3   -419.9895628  0.101491E-01  0.202E-01    0.37       1.0  T
   4   -420.0012272 -0.116644E-01  0.323E-02    0.34       1.0  T
   5   -420.0015936 -0.366439E-03  0.945E-03    0.33       1.0  T
   6   -420.0016072 -0.135701E-04  0.458E-03    0.34       1.4  T
   7   -420.0016088 -0.161703E-05  0.283E-03    0.34       2.2  T
   8   -420.0016103 -0.150569E-05  0.134E-03    0.34       4.7  T
   9   -420.0016105 -0.218049E-06  0.898E-04    0.34       7.0  T
  10   -420.0016106 -0.453361E-07  0.619E-04    0.34      10.2  T
     SCC iter.                  ...        0 min,  2.374 sec
     gradient                   ...        0 min,  0.340 sec
 * total energy  :  -413.4889688 Eh     change       -0.1608329E-01 Eh
   gradient norm :     0.0478434 Eh/α   predicted    -0.1531381E-01 (  -4.78%)
   displ. norm   :     0.7827343 α      lambda       -0.1823513E-01
   maximum displ.:     0.2253809 α      in ANC's #106, #114, #109, ...

........................................................................
.............................. CYCLE    6 ..............................
........................................................................
   1   -420.0419625 -0.420042E+03  0.232E-01    0.42       0.0  T
   2   -420.0419089  0.536086E-04  0.133E-01    0.40       1.0  T
   3   -420.0368184  0.509053E-02  0.145E-01    0.39       1.0  T
   4   -420.0419582 -0.513986E-02  0.377E-02    0.38       1.0  T
   5   -420.0424370 -0.478762E-03  0.988E-03    0.40       1.0  T
   6   -420.0424542 -0.172477E-04  0.445E-03    0.39       1.4  T
   7   -420.0424569 -0.266849E-05  0.254E-03    0.40       2.5  T
   8   -420.0424580 -0.112410E-05  0.117E-03    0.39       5.4  T
   9   -420.0424582 -0.187158E-06  0.736E-04    0.39       8.6  T
  10   -420.0424583 -0.322080E-07  0.499E-04    0.39      12.7  T
     SCC iter.                  ...        0 min,  2.379 sec
     gradient                   ...        0 min,  0.337 sec
 * total energy  :  -413.4999849 Eh     change       -0.1101611E-01 Eh
   gradient norm :     0.0492037 Eh/α   predicted    -0.1470365E-01 (  33.47%)
   displ. norm   :     0.6693578 α      lambda       -0.1404451E-01
   maximum displ.:     0.1501326 α      in ANC's #104, #47, #109, ...

........................................................................
.............................. CYCLE    7 ..............................
........................................................................
   1   -420.0720663 -0.420072E+03  0.204E-01    0.45       0.0  T
   2   -420.0719696  0.966918E-04  0.116E-01    0.44       1.0  T
   3   -420.0675889  0.438068E-02  0.120E-01    0.45       1.0  T
   4   -420.0722996 -0.471068E-02  0.144E-02    0.44       1.0  T
   5   -420.0723453 -0.456716E-04  0.598E-03    0.44       1.1  T
   6   -420.0723485 -0.321757E-05  0.286E-03    0.44       2.2  T
   7   -420.0723498 -0.134264E-05  0.143E-03    0.44       4.4  T
   8   -420.0723502 -0.389035E-06  0.656E-04    0.44       9.6  T
   9   -420.0723503 -0.402518E-07  0.386E-04    0.44      16.4  T
     SCC iter.                  ...        0 min,  2.142 sec
     gradient                   ...        0 min,  0.342 sec
 * total energy  :  -413.5107082 Eh     change       -0.1072329E-01 Eh
   gradient norm :     0.0360425 Eh/α   predicted    -0.1016850E-01 (  -5.17%)
   displ. norm   :     0.7105386 α      lambda       -0.1011718E-01
   maximum displ.:     0.1901304 α      in ANC's #47, #30, #49, ...

........................................................................
.............................. CYCLE    8 ..............................
........................................................................
   1   -420.0836567 -0.420084E+03  0.153E-01    0.46       0.0  T
   2   -420.0837165 -0.598017E-04  0.859E-02    0.46       1.0  T
   3   -420.0833559  0.360535E-03  0.394E-02    0.46       1.0  T
   4   -420.0837424 -0.386494E-03  0.102E-02    0.46       1.0  T
   5   -420.0837593 -0.168364E-04  0.606E-03    0.46       1.0  T
   6   -420.0837661 -0.685890E-05  0.234E-03    0.46       2.7  T
   7   -420.0837674 -0.127934E-05  0.101E-03    0.46       6.3  T
   8   -420.0837676 -0.167385E-06  0.472E-04    0.46      13.4  T
   9   -420.0837676 -0.159320E-07  0.263E-04    0.46      24.0  T
     SCC iter.                  ...        0 min,  2.132 sec
     gradient                   ...        0 min,  0.283 sec
 * total energy  :  -413.5188923 Eh     change       -0.8184153E-02 Eh
   gradient norm :     0.0410030 Eh/α   predicted    -0.7612499E-02 (  -6.98%)
   displ. norm   :     0.8055283 α      lambda       -0.1047379E-01
   maximum displ.:     0.2156560 α      in ANC's #47, #150, #106, ...

........................................................................
.............................. CYCLE    9 ..............................
........................................................................
   1   -420.0986535 -0.420099E+03  0.159E-01    0.50       0.0  T
   2   -420.0987193 -0.657821E-04  0.917E-02    0.50       1.0  T
   3   -420.0980580  0.661271E-03  0.498E-02    0.50       1.0  T
   4   -420.0987678 -0.709777E-03  0.116E-02    0.49       1.0  T
   5   -420.0987928 -0.250275E-04  0.580E-03    0.50       1.1  T
   6   -420.0987988 -0.593100E-05  0.227E-03    0.50       2.8  T
   7   -420.0987998 -0.106446E-05  0.957E-04    0.50       6.6  T
   8   -420.0988000 -0.161747E-06  0.469E-04    0.50      13.5  T
   9   -420.0988000 -0.161443E-07  0.276E-04    0.50      22.9  T
     SCC iter.                  ...        0 min,  2.694 sec
     gradient                   ...        0 min,  0.279 sec
 * total energy  :  -413.5263269 Eh     change       -0.7434584E-02 Eh
   gradient norm :     0.0367331 Eh/α   predicted    -0.8635007E-02 (  16.15%)
   displ. norm   :     0.7226636 α      lambda       -0.9707132E-02
   maximum displ.:     0.2200955 α      in ANC's #47, #30, #49, ...

........................................................................
.............................. CYCLE   10 ..............................
........................................................................
   1   -420.1211362 -0.420121E+03  0.123E-01    0.50       0.0  T
   2   -420.1211784 -0.422291E-04  0.704E-02    0.51       1.0  T
   3   -420.1206431  0.535261E-03  0.437E-02    0.50       1.0  T
   4   -420.1212250 -0.581840E-03  0.996E-03    0.51       1.0  T
   5   -420.1212425 -0.175305E-04  0.489E-03    0.51       1.3  T
   6   -420.1212470 -0.446830E-05  0.189E-03    0.51       3.4  T
   7   -420.1212476 -0.598675E-06  0.781E-04    0.51       8.1  T
   8   -420.1212477 -0.102843E-06  0.352E-04    0.51      18.0  T
     SCC iter.                  ...        0 min,  2.391 sec
     gradient                   ...        0 min,  0.276 sec
 * total energy  :  -413.5319665 Eh     change       -0.5639573E-02 Eh
   gradient norm :     0.0613329 Eh/α   predicted    -0.7388308E-02 (  31.01%)
   displ. norm   :     0.6945851 α      lambda       -0.8747361E-02
   maximum displ.:     0.2017109 α      in ANC's #30, #47, #49, ...

........................................................................
.............................. CYCLE   11 ..............................
........................................................................
   1   -420.1050709 -0.420105E+03  0.151E-01    0.50       0.0  T
   2   -420.1051194 -0.484342E-04  0.863E-02    0.51       1.0  T
   3   -420.1045687  0.550667E-03  0.474E-02    0.50       1.0  T
   4   -420.1051782 -0.609555E-03  0.845E-03    0.51       1.0  T
   5   -420.1051874 -0.917483E-05  0.473E-03    0.51       1.3  T
   6   -420.1051910 -0.357474E-05  0.188E-03    0.51       3.4  T
   7   -420.1051917 -0.718469E-06  0.759E-04    0.51       8.3  T
   8   -420.1051918 -0.737753E-07  0.354E-04    0.51      17.9  T
     SCC iter.                  ...        0 min,  2.384 sec
     gradient                   ...        0 min,  0.282 sec
 * total energy  :  -413.5386041 Eh     change       -0.6637662E-02 Eh
   gradient norm :     0.0264954 Eh/α   predicted    -0.6483754E-02 (  -2.32%)
   displ. norm   :     0.7775419 α      lambda       -0.6232093E-02
   maximum displ.:     0.2407720 α      in ANC's #47, #30, #49, ...

........................................................................
.............................. CYCLE   12 ..............................
........................................................................
   1   -420.1094795 -0.420109E+03  0.121E-01    0.50       0.0  T
   2   -420.1095234 -0.438407E-04  0.678E-02    0.51       1.0  T
   3   -420.1093309  0.192516E-03  0.268E-02    0.51       1.0  T
   4   -420.1095406 -0.209700E-03  0.813E-03    0.51       1.0  T
   5   -420.1095494 -0.880244E-05  0.445E-03    0.51       1.4  T
   6   -420.1095534 -0.405576E-05  0.142E-03    0.51       4.4  T
   7   -420.1095538 -0.351218E-06  0.687E-04    0.51       9.2  T
   8   -420.1095539 -0.937955E-07  0.308E-04    0.51      20.5  T
     SCC iter.                  ...        0 min,  2.387 sec
     gradient                   ...        0 min,  0.276 sec
 * total energy  :  -413.5439635 Eh     change       -0.5359389E-02 Eh
   gradient norm :     0.0328210 Eh/α   predicted    -0.4999925E-02 (  -6.71%)
   displ. norm   :     0.7991290 α      lambda       -0.5998292E-02
   maximum displ.:     0.2469591 α      in ANC's #47, #30, #49, ...

........................................................................
.............................. CYCLE   13 ..............................
........................................................................
   1   -420.1211821 -0.420121E+03  0.118E-01    0.50       0.0  T
   2   -420.1212394 -0.573954E-04  0.667E-02    0.50       1.0  T
   3   -420.1210903  0.149168E-03  0.272E-02    0.51       1.0  T
   4   -420.1212659 -0.175597E-03  0.732E-03    0.50       1.0  T
   5   -420.1212689 -0.304374E-05  0.423E-03    0.51       1.5  T
   6   -420.1212725 -0.359146E-05  0.134E-03    0.51       4.7  T
   7   -420.1212728 -0.304005E-06  0.664E-04    0.51       9.5  T
   8   -420.1212729 -0.669264E-07  0.373E-04    0.51      17.0  T
     SCC iter.                  ...        0 min,  2.381 sec
     gradient                   ...        0 min,  0.290 sec
 * total energy  :  -413.5491055 Eh     change       -0.5141928E-02 Eh
   gradient norm :     0.0240923 Eh/α   predicted    -0.4914431E-02 (  -4.42%)
   displ. norm   :     0.8174389 α      lambda       -0.5339086E-02
   maximum displ.:     0.2339235 α      in ANC's #47, #30, #49, ...

........................................................................
.............................. CYCLE   14 ..............................
........................................................................
   1   -420.1330519 -0.420133E+03  0.111E-01    0.51       0.0  T
   2   -420.1330980 -0.461322E-04  0.619E-02    0.51       1.0  T
   3   -420.1329174  0.180588E-03  0.271E-02    0.51       1.0  T
   4   -420.1331174 -0.200002E-03  0.843E-03    0.51       1.0  T
   5   -420.1331258 -0.839967E-05  0.442E-03    0.51       1.4  T
   6   -420.1331295 -0.373574E-05  0.139E-03    0.51       4.6  T
   7   -420.1331298 -0.303068E-06  0.692E-04    0.51       9.1  T
   8   -420.1331299 -0.844755E-07  0.375E-04    0.51      16.9  T
     SCC iter.                  ...        0 min,  2.403 sec
     gradient                   ...        0 min,  0.285 sec
 * total energy  :  -413.5534119 Eh     change       -0.4306460E-02 Eh
   gradient norm :     0.0247712 Eh/α   predicted    -0.4453350E-02 (   3.41%)
   displ. norm   :     0.8247240 α      lambda       -0.4896090E-02
   maximum displ.:     0.2498775 α      in ANC's #30, #47, #49, ...

........................................................................
.............................. CYCLE   15 ..............................
........................................................................
   1   -420.1173403 -0.420117E+03  0.155E-01    0.48       0.0  T
   2   -420.1174344 -0.941195E-04  0.854E-02    0.48       1.0  T
   3   -420.1172456  0.188765E-03  0.305E-02    0.48       1.0  T
   4   -420.1174707 -0.225055E-03  0.823E-03    0.49       1.0  T
   5   -420.1174752 -0.451483E-05  0.475E-03    0.48       1.3  T
   6   -420.1174792 -0.405008E-05  0.149E-03    0.49       4.3  T
   7   -420.1174796 -0.314516E-06  0.739E-04    0.49       8.6  T
   8   -420.1174796 -0.742690E-07  0.383E-04    0.49      16.5  T
     SCC iter.                  ...        0 min,  2.388 sec
     gradient                   ...        0 min,  0.276 sec
 * total energy  :  -413.5566531 Eh     change       -0.3241172E-02 Eh
   gradient norm :     0.0549864 Eh/α   predicted    -0.4113130E-02 (  26.90%)
   displ. norm   :     0.7012052 α      lambda       -0.5288063E-02
   maximum displ.:     0.2050976 α      in ANC's #30, #47, #49, ...

........................................................................
.............................. CYCLE   16 ..............................
........................................................................
   1   -420.1263528 -0.420126E+03  0.122E-01    0.50       0.0  T
   2   -420.1264252 -0.723850E-04  0.678E-02    0.51       1.0  T
   3   -420.1261916  0.233562E-03  0.313E-02    0.51       1.0  T
   4   -420.1264551 -0.263511E-03  0.821E-03    0.50       1.0  T
   5   -420.1264636 -0.844518E-05  0.415E-03    0.51       1.5  T
   6   -420.1264658 -0.224510E-05  0.157E-03    0.51       4.0  T
   7   -420.1264662 -0.404798E-06  0.688E-04    0.51       9.2  T
   8   -420.1264663 -0.815257E-07  0.307E-04    0.51      20.6  T
     SCC iter.                  ...        0 min,  2.392 sec
     gradient                   ...        0 min,  0.278 sec
 * total energy  :  -413.5596233 Eh     change       -0.2970212E-02 Eh
   gradient norm :     0.0358128 Eh/α   predicted    -0.3944084E-02 (  32.79%)
   displ. norm   :     0.6639656 α      lambda       -0.4001485E-02
   maximum displ.:     0.1856025 α      in ANC's #30, #49, #47, ...

........................................................................
.............................. CYCLE   17 ..............................
........................................................................
   1   -420.1285597 -0.420129E+03  0.916E-02    0.50       0.0  T
   2   -420.1285853 -0.255705E-04  0.511E-02    0.50       1.0  T
   3   -420.1284906  0.947116E-04  0.215E-02    0.50       1.0  T
   4   -420.1285995 -0.108912E-03  0.600E-03    0.50       1.1  T
   5   -420.1286015 -0.202134E-05  0.315E-03    0.50       2.0  T
   6   -420.1286033 -0.178214E-05  0.117E-03    0.50       5.4  T
   7   -420.1286036 -0.309734E-06  0.487E-04    0.50      13.0  T
   8   -420.1286036 -0.375656E-07  0.236E-04    0.50      26.7  T
     SCC iter.                  ...        0 min,  2.388 sec
     gradient                   ...        0 min,  0.283 sec
 * total energy  :  -413.5623447 Eh     change       -0.2721369E-02 Eh
   gradient norm :     0.0263340 Eh/α   predicted    -0.2882771E-02 (   5.93%)
   displ. norm   :     0.6945222 α      lambda       -0.4372225E-02
   maximum displ.:     0.1868438 α      in ANC's #30, #27, #48, ...

........................................................................
.............................. CYCLE   18 ..............................
........................................................................
   1   -420.1507240 -0.420151E+03  0.105E-01    0.50       0.0  T
   2   -420.1507611 -0.371327E-04  0.587E-02    0.49       1.0  T
   3   -420.1505901  0.171016E-03  0.278E-02    0.50       1.0  T
   4   -420.1507820 -0.191941E-03  0.714E-03    0.49       1.0  T
   5   -420.1507864 -0.433434E-05  0.386E-03    0.49       1.6  T
   6   -420.1507891 -0.276102E-05  0.145E-03    0.49       4.4  T
   7   -420.1507895 -0.367838E-06  0.586E-04    0.49      10.8  T
   8   -420.1507896 -0.573633E-07  0.273E-04    0.49      23.1  T
     SCC iter.                  ...        0 min,  2.387 sec
     gradient                   ...        0 min,  0.276 sec
 * total energy  :  -413.5646898 Eh     change       -0.2345113E-02 Eh
   gradient norm :     0.0362462 Eh/α   predicted    -0.3240609E-02 (  38.19%)
   displ. norm   :     0.6765244 α      lambda       -0.3811482E-02
   maximum displ.:     0.1996281 α      in ANC's #30, #27, #40, ...

........................................................................
.............................. CYCLE   19 ..............................
........................................................................
   1   -420.1319622 -0.420132E+03  0.996E-02    0.49       0.0  T
   2   -420.1319914 -0.291435E-04  0.550E-02    0.49       1.0  T
   3   -420.1318242  0.167215E-03  0.275E-02    0.49       1.0  T
   4   -420.1320155 -0.191379E-03  0.605E-03    0.49       1.0  T
   5   -420.1320169 -0.137634E-05  0.341E-03    0.49       1.9  T
   6   -420.1320192 -0.228550E-05  0.116E-03    0.49       5.4  T
   7   -420.1320194 -0.242956E-06  0.456E-04    0.49      13.9  T
   8   -420.1320195 -0.299488E-07  0.233E-04    0.49      27.1  T
     SCC iter.                  ...        0 min,  2.390 sec
     gradient                   ...        0 min,  0.283 sec
 * total energy  :  -413.5675469 Eh     change       -0.2857143E-02 Eh
   gradient norm :     0.0274860 Eh/α   predicted    -0.2777970E-02 (  -2.77%)
   displ. norm   :     0.6969428 α      lambda       -0.3711098E-02
   maximum displ.:     0.1768169 α      in ANC's #30, #48, #15, ...

........................................................................
.............................. CYCLE   20 ..............................
........................................................................
   1   -420.1491795 -0.420149E+03  0.902E-02    0.50       0.0  T
   2   -420.1492081 -0.286692E-04  0.507E-02    0.50       1.0  T
   3   -420.1489529  0.255277E-03  0.319E-02    0.50       1.0  T
   4   -420.1492459 -0.293079E-03  0.740E-03    0.50       1.0  T
   5   -420.1492523 -0.633598E-05  0.355E-03    0.50       1.8  T
   6   -420.1492533 -0.993544E-06  0.149E-03    0.50       4.2  T
   7   -420.1492538 -0.473827E-06  0.497E-04    0.50      12.7  T
   8   -420.1492538 -0.401982E-07  0.243E-04    0.50      26.0  T
     SCC iter.                  ...        0 min,  2.391 sec
     gradient                   ...        0 min,  0.282 sec
 * total energy  :  -413.5698494 Eh     change       -0.2302503E-02 Eh
   gradient norm :     0.0367499 Eh/α   predicted    -0.2756844E-02 (  19.73%)
   displ. norm   :     0.7269766 α      lambda       -0.3484764E-02
   maximum displ.:     0.2243279 α      in ANC's #27, #30, #40, ...
 * RMSD in coord.:     0.7129218 α      energy gain  -0.3382691E+00 Eh

generating ANC from model Hessian ...
Using Lindh-Hessian (1995)
 Shifting diagonal of input Hessian by   1.001891357493775E-002
 Lowest  eigenvalues of input Hessian
    0.010000    0.010005    0.000000    0.000000    0.000000    0.000000
    0.000000    0.000000    0.010026    0.010033    0.010045    0.010055
    0.010061    0.010069    0.010088    0.010108    0.010130    0.010138
 Highest eigenvalues
    2.284771    2.294856    2.601323    2.604296    2.647234    2.654827
 

........................................................................
.............................. CYCLE   21 ..............................
........................................................................
   1   -420.1458280 -0.420146E+03  0.104E-01    0.50       0.0  T
   2   -420.1458653 -0.373546E-04  0.575E-02    0.50       1.0  T
   3   -420.1457286  0.136689E-03  0.252E-02    0.50       1.0  T
   4   -420.1458857 -0.157037E-03  0.627E-03    0.50       1.0  T
   5   -420.1458879 -0.222343E-05  0.327E-03    0.50       1.9  T
   6   -420.1458896 -0.172292E-05  0.134E-03    0.50       4.7  T
   7   -420.1458900 -0.331717E-06  0.497E-04    0.50      12.7  T
   8   -420.1458900 -0.368347E-07  0.242E-04    0.50      26.1  T
     SCC iter.                  ...        0 min,  1.142 sec
     gradient                   ...        0 min,  0.350 sec
 * total energy  :  -413.5725241 Eh     change       -0.2674692E-02 Eh
   gradient norm :     0.0253838 Eh/α   predicted     0.0000000E+00 (-100.00%)
   displ. norm   :     0.3043598 α      lambda       -0.2002708E-02
   maximum displ.:     0.0753882 α      in ANC's #6, #40, #29, ...

........................................................................
.............................. CYCLE   22 ..............................
........................................................................
   1   -420.1525945 -0.420153E+03  0.804E-02    0.49       0.0  T
   2   -420.1526145 -0.200502E-04  0.449E-02    0.49       1.0  T
   3   -420.1525429  0.716443E-04  0.157E-02    0.49       1.0  T
   4   -420.1526251 -0.822073E-04  0.391E-03    0.49       1.6  T
   5   -420.1526269 -0.181264E-05  0.201E-03    0.49       3.1  T
   6   -420.1526273 -0.408373E-06  0.791E-04    0.49       8.0  T
   7   -420.1526274 -0.102536E-06  0.360E-04    0.49      17.6  T
     SCC iter.                  ...        0 min,  1.012 sec
     gradient                   ...        0 min,  0.350 sec
 * total energy  :  -413.5739549 Eh     change       -0.1430725E-02 Eh
   gradient norm :     0.0105870 Eh/α   predicted    -0.1095314E-02 ( -23.44%)
   displ. norm   :     0.6048245 α      lambda       -0.2687625E-02
   maximum displ.:     0.1572884 α      in ANC's #6, #29, #31, ...

........................................................................
.............................. CYCLE   23 ..............................
........................................................................
   1   -420.1629806 -0.420163E+03  0.103E-01    0.49       0.0  T
   2   -420.1630150 -0.344375E-04  0.570E-02    0.49       1.0  T
   3   -420.1628241  0.190862E-03  0.254E-02    0.49       1.0  T
   4   -420.1630344 -0.210258E-03  0.728E-03    0.49       1.0  T
   5   -420.1630419 -0.748853E-05  0.358E-03    0.49       1.8  T
   6   -420.1630434 -0.149653E-05  0.129E-03    0.49       4.9  T
   7   -420.1630437 -0.302160E-06  0.542E-04    0.49      11.7  T
   8   -420.1630437 -0.528648E-07  0.237E-04    0.49      26.7  T
     SCC iter.                  ...        0 min,  1.172 sec
     gradient                   ...        0 min,  0.351 sec
 * total energy  :  -413.5755012 Eh     change       -0.1546343E-02 Eh
   gradient norm :     0.0311330 Eh/α   predicted    -0.1835398E-02 (  18.69%)
   displ. norm   :     0.6105768 α      lambda       -0.2629638E-02
   maximum displ.:     0.1658250 α      in ANC's #6, #40, #49, ...

........................................................................
.............................. CYCLE   24 ..............................
........................................................................
   1   -420.1625513 -0.420163E+03  0.110E-01    0.49       0.0  T
   2   -420.1625886 -0.372356E-04  0.596E-02    0.49       1.0  T
   3   -420.1624454  0.143189E-03  0.223E-02    0.50       1.0  T
   4   -420.1626088 -0.163393E-03  0.634E-03    0.49       1.0  T
   5   -420.1626136 -0.478436E-05  0.308E-03    0.49       2.1  T
   6   -420.1626148 -0.120197E-05  0.107E-03    0.49       5.9  T
   7   -420.1626150 -0.210239E-06  0.462E-04    0.49      13.7  T
   8   -420.1626150 -0.289702E-07  0.233E-04    0.49      27.2  T
     SCC iter.                  ...        0 min,  1.155 sec
     gradient                   ...        0 min,  0.342 sec
 * total energy  :  -413.5775659 Eh     change       -0.2064713E-02 Eh
   gradient norm :     0.0238760 Eh/α   predicted    -0.1805040E-02 ( -12.58%)
   displ. norm   :     0.7203937 α      lambda       -0.3017339E-02
   maximum displ.:     0.2020515 α      in ANC's #6, #40, #31, ...

........................................................................
.............................. CYCLE   25 ..............................
........................................................................
   1   -420.1542561 -0.420154E+03  0.125E-01    0.49       0.0  T
   2   -420.1543041 -0.480498E-04  0.683E-02    0.49       1.0  T
   3   -420.1541725  0.131640E-03  0.228E-02    0.49       1.0  T
   4   -420.1543253 -0.152877E-03  0.696E-03    0.49       1.0  T
   5   -420.1543298 -0.447735E-05  0.350E-03    0.49       1.8  T
   6   -420.1543319 -0.212364E-05  0.116E-03    0.49       5.5  T
   7   -420.1543322 -0.225047E-06  0.517E-04    0.49      12.2  T
   8   -420.1543322 -0.304711E-07  0.268E-04    0.49      23.6  T
     SCC iter.                  ...        0 min,  1.173 sec
     gradient                   ...        0 min,  0.345 sec
 * total energy  :  -413.5795207 Eh     change       -0.1954839E-02 Eh
   gradient norm :     0.0247223 Eh/α   predicted    -0.2291621E-02 (  17.23%)
   displ. norm   :     0.6957835 α      lambda       -0.2692286E-02
   maximum displ.:     0.2008946 α      in ANC's #6, #31, #40, ...

........................................................................
.............................. CYCLE   26 ..............................
........................................................................
   1   -420.1537524 -0.420154E+03  0.934E-02    0.49       0.0  T
   2   -420.1537761 -0.237403E-04  0.506E-02    0.49       1.0  T
   3   -420.1536633  0.112847E-03  0.206E-02    0.48       1.0  T
   4   -420.1537901 -0.126776E-03  0.614E-03    0.49       1.0  T
   5   -420.1537926 -0.252928E-05  0.336E-03    0.49       1.9  T
   6   -420.1537945 -0.195071E-05  0.109E-03    0.49       5.8  T
   7   -420.1537948 -0.238489E-06  0.450E-04    0.49      14.1  T
   8   -420.1537948 -0.267059E-07  0.238E-04    0.49      26.6  T
     SCC iter.                  ...        0 min,  2.528 sec
     gradient                   ...        0 min,  0.355 sec
 * total energy  :  -413.5817040 Eh     change       -0.2183284E-02 Eh
   gradient norm :     0.0208826 Eh/α   predicted    -0.1997832E-02 (  -8.49%)
   displ. norm   :     0.7519352 α      lambda       -0.2916934E-02
   maximum displ.:     0.2274296 α      in ANC's #6, #31, #29, ...

........................................................................
.............................. CYCLE   27 ..............................
........................................................................
   1   -420.1562221 -0.420156E+03  0.140E-01    0.49       0.0  T
   2   -420.1562757 -0.536887E-04  0.763E-02    0.48       1.0  T
   3   -420.1562200  0.557784E-04  0.175E-02    0.48       1.0  T
   4   -420.1562925 -0.725233E-04  0.637E-03    0.48       1.0  T
   5   -420.1562962 -0.368298E-05  0.310E-03    0.48       2.0  T
   6   -420.1562982 -0.200567E-05  0.111E-03    0.48       5.7  T
   7   -420.1562984 -0.238181E-06  0.517E-04    0.48      12.2  T
   8   -420.1562985 -0.374798E-07  0.251E-04    0.48      25.2  T
     SCC iter.                  ...        0 min,  1.916 sec
     gradient                   ...        0 min,  0.352 sec
 * total energy  :  -413.5835042 Eh     change       -0.1800126E-02 Eh
   gradient norm :     0.0180252 Eh/α   predicted    -0.2283097E-02 (  26.83%)
   displ. norm   :     0.7366286 α      lambda       -0.2497042E-02
   maximum displ.:     0.2314216 α      in ANC's #6, #31, #40, ...

........................................................................
.............................. CYCLE   28 ..............................
........................................................................
   1   -420.1581454 -0.420158E+03  0.908E-02    0.49       0.0  T
   2   -420.1581670 -0.215808E-04  0.488E-02    0.49       1.0  T
   3   -420.1581408  0.261750E-04  0.124E-02    0.48       1.0  T
   4   -420.1581707 -0.299215E-04  0.586E-03    0.49       1.1  T
   5   -420.1581747 -0.397914E-05  0.245E-03    0.49       2.6  T
   6   -420.1581758 -0.113632E-05  0.780E-04    0.49       8.1  T
   7   -420.1581759 -0.975729E-07  0.363E-04    0.49      17.4  T
   8   -420.1581759 -0.129110E-07  0.217E-04    0.49      29.1  T
     SCC iter.                  ...        0 min,  2.425 sec
     gradient                   ...        0 min,  0.350 sec
 * total energy  :  -413.5856225 Eh     change       -0.2118315E-02 Eh
   gradient norm :     0.0167405 Eh/α   predicted    -0.1925997E-02 (  -9.08%)
   displ. norm   :     0.7863216 α      lambda       -0.2448166E-02
   maximum displ.:     0.2656641 α      in ANC's #6, #40, #31, ...

........................................................................
.............................. CYCLE   29 ..............................
........................................................................
   1   -420.1617814 -0.420162E+03  0.105E-01    0.48       0.0  T
   2   -420.1618127 -0.313472E-04  0.571E-02    0.48       1.0  T
   3   -420.1617591  0.536629E-04  0.162E-02    0.47       1.0  T
   4   -420.1618217 -0.626980E-04  0.609E-03    0.48       1.0  T
   5   -420.1618251 -0.333682E-05  0.303E-03    0.48       2.1  T
   6   -420.1618270 -0.187721E-05  0.100E-03    0.48       6.3  T
   7   -420.1618272 -0.191614E-06  0.456E-04    0.48      13.9  T
   8   -420.1618272 -0.259744E-07  0.253E-04    0.48      25.0  T
     SCC iter.                  ...        0 min,  2.404 sec
     gradient                   ...        0 min,  0.348 sec
 * total energy  :  -413.5876137 Eh     change       -0.1991203E-02 Eh
   gradient norm :     0.0198986 Eh/α   predicted    -0.1980953E-02 (  -0.51%)
   displ. norm   :     0.8191757 α      lambda       -0.2390530E-02
   maximum displ.:     0.2853939 α      in ANC's #6, #31, #40, ...

........................................................................
.............................. CYCLE   30 ..............................
........................................................................
   1   -420.1749876 -0.420175E+03  0.941E-02    0.49       0.0  T
   2   -420.1750123 -0.247116E-04  0.507E-02    0.48       1.0  T
   3   -420.1749422  0.701243E-04  0.178E-02    0.49       1.0  T
   4   -420.1750207 -0.784869E-04  0.627E-03    0.48       1.0  T
   5   -420.1750242 -0.349367E-05  0.296E-03    0.48       2.1  T
   6   -420.1750258 -0.160358E-05  0.985E-04    0.48       6.4  T
   7   -420.1750260 -0.185712E-06  0.433E-04    0.48      14.6  T
   8   -420.1750260 -0.262203E-07  0.233E-04    0.48      27.1  T
     SCC iter.                  ...        0 min,  2.424 sec
     gradient                   ...        0 min,  0.354 sec
 * total energy  :  -413.5895976 Eh     change       -0.1983945E-02 Eh
   gradient norm :     0.0174038 Eh/α   predicted    -0.1997349E-02 (   0.68%)
   displ. norm   :     0.8599868 α      lambda       -0.2221950E-02
   maximum displ.:     0.3036163 α      in ANC's #6, #31, #40, ...

........................................................................
.............................. CYCLE   31 ..............................
........................................................................
   1   -420.1691303 -0.420169E+03  0.976E-02    0.48       0.0  T
   2   -420.1691568 -0.265188E-04  0.522E-02    0.48       1.0  T
   3   -420.1691423  0.144665E-04  0.116E-02    0.48       1.0  T
   4   -420.1691595 -0.171556E-04  0.633E-03    0.48       1.0  T
   5   -420.1691642 -0.473137E-05  0.272E-03    0.48       2.3  T
   6   -420.1691658 -0.155399E-05  0.801E-04    0.48       7.9  T
   7   -420.1691659 -0.111439E-06  0.377E-04    0.48      16.8  T
   8   -420.1691659 -0.102574E-07  0.240E-04    0.48      26.3  T
     SCC iter.                  ...        0 min,  2.407 sec
     gradient                   ...        0 min,  0.362 sec
 * total energy  :  -413.5915944 Eh     change       -0.1996759E-02 Eh
   gradient norm :     0.0122550 Eh/α   predicted    -0.1932627E-02 (  -3.21%)
   displ. norm   :     0.8191869 α      lambda       -0.2400898E-02
   maximum displ.:     0.3323704 α      in ANC's #6, #31, #8, ...

........................................................................
.............................. CYCLE   32 ..............................
........................................................................
   1   -420.1922920 -0.420192E+03  0.100E-01    0.48       0.0  T
   2   -420.1923213 -0.293430E-04  0.553E-02    0.48       1.0  T
   3   -420.1922588  0.624463E-04  0.167E-02    0.48       1.0  T
   4   -420.1923291 -0.702909E-04  0.626E-03    0.48       1.0  T
   5   -420.1923342 -0.506701E-05  0.313E-03    0.48       2.0  T
   6   -420.1923358 -0.158716E-05  0.107E-03    0.48       5.9  T
   7   -420.1923360 -0.201199E-06  0.464E-04    0.48      13.6  T
   8   -420.1923360 -0.193847E-07  0.265E-04    0.48      23.9  T
     SCC iter.                  ...        0 min,  2.424 sec
     gradient                   ...        0 min,  0.347 sec
 * total energy  :  -413.5931190 Eh     change       -0.1524656E-02 Eh
   gradient norm :     0.0226062 Eh/α   predicted    -0.2006040E-02 (  31.57%)
   displ. norm   :     0.7868912 α      lambda       -0.2362591E-02
   maximum displ.:     0.2878664 α      in ANC's #6, #40, #36, ...

........................................................................
.............................. CYCLE   33 ..............................
........................................................................
   1   -420.1754440 -0.420175E+03  0.846E-02    0.48       0.0  T
   2   -420.1754659 -0.219331E-04  0.446E-02    0.48       1.0  T
   3   -420.1754360  0.298921E-04  0.136E-02    0.47       1.0  T
   4   -420.1754692 -0.332191E-04  0.628E-03    0.48       1.0  T
   5   -420.1754733 -0.410228E-05  0.277E-03    0.47       2.3  T
   6   -420.1754745 -0.117263E-05  0.998E-04    0.48       6.3  T
   7   -420.1754747 -0.198462E-06  0.365E-04    0.48      17.3  T
   8   -420.1754747 -0.588176E-08  0.231E-04    0.48      27.4  T
     SCC iter.                  ...        0 min,  2.613 sec
     gradient                   ...        0 min,  0.341 sec
 * total energy  :  -413.5949981 Eh     change       -0.1879080E-02 Eh
   gradient norm :     0.0137463 Eh/α   predicted    -0.1912756E-02 (   1.79%)
   displ. norm   :     0.8482657 α      lambda       -0.1859272E-02
   maximum displ.:     0.3312548 α      in ANC's #6, #36, #40, ...

........................................................................
.............................. CYCLE   34 ..............................
........................................................................
   1   -420.1627020 -0.420163E+03  0.882E-02    0.48       0.0  T
   2   -420.1627267 -0.247223E-04  0.470E-02    0.48       1.0  T
   3   -420.1627008  0.259220E-04  0.129E-02    0.48       1.0  T
   4   -420.1627303 -0.295010E-04  0.625E-03    0.48       1.0  T
   5   -420.1627347 -0.445415E-05  0.265E-03    0.48       2.4  T
   6   -420.1627359 -0.120124E-05  0.899E-04    0.48       7.0  T
   7   -420.1627361 -0.155972E-06  0.368E-04    0.48      17.2  T
   8   -420.1627361 -0.937041E-08  0.229E-04    0.48      27.6  T
     SCC iter.                  ...        0 min,  2.592 sec
     gradient                   ...        0 min,  0.340 sec
 * total energy  :  -413.5965276 Eh     change       -0.1529438E-02 Eh
   gradient norm :     0.0173809 Eh/α   predicted    -0.1598565E-02 (   4.52%)
   displ. norm   :     0.7924066 α      lambda       -0.1917576E-02
   maximum displ.:     0.3412220 α      in ANC's #6, #8, #40, ...

........................................................................
.............................. CYCLE   35 ..............................
........................................................................
   1   -420.1674646 -0.420167E+03  0.748E-02    0.48       0.0  T
   2   -420.1674814 -0.168315E-04  0.400E-02    0.48       1.0  T
   3   -420.1674470  0.344550E-04  0.138E-02    0.48       1.0  T
   4   -420.1674863 -0.392902E-04  0.532E-03    0.48       1.2  T
   5   -420.1674884 -0.210431E-05  0.259E-03    0.48       2.4  T
   6   -420.1674896 -0.124323E-05  0.905E-04    0.48       7.0  T
   7   -420.1674898 -0.181665E-06  0.353E-04    0.48      17.9  T
   8   -420.1674898 -0.137343E-07  0.208E-04    0.48      30.3  T
     SCC iter.                  ...        0 min,  2.590 sec
     gradient                   ...        0 min,  0.340 sec
 * total energy  :  -413.5981395 Eh     change       -0.1611949E-02 Eh
   gradient norm :     0.0149006 Eh/α   predicted    -0.1560822E-02 (  -3.17%)
   displ. norm   :     0.7835270 α      lambda       -0.1985296E-02
   maximum displ.:     0.3662213 α      in ANC's #6, #8, #17, ...

........................................................................
.............................. CYCLE   36 ..............................
........................................................................
   1   -420.1916121 -0.420192E+03  0.714E-02    0.48       0.0  T
   2   -420.1916276 -0.154408E-04  0.385E-02    0.48       1.0  T
   3   -420.1915823  0.452413E-04  0.152E-02    0.48       1.0  T
   4   -420.1916343 -0.519418E-04  0.496E-03    0.48       1.3  T
   5   -420.1916353 -0.997845E-06  0.286E-03    0.48       2.2  T
   6   -420.1916370 -0.175724E-05  0.827E-04    0.48       7.6  T
   7   -420.1916372 -0.148757E-06  0.331E-04    0.48      19.1  T
   8   -420.1916372 -0.121639E-07  0.189E-04    0.48      33.5  T
     SCC iter.                  ...        0 min,  2.574 sec
     gradient                   ...        0 min,  0.342 sec
 * total energy  :  -413.5997094 Eh     change       -0.1569891E-02 Eh
   gradient norm :     0.0206579 Eh/α   predicted    -0.1602050E-02 (   2.05%)
   displ. norm   :     0.8254220 α      lambda       -0.2058620E-02
   maximum displ.:     0.3784457 α      in ANC's #6, #8, #13, ...

........................................................................
.............................. CYCLE   37 ..............................
........................................................................
   1   -420.1950758 -0.420195E+03  0.105E-01    0.47       0.0  T
   2   -420.1951171 -0.413121E-04  0.575E-02    0.47       1.0  T
   3   -420.1950397  0.774108E-04  0.185E-02    0.47       1.0  T
   4   -420.1951345 -0.947736E-04  0.580E-03    0.47       1.1  T
   5   -420.1951369 -0.238500E-05  0.281E-03    0.47       2.2  T
   6   -420.1951384 -0.148454E-05  0.911E-04    0.47       6.9  T
   7   -420.1951385 -0.135002E-06  0.423E-04    0.47      15.0  T
   8   -420.1951385 -0.191322E-07  0.230E-04    0.47      27.5  T
     SCC iter.                  ...        0 min,  2.581 sec
     gradient                   ...        0 min,  0.341 sec
 * total energy  :  -413.6012267 Eh     change       -0.1517278E-02 Eh
   gradient norm :     0.0277982 Eh/α   predicted    -0.1730604E-02 (  14.06%)
   displ. norm   :     0.8040079 α      lambda       -0.1996866E-02
   maximum displ.:     0.3588264 α      in ANC's #6, #8, #36, ...

........................................................................
.............................. CYCLE   38 ..............................
........................................................................
   1   -420.1787527 -0.420179E+03  0.812E-02    0.47       0.0  T
   2   -420.1787714 -0.187190E-04  0.430E-02    0.47       1.0  T
   3   -420.1787378  0.335602E-04  0.132E-02    0.47       1.0  T
   4   -420.1787745 -0.367153E-04  0.613E-03    0.47       1.0  T
   5   -420.1787783 -0.380189E-05  0.277E-03    0.47       2.3  T
   6   -420.1787797 -0.130951E-05  0.880E-04    0.47       7.2  T
   7   -420.1787798 -0.142290E-06  0.389E-04    0.47      16.2  T
   8   -420.1787798 -0.962473E-08  0.247E-04    0.47      25.6  T
     SCC iter.                  ...        0 min,  2.574 sec
     gradient                   ...        0 min,  0.341 sec
 * total energy  :  -413.6028843 Eh     change       -0.1657651E-02 Eh
   gradient norm :     0.0143543 Eh/α   predicted    -0.1643853E-02 (  -0.83%)
   displ. norm   :     0.8142346 α      lambda       -0.1868794E-02
   maximum displ.:     0.4016403 α      in ANC's #6, #8, #13, ...

........................................................................
.............................. CYCLE   39 ..............................
........................................................................
   1   -420.1850736 -0.420185E+03  0.803E-02    0.47       0.0  T
   2   -420.1850918 -0.181520E-04  0.425E-02    0.47       1.0  T
   3   -420.1850674  0.243613E-04  0.128E-02    0.47       1.0  T
   4   -420.1850974 -0.300070E-04  0.522E-03    0.47       1.2  T
   5   -420.1850987 -0.123042E-05  0.215E-03    0.47       2.9  T
   6   -420.1850997 -0.106724E-05  0.788E-04    0.47       8.0  T
   7   -420.1850999 -0.134114E-06  0.356E-04    0.47      17.8  T
   8   -420.1850999 -0.930669E-08  0.231E-04    0.47      27.4  T
     SCC iter.                  ...        0 min,  2.584 sec
     gradient                   ...        0 min,  0.341 sec
 * total energy  :  -413.6045285 Eh     change       -0.1644227E-02 Eh
   gradient norm :     0.0128540 Eh/α   predicted    -0.1553884E-02 (  -5.49%)
   displ. norm   :     0.8578643 α      lambda       -0.1911154E-02
   maximum displ.:     0.4322955 α      in ANC's #6, #8, #13, ...

........................................................................
.............................. CYCLE   40 ..............................
........................................................................
   1   -420.1892764 -0.420189E+03  0.931E-02    0.47       0.0  T
   2   -420.1893026 -0.262721E-04  0.496E-02    0.47       1.0  T
   3   -420.1892738  0.288409E-04  0.137E-02    0.47       1.0  T
   4   -420.1893103 -0.365434E-04  0.583E-03    0.47       1.1  T
   5   -420.1893123 -0.195378E-05  0.265E-03    0.47       2.4  T
   6   -420.1893141 -0.179865E-05  0.773E-04    0.47       8.2  T
   7   -420.1893142 -0.944486E-07  0.390E-04    0.47      16.2  T
   8   -420.1893142 -0.931942E-08  0.241E-04    0.47      26.2  T
     SCC iter.                  ...        0 min,  2.582 sec
     gradient                   ...        0 min,  0.342 sec
 * total energy  :  -413.6062453 Eh     change       -0.1716749E-02 Eh
   gradient norm :     0.0113598 Eh/α   predicted    -0.1658819E-02 (  -3.37%)
   displ. norm   :     0.9001217 α      lambda       -0.1967147E-02
   maximum displ.:     0.4454850 α      in ANC's #6, #8, #13, ...

........................................................................
.............................. CYCLE   41 ..............................
........................................................................
   1   -420.1895756 -0.420190E+03  0.953E-02    0.47       0.0  T
   2   -420.1896061 -0.304292E-04  0.508E-02    0.47       1.0  T
   3   -420.1895685  0.375325E-04  0.143E-02    0.47       1.0  T
   4   -420.1896143 -0.457449E-04  0.616E-03    0.47       1.0  T
   5   -420.1896179 -0.359251E-05  0.273E-03    0.47       2.3  T
   6   -420.1896194 -0.157674E-05  0.979E-04    0.47       6.5  T
   7   -420.1896196 -0.208249E-06  0.413E-04    0.47      15.3  T
   8   -420.1896197 -0.725186E-08  0.266E-04    0.47      23.8  T
     SCC iter.                  ...        0 min,  2.598 sec
     gradient                   ...        0 min,  0.340 sec
 * total energy  :  -413.6078401 Eh     change       -0.1594817E-02 Eh
   gradient norm :     0.0175036 Eh/α   predicted    -0.1780488E-02 (  11.64%)
   displ. norm   :     0.8054364 α      lambda       -0.1801986E-02
   maximum displ.:     0.4179257 α      in ANC's #6, #8, #13, ...

........................................................................
.............................. CYCLE   42 ..............................
........................................................................
   1   -420.2036068 -0.420204E+03  0.803E-02    0.47       0.0  T
   2   -420.2036292 -0.223864E-04  0.427E-02    0.47       1.0  T
   3   -420.2035900  0.391261E-04  0.144E-02    0.47       1.0  T
   4   -420.2036361 -0.460600E-04  0.561E-03    0.47       1.1  T
   5   -420.2036383 -0.217092E-05  0.269E-03    0.47       2.4  T
   6   -420.2036397 -0.146032E-05  0.100E-03    0.47       6.3  T
   7   -420.2036399 -0.221331E-06  0.385E-04    0.47      16.4  T
   8   -420.2036400 -0.778317E-08  0.254E-04    0.47      24.9  T
     SCC iter.                  ...        0 min,  2.588 sec
     gradient                   ...        0 min,  0.340 sec
 * total energy  :  -413.6093032 Eh     change       -0.1463097E-02 Eh
   gradient norm :     0.0241836 Eh/α   predicted    -0.1485498E-02 (   1.53%)
   displ. norm   :     0.8268558 α      lambda       -0.1876520E-02
   maximum displ.:     0.4275609 α      in ANC's #6, #8, #13, ...
 * RMSD in coord.:     0.9841946 α      energy gain  -0.3945378E-01 Eh

generating ANC from model Hessian ...
Using Lindh-Hessian (1995)
 Shifting diagonal of input Hessian by   1.001860684349183E-002
 Lowest  eigenvalues of input Hessian
    0.010000    0.010010    0.000000    0.000000    0.000000    0.000000
    0.000000    0.000000    0.010022    0.010029    0.010038    0.010051
    0.010062    0.010085    0.010094    0.010115    0.010123    0.010154
 Highest eigenvalues
    2.284681    2.285537    2.598927    2.607036    2.643048    2.652081
 

........................................................................
.............................. CYCLE   43 ..............................
........................................................................
   1   -420.1968247 -0.420197E+03  0.855E-02    0.47       0.0  T
   2   -420.1968478 -0.230901E-04  0.458E-02    0.47       1.0  T
   3   -420.1968071  0.406164E-04  0.155E-02    0.47       1.0  T
   4   -420.1968574 -0.502830E-04  0.509E-03    0.47       1.2  T
   5   -420.1968576 -0.128290E-06  0.271E-03    0.47       2.3  T
   6   -420.1968597 -0.213446E-05  0.814E-04    0.47       7.8  T
   7   -420.1968598 -0.110359E-06  0.396E-04    0.47      16.0  T
   8   -420.1968598 -0.154949E-07  0.206E-04    0.47      30.7  T
     SCC iter.                  ...        0 min,  1.853 sec
     gradient                   ...        0 min,  0.338 sec
 * total energy  :  -413.6108516 Eh     change       -0.1548424E-02 Eh
   gradient norm :     0.0122769 Eh/α   predicted     0.0000000E+00 (-100.00%)
   displ. norm   :     0.1965364 α      lambda       -0.6165855E-03
   maximum displ.:     0.0747414 α      in ANC's #9, #24, #37, ...

........................................................................
.............................. CYCLE   44 ..............................
........................................................................
   1   -420.2009971 -0.420201E+03  0.446E-02    0.47       0.0  T
   2   -420.2010035 -0.644404E-05  0.244E-02    0.47       1.0  T
   3   -420.2009958  0.773666E-05  0.601E-03    0.47       1.1  T
   4   -420.2010058 -0.100125E-04  0.218E-03    0.47       2.9  T
   5   -420.2010064 -0.544035E-06  0.107E-03    0.47       5.9  T
   6   -420.2010066 -0.183509E-06  0.322E-04    0.47      19.6  T
   7   -420.2010066 -0.189806E-07  0.145E-04    0.47      43.8  T
     SCC iter.                  ...        0 min,  1.613 sec
     gradient                   ...        0 min,  0.343 sec
 * total energy  :  -413.6113557 Eh     change       -0.5040166E-03 Eh
   gradient norm :     0.0056244 Eh/α   predicted    -0.3202372E-03 ( -36.46%)
   displ. norm   :     0.6380256 α      lambda       -0.1604335E-02
   maximum displ.:     0.2319566 α      in ANC's #9, #24, #37, ...

........................................................................
.............................. CYCLE   45 ..............................
........................................................................
   1   -420.2074168 -0.420207E+03  0.905E-02    0.48       0.0  T
   2   -420.2074444 -0.275692E-04  0.483E-02    0.48       1.0  T
   3   -420.2073883  0.561001E-04  0.164E-02    0.48       1.0  T
   4   -420.2074514 -0.631096E-04  0.650E-03    0.48       1.0  T
   5   -420.2074554 -0.398516E-05  0.326E-03    0.48       1.9  T
   6   -420.2074572 -0.181899E-05  0.990E-04    0.48       6.4  T
   7   -420.2074574 -0.193074E-06  0.418E-04    0.48      15.1  T
   8   -420.2074574 -0.207995E-07  0.238E-04    0.48      26.6  T
     SCC iter.                  ...        0 min,  1.845 sec
     gradient                   ...        0 min,  0.343 sec
 * total energy  :  -413.6124217 Eh     change       -0.1066017E-02 Eh
   gradient norm :     0.0258560 Eh/α   predicted    -0.1128713E-02 (   5.88%)
   displ. norm   :     0.6080458 α      lambda       -0.1461288E-02
   maximum displ.:     0.2259893 α      in ANC's #9, #24, #37, ...

........................................................................
.............................. CYCLE   46 ..............................
........................................................................
   1   -420.2018347 -0.420202E+03  0.920E-02    0.48       0.0  T
   2   -420.2018630 -0.282641E-04  0.489E-02    0.48       1.0  T
   3   -420.2018376  0.253795E-04  0.130E-02    0.48       1.0  T
   4   -420.2018706 -0.330318E-04  0.548E-03    0.48       1.2  T
   5   -420.2018728 -0.215439E-05  0.271E-03    0.48       2.3  T
   6   -420.2018742 -0.139869E-05  0.925E-04    0.48       6.8  T
   7   -420.2018743 -0.176685E-06  0.374E-04    0.48      16.9  T
   8   -420.2018744 -0.746110E-08  0.220E-04    0.48      28.8  T
     SCC iter.                  ...        0 min,  1.858 sec
     gradient                   ...        0 min,  0.358 sec
 * total energy  :  -413.6133808 Eh     change       -0.9591040E-03 Eh
   gradient norm :     0.0266695 Eh/α   predicted    -0.1000780E-02 (   4.35%)
   displ. norm   :     0.4676997 α      lambda       -0.1635449E-02
   maximum displ.:     0.1946669 α      in ANC's #9, #24, #10, ...

........................................................................
.............................. CYCLE   47 ..............................
........................................................................
   1   -420.2012428 -0.420201E+03  0.624E-02    0.48       0.0  T
   2   -420.2012579 -0.150518E-04  0.331E-02    0.48       1.0  T
   3   -420.2012349  0.229703E-04  0.119E-02    0.48       1.0  T
   4   -420.2012627 -0.277718E-04  0.414E-03    0.49       1.5  T
   5   -420.2012635 -0.784785E-06  0.226E-03    0.48       2.8  T
   6   -420.2012645 -0.102402E-05  0.784E-04    0.48       8.1  T
   7   -420.2012646 -0.111776E-06  0.305E-04    0.48      20.7  T
   8   -420.2012646 -0.603114E-08  0.173E-04    0.48      36.6  T
     SCC iter.                  ...        0 min,  1.848 sec
     gradient                   ...        0 min,  0.345 sec
 * total energy  :  -413.6145920 Eh     change       -0.1211219E-02 Eh
   gradient norm :     0.0156732 Eh/α   predicted    -0.9966420E-03 ( -17.72%)
   displ. norm   :     0.6668088 α      lambda       -0.1718438E-02
   maximum displ.:     0.2841029 α      in ANC's #9, #24, #37, ...

........................................................................
.............................. CYCLE   48 ..............................
........................................................................
   1   -420.1959066 -0.420196E+03  0.105E-01    0.49       0.0  T
   2   -420.1959404 -0.338053E-04  0.563E-02    0.49       1.0  T
   3   -420.1958863  0.541013E-04  0.158E-02    0.49       1.0  T
   4   -420.1959517 -0.653773E-04  0.585E-03    0.49       1.1  T
   5   -420.1959550 -0.332471E-05  0.301E-03    0.49       2.1  T
   6   -420.1959570 -0.194709E-05  0.840E-04    0.49       7.5  T
   7   -420.1959571 -0.108740E-06  0.433E-04    0.49      14.6  T
   8   -420.1959571 -0.229693E-07  0.226E-04    0.49      28.0  T
     SCC iter.                  ...        0 min,  1.856 sec
     gradient                   ...        0 min,  0.358 sec
 * total energy  :  -413.6159036 Eh     change       -0.1311565E-02 Eh
   gradient norm :     0.0145579 Eh/α   predicted    -0.1241257E-02 (  -5.36%)
   displ. norm   :     0.7856228 α      lambda       -0.1776221E-02
   maximum displ.:     0.3321735 α      in ANC's #9, #24, #37, ...

........................................................................
.............................. CYCLE   49 ..............................
........................................................................
   1   -420.1945487 -0.420195E+03  0.884E-02    0.50       0.0  T
   2   -420.1945743 -0.255883E-04  0.460E-02    0.50       1.0  T
   3   -420.1945432  0.311017E-04  0.135E-02    0.50       1.0  T
   4   -420.1945798 -0.366632E-04  0.620E-03    0.50       1.0  T
   5   -420.1945828 -0.294887E-05  0.302E-03    0.50       2.1  T
   6   -420.1945847 -0.187798E-05  0.836E-04    0.50       7.6  T
   7   -420.1945848 -0.133951E-06  0.356E-04    0.50      17.8  T
   8   -420.1945848 -0.531071E-08  0.218E-04    0.50      29.0  T
     SCC iter.                  ...        0 min,  1.849 sec
     gradient                   ...        0 min,  0.343 sec
 * total energy  :  -413.6172342 Eh     change       -0.1330652E-02 Eh
   gradient norm :     0.0210427 Eh/α   predicted    -0.1436257E-02 (   7.94%)
   displ. norm   :     0.6364315 α      lambda       -0.1762667E-02
   maximum displ.:     0.3037006 α      in ANC's #9, #24, #10, ...

........................................................................
.............................. CYCLE   50 ..............................
........................................................................
   1   -420.2097073 -0.420210E+03  0.712E-02    0.51       0.0  T
   2   -420.2097269 -0.195445E-04  0.379E-02    0.51       1.0  T
   3   -420.2096896  0.373188E-04  0.134E-02    0.51       1.0  T
   4   -420.2097328 -0.432575E-04  0.511E-03    0.51       1.2  T
   5   -420.2097353 -0.246005E-05  0.255E-03    0.51       2.5  T
   6   -420.2097363 -0.100361E-05  0.897E-04    0.51       7.1  T
   7   -420.2097365 -0.178284E-06  0.361E-04    0.51      17.5  T
   8   -420.2097365 -0.157978E-07  0.215E-04    0.51      29.4  T
     SCC iter.                  ...        0 min,  1.854 sec
     gradient                   ...        0 min,  0.358 sec
 * total energy  :  -413.6183413 Eh     change       -0.1107098E-02 Eh
   gradient norm :     0.0216263 Eh/α   predicted    -0.1238326E-02 (  11.85%)
   displ. norm   :     0.7289673 α      lambda       -0.1947971E-02
   maximum displ.:     0.3219420 α      in ANC's #9, #24, #10, ...

........................................................................
.............................. CYCLE   51 ..............................
........................................................................
   1   -420.2016681 -0.420202E+03  0.103E-01    0.51       0.0  T
   2   -420.2017022 -0.341016E-04  0.547E-02    0.52       1.0  T
   3   -420.2016636  0.385800E-04  0.144E-02    0.51       1.0  T
   4   -420.2017108 -0.471862E-04  0.633E-03    0.52       1.0  T
   5   -420.2017151 -0.435175E-05  0.281E-03    0.51       2.3  T
   6   -420.2017167 -0.154060E-05  0.944E-04    0.51       6.7  T
   7   -420.2017169 -0.183510E-06  0.410E-04    0.51      15.4  T
   8   -420.2017169 -0.101485E-07  0.243E-04    0.51      26.1  T
     SCC iter.                  ...        0 min,  1.861 sec
     gradient                   ...        0 min,  0.343 sec
 * total energy  :  -413.6196919 Eh     change       -0.1350616E-02 Eh
   gradient norm :     0.0214051 Eh/α   predicted    -0.1491563E-02 (  10.44%)
   displ. norm   :     0.6886075 α      lambda       -0.1496774E-02
   maximum displ.:     0.3124377 α      in ANC's #9, #24, #10, ...

........................................................................
.............................. CYCLE   52 ..............................
........................................................................
   1   -420.2025285 -0.420203E+03  0.823E-02    0.51       0.0  T
   2   -420.2025497 -0.212043E-04  0.438E-02    0.51       1.0  T
   3   -420.2024953  0.544399E-04  0.160E-02    0.51       1.0  T
   4   -420.2025596 -0.642914E-04  0.503E-03    0.51       1.3  T
   5   -420.2025606 -0.103379E-05  0.266E-03    0.51       2.4  T
   6   -420.2025621 -0.153153E-05  0.695E-04    0.51       9.1  T
   7   -420.2025622 -0.831745E-07  0.336E-04    0.51      18.8  T
   8   -420.2025622 -0.121236E-07  0.177E-04    0.51      35.8  T
     SCC iter.                  ...        0 min,  1.847 sec
     gradient                   ...        0 min,  0.343 sec
 * total energy  :  -413.6208431 Eh     change       -0.1151162E-02 Eh
   gradient norm :     0.0182325 Eh/α   predicted    -0.1103258E-02 (  -4.16%)
   displ. norm   :     0.6693205 α      lambda       -0.1562018E-02
   maximum displ.:     0.3229844 α      in ANC's #9, #10, #24, ...

........................................................................
.............................. CYCLE   53 ..............................
........................................................................
   1   -420.2161719 -0.420216E+03  0.677E-02    0.52       0.0  T
   2   -420.2161884 -0.165002E-04  0.362E-02    0.52       1.0  T
   3   -420.2161523  0.360957E-04  0.140E-02    0.52       1.0  T
   4   -420.2161960 -0.437419E-04  0.428E-03    0.52       1.5  T
   5   -420.2161969 -0.899356E-06  0.190E-03    0.52       3.3  T
   6   -420.2161976 -0.628541E-06  0.712E-04    0.52       8.9  T
   7   -420.2161977 -0.110005E-06  0.307E-04    0.52      20.6  T
     SCC iter.                  ...        0 min,  1.631 sec
     gradient                   ...        0 min,  0.340 sec
 * total energy  :  -413.6219779 Eh     change       -0.1134852E-02 Eh
   gradient norm :     0.0139507 Eh/α   predicted    -0.1130895E-02 (  -0.35%)
   displ. norm   :     0.8360809 α      lambda       -0.1428366E-02
   maximum displ.:     0.4071440 α      in ANC's #9, #24, #10, ...

........................................................................
.............................. CYCLE   54 ..............................
........................................................................
   1   -420.2098206 -0.420210E+03  0.828E-02    0.52       0.0  T
   2   -420.2098396 -0.189394E-04  0.430E-02    0.52       1.0  T
   3   -420.2097817  0.579148E-04  0.160E-02    0.52       1.0  T
   4   -420.2098473 -0.656495E-04  0.613E-03    0.52       1.0  T
   5   -420.2098497 -0.240952E-05  0.309E-03    0.52       2.0  T
   6   -420.2098516 -0.189767E-05  0.745E-04    0.52       8.5  T
   7   -420.2098517 -0.103445E-06  0.360E-04    0.52      17.6  T
   8   -420.2098517 -0.123856E-07  0.210E-04    0.52      30.0  T
     SCC iter.                  ...        0 min,  1.844 sec
     gradient                   ...        0 min,  0.359 sec
 * total energy  :  -413.6231457 Eh     change       -0.1167750E-02 Eh
   gradient norm :     0.0121674 Eh/α   predicted    -0.1213421E-02 (   3.91%)
   displ. norm   :     0.7133220 α      lambda       -0.1345967E-02
   maximum displ.:     0.3708131 α      in ANC's #9, #10, #24, ...

........................................................................
.............................. CYCLE   55 ..............................
........................................................................
   1   -420.2124479 -0.420212E+03  0.829E-02    0.51       0.0  T
   2   -420.2124689 -0.210870E-04  0.448E-02    0.51       1.0  T
   3   -420.2123558  0.113143E-03  0.210E-02    0.51       1.0  T
   4   -420.2124842 -0.128409E-03  0.539E-03    0.51       1.2  T
   5   -420.2124862 -0.195348E-05  0.293E-03    0.51       2.2  T
   6   -420.2124875 -0.136688E-05  0.914E-04    0.51       6.9  T
   7   -420.2124877 -0.135723E-06  0.428E-04    0.51      14.8  T
   8   -420.2124877 -0.206195E-07  0.261E-04    0.51      24.2  T
     SCC iter.                  ...        0 min,  1.851 sec
     gradient                   ...        0 min,  0.340 sec
 * total energy  :  -413.6238972 Eh     change       -0.7514997E-03 Eh
   gradient norm :     0.0225291 Eh/α   predicted    -0.1015421E-02 (  35.12%)
   displ. norm   :     0.7050144 α      lambda       -0.1299056E-02
   maximum displ.:     0.3446041 α      in ANC's #9, #10, #24, ...

........................................................................
.............................. CYCLE   56 ..............................
........................................................................
   1   -420.2117605 -0.420212E+03  0.710E-02    0.52       0.0  T
   2   -420.2117769 -0.163438E-04  0.369E-02    0.52       1.0  T
   3   -420.2117601  0.167620E-04  0.110E-02    0.53       1.0  T
[...]
rotational constants/cm⁻¹ :        0.3381354E-03   0.9452167E-04   0.8662778E-04

 * 240 selected distances

     #   Z          #   Z                                           value/Å
     1   6 C        2   6 C                                       1.3678889
     3   6 C        4   8 O                                       1.2124838
     5   6 C        6   6 C                                       1.3922347
     6   6 C        7   6 C                                       1.3747293
     7   6 C        8   6 C                                       1.4006482
     8   6 C        9   6 C                                       1.3750389
     5   6 C       10   6 C                                       1.4110577
     9   6 C       10   6 C                                       1.3960283
    11   6 C       12   6 C                                       1.3760237
    13   6 C       14   7 N                                       1.1489806
    15   6 C       16   7 N                                       1.1491920
     8   6 C       17   6 C                                       1.5081738
    17   6 C       18   6 C                                       1.5487876
    19   6 C       20   6 C                                       1.3263000
    18   6 C       22   6 C                                       1.5369759
    21   6 C       22   6 C                                       1.5371077
     7   6 C       23   6 C                                       1.5089367
    17   6 C       23   6 C                                       1.5611882
    21   6 C       23   6 C                                       1.5487949
     1   6 C       24   6 C                                       1.4022446
    24   6 C       25   6 C                                       1.4080454
    25   6 C       26   7 N                                       1.3711416
    26   7 N       27   6 C                                       1.4107659
    27   6 C       28   6 C                                       1.3940564
    28   6 C       29   6 C                                       1.3769482
    29   6 C       30   6 C                                       1.3939780
    30   6 C       33   6 C                                       1.3890289
    27   6 C       34   6 C                                       1.3915769
    33   6 C       34   6 C                                       1.3800736
    26   7 N       35   6 C                                       1.4004260
    35   6 C       36   6 C                                       1.3957373
    36   6 C       37   6 C                                       1.3764994
    37   6 C       38   6 C                                       1.3922641
    38   6 C       41   6 C                                       1.3884727
    35   6 C       42   6 C                                       1.3927022
    41   6 C       42   6 C                                       1.3794790
    25   6 C       43   6 C                                       1.4115396
    43   6 C       44  16 S                                       1.7385143
    44  16 S       45   6 C                                       1.7588777
    45   6 C       46   6 C                                       1.3867782
    46   6 C       47   7 N                                       1.3906388
    47   7 N       48   6 C                                       1.4034882
    48   6 C       49   6 C                                       1.3901425
    49   6 C       50   6 C                                       1.3817531
    50   6 C       51   6 C                                       1.3882368
    51   6 C       54   6 C                                       1.3935180
    48   6 C       55   6 C                                       1.3953535
    54   6 C       55   6 C                                       1.3752304
    47   7 N       56   6 C                                       1.3932800
    56   6 C       57   6 C                                       1.3945525
    57   6 C       58   6 C                                       1.3763568
    58   6 C       59   6 C                                       1.3935356
    59   6 C       62   6 C                                       1.3879657
    56   6 C       63   6 C                                       1.3933934
    62   6 C       63   6 C                                       1.3816314
    43   6 C       64   6 C                                       1.3868609
    46   6 C       64   6 C                                       1.4051379
    64   6 C       65  16 S                                       1.7185546
    45   6 C       66   6 C                                       1.4296838
    66   6 C       67   6 C                                       1.3799622
    67   6 C       68   7 N                                       1.3954674
    68   7 N       69   6 C                                       1.3939402
    69   6 C       70   6 C                                       1.3961423
    70   6 C       71   6 C                                       1.3786201
    71   6 C       72   6 C                                       1.3878872
    72   6 C       75   6 C                                       1.3885739
    69   6 C       76   6 C                                       1.3948631
    75   6 C       76   6 C                                       1.3787067
    68   7 N       77   6 C                                       1.4081417
    77   6 C       78   6 C                                       1.3915629
    78   6 C       79   6 C                                       1.3816366
    79   6 C       80   6 C                                       1.3886220
    80   6 C       83   6 C                                       1.3917978
    77   6 C       84   6 C                                       1.3957477
    83   6 C       84   6 C                                       1.3756443
    67   6 C       85   6 C                                       1.4156184
    85   6 C       86  16 S                                       1.7207604
    86  16 S       87   6 C                                       1.7618367 (max)
    87   6 C       88   6 C                                       1.3923829
    88   6 C       89   7 N                                       1.3829170
    89   7 N       90   6 C                                       1.3926066
    90   6 C       91   6 C                                       1.3987069
    91   6 C       92   6 C                                       1.3750002
    92   6 C       93   6 C                                       1.3915310
    93   6 C       96   6 C                                       1.3866882
    90   6 C       97   6 C                                       1.3939839
    96   6 C       97   6 C                                       1.3810217
    89   7 N       98   6 C                                       1.4198515
    98   6 C       99   6 C                                       1.3910750
    99   6 C      100   6 C                                       1.3786560
   100   6 C      101   6 C                                       1.3937114
   101   6 C      104   6 C                                       1.3894516
    98   6 C      105   6 C                                       1.3911281
   104   6 C      105   6 C                                       1.3805538
    85   6 C      106   6 C                                       1.3818803
    88   6 C      106   6 C                                       1.4208160
   106   6 C      107  16 S                                       1.7296175
    87   6 C      108   6 C                                       1.4238022
   108   6 C      109   6 C                                       1.3687672
   109   6 C      110   6 C                                       1.4176794
   110   6 C      111   6 C                                       1.4097469
   112   6 C      113   6 C                                       1.3652543
   113   6 C      114   6 C                                       1.4107666
   114   6 C      115  17 Cl                                      1.7208015
   114   6 C      116   6 C                                       1.3650510
   116   6 C      117   6 C                                       1.4885963
   117   6 C      118   6 C                                       1.5308048
   112   6 C      119  16 S                                       1.7420689
   116   6 C      119  16 S                                       1.7283006
   111   6 C      120   6 C                                       1.3916014
   120   6 C      121   6 C                                       1.4168801
   121   6 C      122   6 C                                       1.4114924
   123   6 C      124   6 C                                       1.3680150
   124   6 C      125   6 C                                       1.4078680
   125   6 C      126   6 C                                       1.3613397
   126   6 C      127   6 C                                       1.4895535
   127   6 C      128   6 C                                       1.5303870
   123   6 C      129  16 S                                       1.7397208
   126   6 C      129  16 S                                       1.7331169
   110   6 C      130   6 C                                       1.4191838
   122   6 C      130   6 C                                       1.3860599
   108   6 C      131  16 S                                       1.7554608
   130   6 C      131  16 S                                       1.7367030
   121   6 C      132   6 C                                       1.4074525
   132   6 C      133   6 C                                       1.3708977
   120   6 C      134  16 S                                       1.7392927
   133   6 C      134  16 S                                       1.7537321
   133   6 C      135   6 C                                       1.4177145
   135   6 C      136   6 C                                       1.3591283
   137   6 C      138   8 O                                       1.2098415
   139   6 C      140   6 C                                       1.3932603
   140   6 C      141   6 C                                       1.3741402
   141   6 C      142   6 C                                       1.4018633
   142   6 C      143   6 C                                       1.3740649
   139   6 C      144   6 C                                       1.4110791
   143   6 C      144   6 C                                       1.3972730
   145   6 C      146   6 C                                       1.3705803
   147   6 C      148   7 N                                       1.1476700
   149   6 C      150   7 N                                       1.1484281
   142   6 C      151   6 C                                       1.5077879
   151   6 C      152   6 C                                       1.5485940
   153   6 C      154   6 C                                       1.3263192
   152   6 C      156   6 C                                       1.5369133
   155   6 C      156   6 C                                       1.5370866
   141   6 C      157   6 C                                       1.5080807
   151   6 C      157   6 C                                       1.5613283
   155   6 C      157   6 C                                       1.5493163
     1   6 C      158   1 H                                       1.0852124
     6   6 C      159   1 H                                       1.0788364
     9   6 C      160   1 H                                       1.0775978
    17   6 C      161   1 H                                       1.0883585
    18   6 C      162   1 H                                       1.0869057
    19   6 C      163   1 H                                       1.0743517
    20   6 C      164   1 H                                       1.0743485
    21   6 C      165   1 H                                       1.0869053
    22   6 C      166   1 H                                       1.0890899
    22   6 C      167   1 H                                       1.0891896
    23   6 C      168   1 H                                       1.0883725
    28   6 C      169   1 H                                       1.0797706
    29   6 C      170   1 H                                       1.0788726
    32   6 C      171   1 H                                       1.0856222
    32   6 C      172   1 H                                       1.0859762
    32   6 C      173   1 H                                       1.0861142
    33   6 C      174   1 H                                       1.0772985
    34   6 C      175   1 H                                       1.0794378
    36   6 C      176   1 H                                       1.0797354
    37   6 C      177   1 H                                       1.0791590
    40   6 C      178   1 H                                       1.0863689
    40   6 C      179   1 H                                       1.0857610
    40   6 C      180   1 H                                       1.0857509
    41   6 C      181   1 H                                       1.0771941
    42   6 C      182   1 H                                       1.0794530
    49   6 C      183   1 H                                       1.0797981
    50   6 C      184   1 H                                       1.0772362
    53   6 C      185   1 H                                       1.0863459
    53   6 C      186   1 H                                       1.0855949
    53   6 C      187   1 H                                       1.0854391
    54   6 C      188   1 H                                       1.0794147
    55   6 C      189   1 H                                       1.0800173
    57   6 C      190   1 H                                       1.0779130
    58   6 C      191   1 H                                       1.0790150
    61   6 C      192   1 H                                       1.0859123
    61   6 C      193   1 H                                       1.0855867
    61   6 C      194   1 H                                       1.0865039
    62   6 C      195   1 H                                       1.0786119
    63   6 C      196   1 H                                       1.0804573
    70   6 C      197   1 H                                       1.0796695
    71   6 C      198   1 H                                       1.0791077
    74   6 C      199   1 H                                       1.0854435
    74   6 C      200   1 H                                       1.0852541
    74   6 C      201   1 H                                       1.0860387
    75   6 C      202   1 H                                       1.0784997
    76   6 C      203   1 H                                       1.0796848
    78   6 C      204   1 H                                       1.0797860
    79   6 C      205   1 H                                       1.0785596
    82   6 C      206   1 H                                       1.0858403
    82   6 C      207   1 H                                       1.0863499
    82   6 C      208   1 H                                       1.0856100
    83   6 C      209   1 H                                       1.0787500
    84   6 C      210   1 H                                       1.0799337
    91   6 C      211   1 H                                       1.0792899
    92   6 C      212   1 H                                       1.0783375
    95   6 C      213   1 H                                       1.0858761
    95   6 C      214   1 H                                       1.0854599
    95   6 C      215   1 H                                       1.0863149
    96   6 C      216   1 H                                       1.0783007
    97   6 C      217   1 H                                       1.0783755
    99   6 C      218   1 H                                       1.0798280
   100   6 C      219   1 H                                       1.0792978
   103   6 C      220   1 H                                       1.0856998
   103   6 C      221   1 H                                       1.0854661
   103   6 C      222   1 H                                       1.0856297
   104   6 C      223   1 H                                       1.0776281
   105   6 C      224   1 H                                       1.0799125
   109   6 C      225   1 H                                       1.0736022 (min)
   113   6 C      226   1 H                                       1.0740190
   117   6 C      227   1 H                                       1.0910843
   117   6 C      228   1 H                                       1.0926849
   118   6 C      229   1 H                                       1.0875233
   118   6 C      230   1 H                                       1.0869879
   118   6 C      231   1 H                                       1.0870877
   124   6 C      232   1 H                                       1.0759212
   125   6 C      233   1 H                                       1.0758343
   127   6 C      234   1 H                                       1.0918036
   127   6 C      235   1 H                                       1.0920219
   128   6 C      236   1 H                                       1.0876801
   128   6 C      237   1 H                                       1.0875577
   128   6 C      238   1 H                                       1.0871457
   132   6 C      239   1 H                                       1.0746229
   135   6 C      240   1 H                                       1.0852915
   140   6 C      241   1 H                                       1.0787234
   143   6 C      242   1 H                                       1.0776731
   151   6 C      243   1 H                                       1.0882541
   152   6 C      244   1 H                                       1.0866694
   153   6 C      245   1 H                                       1.0742278
   154   6 C      246   1 H                                       1.0742596
   155   6 C      247   1 H                                       1.0868077
   156   6 C      248   1 H                                       1.0892421
   156   6 C      249   1 H                                       1.0888539
   157   6 C      250   1 H                                       1.0883538

 * 6 distinct bonds (by element types)

   Z      Z             #   av. dist./Å        max./Å        min./Å
   1 H    6 C          93     1.0827033     1.0926849     1.0736022
   6 C    6 C         114     1.4114947     1.5613283     1.3263000
   6 C    7 N          16     1.3348085     1.4198515     1.1476700
   6 C    8 O           2     1.2111626     1.2124838     1.2098415
   6 C   16 S          14     1.7397541     1.7618367     1.7185546
   6 C   17 Cl          1     1.7208015     1.7208015     1.7208015


optimized geometry written to: xtbopt.mol


           -------------------------------------------------
          | TOTAL ENERGY             -413.699469210812 Eh   |
          | GRADIENT NORM               0.000345655422 Eh/α |
          | HOMO-LUMO GAP               0.417531197051 eV   |
           -------------------------------------------------

------------------------------------------------------------------------
 * finished run on 2022/02/14 at 04:59:41.471     
------------------------------------------------------------------------
 total:
 * wall-time:     0 d,  0 h, 14 min, 33.355 sec
 *  cpu-time:     0 d,  1 h, 29 min,  0.012 sec
 * ratio c/w:     6.114 speedup
 SCF:
 * wall-time:     0 d,  0 h,  0 min,  7.231 sec
 *  cpu-time:     0 d,  0 h,  0 min, 35.919 sec
 * ratio c/w:     4.967 speedup
 ANC optimizer:
 * wall-time:     0 d,  0 h, 14 min, 25.935 sec
 *  cpu-time:     0 d,  1 h, 28 min, 22.956 sec
 * ratio c/w:     6.124 speedup

