      -----------------------------------------------------------      
     |                   =====================                   |     
     |                           x T B                           |     
     |                   =====================                   |     
     |                         S. Grimme                         |     
     |          Mulliken Center for Theoretical Chemistry        |     
     |                    University of Bonn                     |     
      -----------------------------------------------------------      

   * xtb version 6.4.1 (unknown) compiled by 'oda6@login1.crc.pitt.edu' on 2021-06-25

   xtb is free software: you can redistribute it and/or modify it under
   the terms of the GNU Lesser General Public License as published by
   the Free Software Foundation, either version 3 of the License, or
   (at your option) any later version.
   
   xtb is distributed in the hope that it will be useful,
   but WITHOUT ANY WARRANTY; without even the implied warranty of
   MERCHANTABILITY or FITNESS FOR A PARTICULAR PURPOSE.  See the
   GNU Lesser General Public License for more details.
   
   Cite this work as:
   * C. Bannwarth, E. Caldeweyher, S. Ehlert, A. Hansen, P. Pracht,
     J. Seibert, S. Spicher, S. Grimme, WIREs Comput. Mol. Sci., 2020, 11,
     e01493. DOI: 10.1002/wcms.1493
   
   for GFN2-xTB:
   * C. Bannwarth, S. Ehlert and S. Grimme., J. Chem. Theory Comput., 2019,
     15, 1652-1671. DOI: 10.1021/acs.jctc.8b01176
   for GFN1-xTB:
   * S. Grimme, C. Bannwarth, P. Shushkov, J. Chem. Theory Comput., 2017,
     13, 1989-2009. DOI: 10.1021/acs.jctc.7b00118
   for GFN0-xTB:
   * P. Pracht, E. Caldeweyher, S. Ehlert, S. Grimme, ChemRxiv, 2019, preprint.
     DOI: 10.26434/chemrxiv.8326202.v1
   for GFN-FF:
   * S. Spicher and S. Grimme, Angew. Chem. Int. Ed., 2020, 59, 15665-15673.
     DOI: 10.1002/anie.202004239
   
   for DFT-D4:
   * E. Caldeweyher, C. Bannwarth and S. Grimme, J. Chem. Phys., 2017,
     147, 034112. DOI: 10.1063/1.4993215
   * E. Caldeweyher, S. Ehlert, A. Hansen, H. Neugebauer, S. Spicher,
     C. Bannwarth and S. Grimme, J. Chem. Phys., 2019, 150, 154122.
     DOI: 10.1063/1.5090222
   * E. Caldeweyher, J.-M. Mewes, S. Ehlert and S. Grimme, Phys. Chem. Chem. Phys.
     2020, 22, 8499-8512. DOI: 10.1039/D0CP00502A
   
   for sTDA-xTB:
   * S. Grimme and C. Bannwarth, J. Chem. Phys., 2016, 145, 054103.
     DOI: 10.1063/1.4959605
   
   in the mass-spec context:
   * V. Asgeirsson, C. Bauer and S. Grimme, Chem. Sci., 2017, 8, 4879.
     DOI: 10.1039/c7sc00601b
   * J. Koopman and S. Grimme, ACS Omega 2019, 4, 12, 15120-15133.
     DOI: 10.1021/acsomega.9b02011
   
   for metadynamics refer to:
   * S. Grimme, J. Chem. Theory Comput., 2019, 155, 2847-2862
     DOI: 10.1021/acs.jctc.9b00143
   
   for SPH calculations refer to:
   * S. Spicher and S. Grimme, J. Chem. Theory Comput., 2021, 17, 1701-1714
     DOI: 10.1021/acs.jctc.0c01306
   
   with help from (in alphabetical order)
   P. Atkinson, C. Bannwarth, F. Bohle, G. Brandenburg, E. Caldeweyher
   M. Checinski, S. Dohm, S. Ehlert, S. Ehrlich, I. Gerasimov, J. Koopman
   C. Lavigne, S. Lehtola, F. März, M. Müller, F. Musil, H. Neugebauer
   J. Pisarek, C. Plett, P. Pracht, J. Seibert, P. Shushkov, S. Spicher
   M. Stahn, M. Steiner, T. Strunk, J. Stückrath, T. Rose, and J. Unsleber
   
 * started run on 2022/02/05 at 13:31:38.496     

           -------------------------------------------------
          |                Calculation Setup                |
           -------------------------------------------------

          program call               : /ihome/ghutchison/oda6/xtb/xtb-641/bin/xtb ../../FF_optimized/39_153_130_153_39.mol -opt
          hostname                   : smp-n57
          coordinate file            : ../../FF_optimized/39_153_130_153_39.mol
          omp threads                :                     8
          number of atoms            :                   194
          number of electrons        :                   604
          charge                     :                     0
          spin                       :                   0.0
          first test random number   :      0.44964471469624

   ID    Z sym.   atoms
    1    6 C      1-3, 5-13, 15, 17-24, 26-28, 30-33, 35-39, 41-43, 45-48,
                  50-56, 58-61, 63, 64, 66-69, 71-77, 79-82, 84, 86-88,
                  90-93, 95-99, 101-104, 106-114, 116, 118-124
    2    8 O      4, 29, 40, 89, 100, 105
    3    7 N      14, 16, 44, 65, 115, 117
    4   16 S      25, 34, 49, 57, 62, 70, 78, 83, 85, 94
    5    1 H      125-194
########################################################################
[WARNING] Please study the warnings concerning your input carefully
-1- prog_main_parseArguments: the use of '-opt' is discouraged, please use '--opt' next time
########################################################################

           -------------------------------------------------
          |                 G F N 2 - x T B                 |
           -------------------------------------------------

        Reference                      10.1021/acs.jctc.8b01176
      * Hamiltonian:
        H0-scaling (s, p, d)           1.850000    2.230000    2.230000
        zeta-weighting                 0.500000
      * Dispersion:
        s8                             2.700000
        a1                             0.520000
        a2                             5.000000
        s9                             5.000000
      * Repulsion:
        kExp                           1.500000    1.000000
        rExp                           1.000000
      * Coulomb:
        alpha                          2.000000
        third order                    shell-resolved
        anisotropic                    true
        a3                             3.000000
        a5                             4.000000
        cn-shift                       1.200000
        cn-exp                         4.000000
        max-rad                        5.000000


          ...................................................
          :                      SETUP                      :
          :.................................................:
          :  # basis functions                 626          :
          :  # atomic orbitals                 616          :
          :  # shells                          328          :
          :  # electrons                       604          :
          :  max. iterations                   250          :
          :  Hamiltonian                  GFN2-xTB          :
          :  restarted?                      false          :
          :  GBSA solvation                  false          :
          :  PC potential                    false          :
          :  electronic temp.          300.0000000     K    :
          :  accuracy                    1.0000000          :
          :  -> integral cutoff          0.2500000E+02      :
          :  -> integral neglect         0.1000000E-07      :
          :  -> SCF convergence          0.1000000E-05 Eh   :
          :  -> wf. convergence          0.1000000E-03 e    :
          :  Broyden damping             0.4000000          :
          ...................................................

 iter      E             dE          RMSdq      gap      omega  full diag
   1   -332.4391774 -0.332439E+03  0.468E+00    1.12       0.0  T
   2   -332.7048231 -0.265646E+00  0.276E+00    1.16       1.0  T
   3   -332.4247279  0.280095E+00  0.190E+00    0.40       1.0  T
   4   -332.8396960 -0.414968E+00  0.698E-01    0.45       1.0  T
   5   -332.9123778 -0.726818E-01  0.216E-01    0.20       1.0  T
   6   -332.9141264 -0.174857E-02  0.125E-01    0.53       1.0  T
   7   -332.9164608 -0.233440E-02  0.566E-02    0.44       1.0  T
   8   -332.9168825 -0.421692E-03  0.247E-02    0.41       1.0  T
   9   -332.9168865 -0.403148E-05  0.162E-02    0.38       1.0  T
  10   -332.9169082 -0.216896E-04  0.777E-03    0.36       1.0  T
  11   -332.9169142 -0.595409E-05  0.372E-03    0.36       1.9  T
  12   -332.9169154 -0.120921E-05  0.190E-03    0.36       3.8  T
  13   -332.9169158 -0.408595E-06  0.865E-04    0.36       8.3  T
  14   -332.9169158 -0.216459E-07  0.479E-04    0.36      15.0  T

   *** convergence criteria satisfied after 14 iterations ***

         #    Occupation            Energy/Eh            Energy/eV
      -------------------------------------------------------------
         1        2.0000           -0.7753655             -21.0988
       ...           ...                  ...                  ...
       296        2.0000           -0.3900595             -10.6141
       297        2.0000           -0.3675341             -10.0011
       298        2.0000           -0.3658498              -9.9553
       299        2.0000           -0.3627807              -9.8718
       300        2.0000           -0.3609786              -9.8227
       301        1.9999           -0.3568907              -9.7115
       302        1.9983           -0.3538609              -9.6290 (HOMO)
       303        0.0018           -0.3404852              -9.2651 (LUMO)
       304        0.0000           -0.3339449              -9.0871
       305                         -0.3311793              -9.0118
       306                         -0.3242323              -8.8228
       307                         -0.3233849              -8.7998
       ...                                ...                  ...
       616                          1.0705863              29.1321
      -------------------------------------------------------------
                  HL-Gap            0.0133757 Eh            0.3640 eV
             Fermi-level           -0.3471541 Eh           -9.4465 eV

 SCC (total)                   0 d,  0 h,  0 min,  0.723 sec
 SCC setup                      ...        0 min,  0.003 sec (  0.442%)
 Dispersion                     ...        0 min,  0.009 sec (  1.218%)
 classical contributions        ...        0 min,  0.000 sec (  0.050%)
 integral evaluation            ...        0 min,  0.036 sec (  4.942%)
 iterations                     ...        0 min,  0.541 sec ( 74.790%)
 molecular gradient             ...        0 min,  0.131 sec ( 18.130%)
 printout                       ...        0 min,  0.003 sec (  0.417%)

         :::::::::::::::::::::::::::::::::::::::::::::::::::::
         ::                     SUMMARY                     ::
         :::::::::::::::::::::::::::::::::::::::::::::::::::::
         :: total energy            -328.146987422519 Eh    ::
         :: gradient norm              0.361045910635 Eh/a0 ::
         :: HOMO-LUMO gap              0.363972151469 eV    ::
         ::.................................................::
         :: SCC energy              -332.916915806536 Eh    ::
         :: -> isotropic ES            0.233558079650 Eh    ::
         :: -> anisotropic ES          0.018896931461 Eh    ::
         :: -> anisotropic XC          0.203370661818 Eh    ::
         :: -> dispersion             -0.336897263826 Eh    ::
         :: repulsion energy           4.753195237337 Eh    ::
         :: add. restraining           0.000000000000 Eh    ::
         :: total charge              -0.000000000000 e     ::
         :::::::::::::::::::::::::::::::::::::::::::::::::::::

      ----------------------------------------------------------- 
     |                   =====================                   |
     |                        A N C O P T                        |
     |                   =====================                   |
     |               Approximate Normal Coordinate               |
     |                Rational Function Optimizer                |
      ----------------------------------------------------------- 

          ...................................................
          :                      SETUP                      :
          :.................................................:
          :   optimization level            normal          :
          :   max. optcycles                   582          :
          :   ANC micro-cycles                  20          :
          :   degrees of freedom               576          :
          :.................................................:
          :   RF solver                   davidson          :
          :   write xtbopt.log                true          :
          :   linear?                        false          :
          :   energy convergence         0.5000000E-05 Eh   :
          :   grad. convergence          0.1000000E-02 Eh/α :
          :   maximium RF displ.         1.0000000          :
          :   Hlow (freq-cutoff)         0.1000000E-01      :
          :   Hmax (freq-cutoff)         5.0000000          :
          :   S6 in model hess.         20.0000000          :
          ...................................................

generating ANC from model Hessian ...
Using Lindh-Hessian (1995)
 Shifting diagonal of input Hessian by   1.008871076983467E-002
 Lowest  eigenvalues of input Hessian
    0.010000    0.010074    0.000000    0.000000    0.000000    0.000000
    0.000000    0.000000    0.010097    0.010108    0.010120    0.010157
    0.010168    0.010179    0.010195    0.010208    0.010229    0.010249
 Highest eigenvalues
    2.137586    2.151449    2.498393    2.498474    2.549211    2.562528
 

........................................................................
.............................. CYCLE    1 ..............................
........................................................................
   1   -332.9169158 -0.332917E+03  0.207E-04    0.36       0.0  T
   2   -332.9169158  0.141677E-08  0.185E-04    0.36      38.9  T
   3   -332.9169158 -0.560527E-08  0.919E-05    0.36      78.1  T
     SCC iter.                  ...        0 min,  0.129 sec
     gradient                   ...        0 min,  0.129 sec
 * total energy  :  -328.1469875 Eh     change       -0.3568448E-07 Eh
   gradient norm :     0.3610493 Eh/α   predicted     0.0000000E+00 (-100.00%)
   displ. norm   :     0.4773308 α      lambda       -0.1234394E+00
   maximum displ.:     0.0832030 α      in ANC's #320, #316, #402, ...

........................................................................
.............................. CYCLE    2 ..............................
........................................................................
   1   -333.1661710 -0.333166E+03  0.256E-01    0.38       0.0  T
   2   -333.1683800 -0.220906E-02  0.160E-01    0.38       1.0  T
   3   -333.1681764  0.203626E-03  0.977E-02    0.39       1.0  T
   4   -333.1689922 -0.815795E-03  0.476E-02    0.36       1.0  T
   5   -333.1693522 -0.359994E-03  0.158E-02    0.38       1.0  T
   6   -333.1693874 -0.352062E-04  0.666E-03    0.38       1.1  T
   7   -333.1693922 -0.478922E-05  0.295E-03    0.38       2.4  T
   8   -333.1693934 -0.121648E-05  0.103E-03    0.38       7.0  T
   9   -333.1693935 -0.668346E-07  0.584E-04    0.38      12.3  T
  10   -333.1693935 -0.181495E-07  0.309E-04    0.38      23.2  T
     SCC iter.                  ...        0 min,  0.373 sec
     gradient                   ...        0 min,  0.128 sec
 * total energy  :  -328.2380903 Eh     change       -0.9110288E-01 Eh
   gradient norm :     0.1724344 Eh/α   predicted    -0.7582403E-01 ( -16.77%)
   displ. norm   :     0.5003157 α      lambda       -0.5591792E-01
   maximum displ.:     0.0939130 α      in ANC's #111, #164, #130, ...

........................................................................
.............................. CYCLE    3 ..............................
........................................................................
   1   -333.3238952 -0.333324E+03  0.224E-01    0.37       0.0  T
   2   -333.3255822 -0.168701E-02  0.134E-01    0.36       1.0  T
   3   -333.3254907  0.914880E-04  0.823E-02    0.38       1.0  T
   4   -333.3260798 -0.589028E-03  0.408E-02    0.35       1.0  T
   5   -333.3263132 -0.233469E-03  0.139E-02    0.37       1.0  T
   6   -333.3263431 -0.298869E-04  0.554E-03    0.37       1.3  T
   7   -333.3263464 -0.329166E-05  0.246E-03    0.37       2.9  T
   8   -333.3263473 -0.841452E-06  0.868E-04    0.37       8.3  T
   9   -333.3263473 -0.405447E-07  0.501E-04    0.37      14.3  T
     SCC iter.                  ...        0 min,  0.327 sec
     gradient                   ...        0 min,  0.128 sec
 * total energy  :  -328.2739875 Eh     change       -0.3589719E-01 Eh
   gradient norm :     0.0529185 Eh/α   predicted    -0.3495756E-01 (  -2.62%)
   displ. norm   :     0.5368067 α      lambda       -0.1587783E-01
   maximum displ.:     0.1344376 α      in ANC's #111, #86, #107, ...

........................................................................
.............................. CYCLE    4 ..............................
........................................................................
   1   -333.3771916 -0.333377E+03  0.150E-01    0.37       0.0  T
   2   -333.3773796 -0.187981E-03  0.882E-02    0.36       1.0  T
   3   -333.3770494  0.330162E-03  0.506E-02    0.37       1.0  T
   4   -333.3774856 -0.436184E-03  0.147E-02    0.36       1.0  T
   5   -333.3775198 -0.342059E-04  0.576E-03    0.36       1.2  T
   6   -333.3775232 -0.338610E-05  0.281E-03    0.36       2.6  T
   7   -333.3775241 -0.934332E-06  0.120E-03    0.36       6.0  T
   8   -333.3775243 -0.201552E-06  0.547E-04    0.36      13.1  T
   9   -333.3775243 -0.109362E-07  0.295E-04    0.36      24.4  T
     SCC iter.                  ...        0 min,  0.342 sec
     gradient                   ...        0 min,  0.129 sec
 * total energy  :  -328.2849780 Eh     change       -0.1099047E-01 Eh
   gradient norm :     0.0257992 Eh/α   predicted    -0.1022668E-01 (  -6.95%)
   displ. norm   :     0.6623375 α      lambda       -0.1030608E-01
   maximum displ.:     0.1437308 α      in ANC's #111, #86, #1, ...

........................................................................
.............................. CYCLE    5 ..............................
........................................................................
   1   -333.3979808 -0.333398E+03  0.289E-01    0.36       0.0  T
   2   -333.3982340 -0.253125E-03  0.162E-01    0.36       1.0  T
   3   -333.3974825  0.751427E-03  0.625E-02    0.36       1.0  T
   4   -333.3983745 -0.891922E-03  0.127E-02    0.36       1.0  T
   5   -333.3983937 -0.191993E-04  0.636E-03    0.36       1.1  T
   6   -333.3983964 -0.270045E-05  0.324E-03    0.36       2.2  T
   7   -333.3983976 -0.122030E-05  0.122E-03    0.36       5.9  T
   8   -333.3983978 -0.182108E-06  0.574E-04    0.36      12.5  T
   9   -333.3983978 -0.133151E-07  0.299E-04    0.36      24.0  T
     SCC iter.                  ...        0 min,  0.345 sec
     gradient                   ...        0 min,  0.129 sec
 * total energy  :  -328.2865864 Eh     change       -0.1608447E-02 Eh
   gradient norm :     0.0568702 Eh/α   predicted    -0.7413669E-02 ( 360.92%)
   displ. norm   :     0.4502260 α      lambda       -0.1142799E-01
   maximum displ.:     0.2043086 α      in ANC's #1, #90, #74, ...

........................................................................
.............................. CYCLE    6 ..............................
........................................................................
   1   -333.4234417 -0.333423E+03  0.273E-01    0.36       0.0  T
   2   -333.4236073 -0.165536E-03  0.151E-01    0.36       1.0  T
   3   -333.4234844  0.122834E-03  0.287E-02    0.36       1.0  T
   4   -333.4236754 -0.190996E-03  0.703E-03    0.37       1.0  T
   5   -333.4236789 -0.344783E-05  0.379E-03    0.36       1.9  T
   6   -333.4236799 -0.104177E-05  0.174E-03    0.36       4.1  T
   7   -333.4236804 -0.423039E-06  0.621E-04    0.36      11.6  T
   8   -333.4236804 -0.449729E-07  0.300E-04    0.36      23.9  T
     SCC iter.                  ...        0 min,  0.300 sec
     gradient                   ...        0 min,  0.128 sec
 * total energy  :  -328.2915663 Eh     change       -0.4979870E-02 Eh
   gradient norm :     0.0333161 Eh/α   predicted    -0.6872246E-02 (  38.00%)
   displ. norm   :     0.3515126 α      lambda       -0.3382346E-02
   maximum displ.:     0.1218501 α      in ANC's #69, #78, #58, ...

........................................................................
.............................. CYCLE    7 ..............................
........................................................................
   1   -333.4140544 -0.333414E+03  0.158E-01    0.38       0.0  T
   2   -333.4141131 -0.587510E-04  0.881E-02    0.38       1.0  T
   3   -333.4137322  0.380911E-03  0.496E-02    0.37       1.0  T
   4   -333.4141762 -0.444029E-03  0.598E-03    0.38       1.2  T
   5   -333.4141795 -0.323394E-05  0.319E-03    0.38       2.2  T
   6   -333.4141804 -0.962438E-06  0.145E-03    0.38       4.9  T
   7   -333.4141806 -0.189754E-06  0.501E-04    0.38      14.3  T
   8   -333.4141806 -0.198994E-07  0.257E-04    0.38      27.9  T
     SCC iter.                  ...        0 min,  0.302 sec
     gradient                   ...        0 min,  0.130 sec
 * total energy  :  -328.2923642 Eh     change       -0.7978510E-03 Eh
   gradient norm :     0.0299660 Eh/α   predicted    -0.1900135E-02 ( 138.16%)
   displ. norm   :     0.3571456 α      lambda       -0.3420310E-02
   maximum displ.:     0.0915034 α      in ANC's #39, #41, #58, ...

........................................................................
.............................. CYCLE    8 ..............................
........................................................................
   1   -333.4271453 -0.333427E+03  0.134E-01    0.38       0.0  T
   2   -333.4271992 -0.538642E-04  0.743E-02    0.38       1.0  T
   3   -333.4270507  0.148556E-03  0.315E-02    0.38       1.0  T
   4   -333.4272324 -0.181791E-03  0.394E-03    0.38       1.8  T
   5   -333.4272326 -0.178546E-06  0.267E-03    0.38       2.7  T
   6   -333.4272336 -0.965848E-06  0.105E-03    0.38       6.9  T
   7   -333.4272337 -0.103247E-06  0.415E-04    0.38      17.3  T
   8   -333.4272337 -0.172519E-07  0.189E-04    0.38      38.1  T
     SCC iter.                  ...        0 min,  0.294 sec
     gradient                   ...        0 min,  0.129 sec
 * total energy  :  -328.2943929 Eh     change       -0.2028683E-02 Eh
   gradient norm :     0.0242111 Eh/α   predicted    -0.1928301E-02 (  -4.95%)
   displ. norm   :     0.4527734 α      lambda       -0.2152218E-02
   maximum displ.:     0.1292938 α      in ANC's #41, #39, #58, ...

........................................................................
.............................. CYCLE    9 ..............................
........................................................................
   1   -333.4352995 -0.333435E+03  0.121E-01    0.37       0.0  T
   2   -333.4353339 -0.344270E-04  0.677E-02    0.37       1.0  T
   3   -333.4351858  0.148101E-03  0.273E-02    0.37       1.0  T
   4   -333.4353577 -0.171917E-03  0.462E-03    0.38       1.6  T
   5   -333.4353590 -0.122344E-05  0.273E-03    0.37       2.6  T
   6   -333.4353599 -0.926059E-06  0.113E-03    0.38       6.4  T
   7   -333.4353600 -0.145876E-06  0.471E-04    0.37      15.2  T
   8   -333.4353601 -0.309419E-07  0.204E-04    0.37      35.1  T
     SCC iter.                  ...        0 min,  0.294 sec
     gradient                   ...        0 min,  0.129 sec
 * total energy  :  -328.2955946 Eh     change       -0.1201702E-02 Eh
   gradient norm :     0.0169375 Eh/α   predicted    -0.1296718E-02 (   7.91%)
   displ. norm   :     0.5250154 α      lambda       -0.1835482E-02
   maximum displ.:     0.1428765 α      in ANC's #41, #58, #39, ...

........................................................................
.............................. CYCLE   10 ..............................
........................................................................
   1   -333.4392029 -0.333439E+03  0.121E-01    0.40       0.0  T
   2   -333.4392348 -0.319315E-04  0.679E-02    0.40       1.0  T
   3   -333.4390573  0.177450E-03  0.293E-02    0.40       1.0  T
   4   -333.4392601 -0.202748E-03  0.501E-03    0.39       1.4  T
   5   -333.4392612 -0.111782E-05  0.289E-03    0.40       2.5  T
   6   -333.4392622 -0.102065E-05  0.115E-03    0.40       6.2  T
   7   -333.4392624 -0.160567E-06  0.492E-04    0.40      14.6  T
   8   -333.4392624 -0.317031E-07  0.226E-04    0.40      31.8  T
     SCC iter.                  ...        0 min,  0.302 sec
     gradient                   ...        0 min,  0.129 sec
 * total energy  :  -328.2965412 Eh     change       -0.9466272E-03 Eh
   gradient norm :     0.0221889 Eh/α   predicted    -0.1170715E-02 (  23.67%)
   displ. norm   :     0.4989486 α      lambda       -0.1805409E-02
   maximum displ.:     0.1694922 α      in ANC's #41, #10, #58, ...

........................................................................
.............................. CYCLE   11 ..............................
........................................................................
   1   -333.4389618 -0.333439E+03  0.898E-02    0.40       0.0  T
   2   -333.4389781 -0.162883E-04  0.504E-02    0.40       1.0  T
   3   -333.4388909  0.871381E-04  0.215E-02    0.40       1.0  T
   4   -333.4389889 -0.979702E-04  0.482E-03    0.40       1.5  T
   5   -333.4389903 -0.137600E-05  0.255E-03    0.40       2.8  T
   6   -333.4389912 -0.921058E-06  0.956E-04    0.40       7.5  T
   7   -333.4389913 -0.134630E-06  0.359E-04    0.40      20.0  T
     SCC iter.                  ...        0 min,  0.261 sec
     gradient                   ...        0 min,  0.129 sec
 * total energy  :  -328.2978605 Eh     change       -0.1319273E-02 Eh
   gradient norm :     0.0154747 Eh/α   predicted    -0.1127436E-02 ( -14.54%)
   displ. norm   :     0.5777974 α      lambda       -0.1437901E-02
   maximum displ.:     0.2084632 α      in ANC's #41, #10, #5, ...

........................................................................
.............................. CYCLE   12 ..............................
........................................................................
   1   -333.4396941 -0.333440E+03  0.104E-01    0.40       0.0  T
   2   -333.4397133 -0.191870E-04  0.578E-02    0.40       1.0  T
   3   -333.4396042  0.109114E-03  0.230E-02    0.40       1.0  T
   4   -333.4397263 -0.122075E-03  0.587E-03    0.40       1.2  T
   5   -333.4397282 -0.194145E-05  0.276E-03    0.40       2.6  T
   6   -333.4397293 -0.106684E-05  0.104E-03    0.40       6.9  T
   7   -333.4397295 -0.191195E-06  0.378E-04    0.40      19.0  T
   8   -333.4397295 -0.151421E-07  0.190E-04    0.40      37.8  T
     SCC iter.                  ...        0 min,  0.298 sec
     gradient                   ...        0 min,  0.129 sec
 * total energy  :  -328.2990467 Eh     change       -0.1186197E-02 Eh
   gradient norm :     0.0140775 Eh/α   predicted    -0.9589751E-03 ( -19.16%)
   displ. norm   :     0.7058502 α      lambda       -0.1521538E-02
   maximum displ.:     0.2469538 α      in ANC's #41, #10, #5, ...

........................................................................
.............................. CYCLE   13 ..............................
........................................................................
   1   -333.4424596 -0.333442E+03  0.117E-01    0.41       0.0  T
   2   -333.4424827 -0.231092E-04  0.646E-02    0.41       1.0  T
   3   -333.4423556  0.127139E-03  0.259E-02    0.42       1.0  T
   4   -333.4424959 -0.140359E-03  0.741E-03    0.41       1.0  T
   5   -333.4424993 -0.340515E-05  0.335E-03    0.41       2.1  T
   6   -333.4425010 -0.170712E-05  0.120E-03    0.41       6.0  T
   7   -333.4425013 -0.272623E-06  0.411E-04    0.41      17.5  T
   8   -333.4425013 -0.177893E-07  0.205E-04    0.41      35.0  T
     SCC iter.                  ...        0 min,  0.302 sec
     gradient                   ...        0 min,  0.129 sec
 * total energy  :  -328.3003076 Eh     change       -0.1260980E-02 Eh
   gradient norm :     0.0132728 Eh/α   predicted    -0.1139802E-02 (  -9.61%)
   displ. norm   :     0.7301749 α      lambda       -0.1583868E-02
   maximum displ.:     0.2552838 α      in ANC's #41, #5, #10, ...

........................................................................
.............................. CYCLE   14 ..............................
........................................................................
   1   -333.4399730 -0.333440E+03  0.132E-01    0.41       0.0  T
   2   -333.4400059 -0.328266E-04  0.726E-02    0.42       1.0  T
   3   -333.4398801  0.125761E-03  0.263E-02    0.41       1.0  T
   4   -333.4400195 -0.139415E-03  0.816E-03    0.42       1.0  T
   5   -333.4400248 -0.523707E-05  0.330E-03    0.42       2.2  T
   6   -333.4400259 -0.113984E-05  0.131E-03    0.42       5.5  T
   7   -333.4400262 -0.272598E-06  0.468E-04    0.42      15.3  T
   8   -333.4400262 -0.228756E-07  0.239E-04    0.42      30.1  T
     SCC iter.                  ...        0 min,  0.302 sec
     gradient                   ...        0 min,  0.129 sec
 * total energy  :  -328.3015407 Eh     change       -0.1233045E-02 Eh
   gradient norm :     0.0177100 Eh/α   predicted    -0.1214163E-02 (  -1.53%)
   displ. norm   :     0.7087055 α      lambda       -0.1499510E-02
   maximum displ.:     0.2310699 α      in ANC's #41, #5, #10, ...

........................................................................
.............................. CYCLE   15 ..............................
........................................................................
   1   -333.4409820 -0.333441E+03  0.116E-01    0.42       0.0  T
   2   -333.4410074 -0.254538E-04  0.639E-02    0.43       1.0  T
   3   -333.4409146  0.927795E-04  0.233E-02    0.43       1.0  T
   4   -333.4410156 -0.101015E-03  0.766E-03    0.43       1.0  T
   5   -333.4410204 -0.475047E-05  0.330E-03    0.43       2.2  T
   6   -333.4410219 -0.149419E-05  0.107E-03    0.43       6.7  T
   7   -333.4410221 -0.178982E-06  0.416E-04    0.43      17.3  T
   8   -333.4410221 -0.227573E-07  0.205E-04    0.43      34.9  T
     SCC iter.                  ...        0 min,  0.297 sec
     gradient                   ...        0 min,  0.129 sec
 * total energy  :  -328.3027736 Eh     change       -0.1232920E-02 Eh
   gradient norm :     0.0135508 Eh/α   predicted    -0.1126332E-02 (  -8.65%)
   displ. norm   :     0.6909796 α      lambda       -0.1439043E-02
   maximum displ.:     0.2187217 α      in ANC's #5, #10, #41, ...

........................................................................
.............................. CYCLE   16 ..............................
........................................................................
   1   -333.4461450 -0.333446E+03  0.108E-01    0.44       0.0  T
   2   -333.4461669 -0.219526E-04  0.596E-02    0.44       1.0  T
   3   -333.4461064  0.605775E-04  0.192E-02    0.44       1.0  T
   4   -333.4461722 -0.658209E-04  0.703E-03    0.44       1.0  T
   5   -333.4461764 -0.419589E-05  0.296E-03    0.44       2.4  T
   6   -333.4461775 -0.111668E-05  0.101E-03    0.44       7.1  T
   7   -333.4461776 -0.149125E-06  0.412E-04    0.44      17.4  T
   8   -333.4461777 -0.211676E-07  0.213E-04    0.44      33.8  T
     SCC iter.                  ...        0 min,  0.304 sec
     gradient                   ...        0 min,  0.129 sec
 * total energy  :  -328.3039745 Eh     change       -0.1200873E-02 Eh
   gradient norm :     0.0123198 Eh/α   predicted    -0.1063064E-02 ( -11.48%)
   displ. norm   :     0.7441004 α      lambda       -0.1361322E-02
   maximum displ.:     0.2442768 α      in ANC's #5, #10, #41, ...

........................................................................
.............................. CYCLE   17 ..............................
........................................................................
   1   -333.4442312 -0.333444E+03  0.114E-01    0.44       0.0  T
   2   -333.4442633 -0.321174E-04  0.627E-02    0.45       1.0  T
   3   -333.4442112  0.520659E-04  0.188E-02    0.45       1.0  T
   4   -333.4442660 -0.548152E-04  0.787E-03    0.45       1.0  T
   5   -333.4442726 -0.659124E-05  0.316E-03    0.45       2.3  T
   6   -333.4442738 -0.115663E-05  0.125E-03    0.45       5.7  T
   7   -333.4442740 -0.257850E-06  0.438E-04    0.45      16.4  T
   8   -333.4442741 -0.276203E-07  0.209E-04    0.45      34.3  T
     SCC iter.                  ...        0 min,  0.300 sec
     gradient                   ...        0 min,  0.129 sec
 * total energy  :  -328.3051216 Eh     change       -0.1147141E-02 Eh
   gradient norm :     0.0112401 Eh/α   predicted    -0.1057527E-02 (  -7.81%)
   displ. norm   :     0.7196389 α      lambda       -0.1358930E-02
   maximum displ.:     0.2588891 α      in ANC's #5, #10, #28, ...

........................................................................
.............................. CYCLE   18 ..............................
........................................................................
   1   -333.4542458 -0.333454E+03  0.103E-01    0.45       0.0  T
   2   -333.4542667 -0.208475E-04  0.571E-02    0.46       1.0  T
   3   -333.4542214  0.452972E-04  0.165E-02    0.46       1.0  T
   4   -333.4542704 -0.490070E-04  0.655E-03    0.46       1.1  T
   5   -333.4542745 -0.409422E-05  0.288E-03    0.46       2.5  T
   6   -333.4542755 -0.105767E-05  0.103E-03    0.46       6.9  T
   7   -333.4542757 -0.164825E-06  0.407E-04    0.46      17.6  T
   8   -333.4542757 -0.189350E-07  0.221E-04    0.46      32.5  T
     SCC iter.                  ...        0 min,  0.301 sec
     gradient                   ...        0 min,  0.129 sec
 * total energy  :  -328.3062120 Eh     change       -0.1090422E-02 Eh
   gradient norm :     0.0117062 Eh/α   predicted    -0.1031356E-02 (  -5.42%)
   displ. norm   :     0.8371888 α      lambda       -0.1427972E-02
   maximum displ.:     0.2826905 α      in ANC's #5, #10, #41, ...

........................................................................
.............................. CYCLE   19 ..............................
........................................................................
   1   -333.4365558 -0.333437E+03  0.121E-01    0.46       0.0  T
   2   -333.4365955 -0.397645E-04  0.671E-02    0.47       1.0  T
   3   -333.4365315  0.639730E-04  0.199E-02    0.47       1.0  T
   4   -333.4365973 -0.657281E-04  0.872E-03    0.47       1.0  T
   5   -333.4366073 -0.100311E-04  0.343E-03    0.47       2.1  T
   6   -333.4366083 -0.103926E-05  0.146E-03    0.47       4.9  T
   7   -333.4366087 -0.373298E-06  0.497E-04    0.47      14.5  T
   8   -333.4366087 -0.279721E-07  0.268E-04    0.47      26.8  T
     SCC iter.                  ...        0 min,  0.295 sec
     gradient                   ...        0 min,  0.129 sec
 * total energy  :  -328.3070985 Eh     change       -0.8864232E-03 Eh
   gradient norm :     0.0185125 Eh/α   predicted    -0.1214414E-02 (  37.00%)
   displ. norm   :     0.5827847 α      lambda       -0.1569988E-02
   maximum displ.:     0.2119407 α      in ANC's #5, #28, #10, ...

........................................................................
.............................. CYCLE   20 ..............................
........................................................................
   1   -333.4463987 -0.333446E+03  0.836E-02    0.48       0.0  T
   2   -333.4464227 -0.240471E-04  0.462E-02    0.48       1.0  T
   3   -333.4463886  0.341452E-04  0.148E-02    0.48       1.0  T
   4   -333.4464247 -0.360945E-04  0.613E-03    0.48       1.2  T
   5   -333.4464297 -0.499894E-05  0.245E-03    0.48       2.9  T
   6   -333.4464301 -0.430013E-06  0.117E-03    0.48       6.1  T
   7   -333.4464303 -0.229312E-06  0.373E-04    0.48      19.2  T
   8   -333.4464304 -0.102860E-07  0.217E-04    0.48      33.0  T
     SCC iter.                  ...        0 min,  0.295 sec
     gradient                   ...        0 min,  0.129 sec
 * total energy  :  -328.3080473 Eh     change       -0.9488915E-03 Eh
   gradient norm :     0.0196225 Eh/α   predicted    -0.1051609E-02 (  10.82%)
   displ. norm   :     0.5179511 α      lambda       -0.1806895E-02
   maximum displ.:     0.1993291 α      in ANC's #5, #28, #10, ...
 * RMSD in coord.:     0.6183283 α      energy gain  -0.1610599E+00 Eh

generating ANC from model Hessian ...
Using Lindh-Hessian (1995)
 Shifting diagonal of input Hessian by   1.001113989545752E-002
 Lowest  eigenvalues of input Hessian
    0.010000    0.010011    0.000000    0.000000    0.000000    0.000000
    0.000000    0.000000    0.010016    0.010028    0.010051    0.010093
    0.010101    0.010118    0.010142    0.010147    0.010167    0.010184
 Highest eigenvalues
    2.296017    2.299517    2.596183    2.598511    2.642098    2.651989
 

........................................................................
.............................. CYCLE   21 ..............................
........................................................................
   1   -333.4543721 -0.333454E+03  0.800E-02    0.47       0.0  T
   2   -333.4543919 -0.197911E-04  0.452E-02    0.47       1.0  T
   3   -333.4543256  0.662508E-04  0.189E-02    0.47       1.0  T
   4   -333.4543991 -0.734689E-04  0.529E-03    0.47       1.4  T
   5   -333.4544026 -0.346863E-05  0.241E-03    0.47       3.0  T
   6   -333.4544030 -0.391934E-06  0.111E-03    0.47       6.5  T
   7   -333.4544031 -0.123238E-06  0.499E-04    0.47      14.4  T
   8   -333.4544031 -0.238678E-07  0.262E-04    0.47      27.4  T
     SCC iter.                  ...        0 min,  0.292 sec
     gradient                   ...        0 min,  0.128 sec
 * total energy  :  -328.3087883 Eh     change       -0.7409713E-03 Eh
   gradient norm :     0.0226968 Eh/α   predicted     0.0000000E+00 (-100.00%)
   displ. norm   :     0.1683054 α      lambda       -0.1010002E-02
   maximum displ.:     0.0501454 α      in ANC's #31, #48, #29, ...

........................................................................
.............................. CYCLE   22 ..............................
........................................................................
   1   -333.4552922 -0.333455E+03  0.559E-02    0.47       0.0  T
   2   -333.4553014 -0.924141E-05  0.311E-02    0.47       1.0  T
   3   -333.4552793  0.220881E-04  0.116E-02    0.47       1.0  T
   4   -333.4553053 -0.259647E-04  0.292E-03    0.47       2.5  T
   5   -333.4553061 -0.831785E-06  0.139E-03    0.47       5.2  T
   6   -333.4553063 -0.142077E-06  0.657E-04    0.47      10.9  T
   7   -333.4553063 -0.572985E-07  0.258E-04    0.47      27.8  T
     SCC iter.                  ...        0 min,  0.257 sec
     gradient                   ...        0 min,  0.129 sec
 * total energy  :  -328.3093998 Eh     change       -0.6114656E-03 Eh
   gradient norm :     0.0077518 Eh/α   predicted    -0.5193988E-03 ( -15.06%)
   displ. norm   :     0.3663810 α      lambda       -0.1250505E-02
   maximum displ.:     0.1066042 α      in ANC's #29, #4, #48, ...

........................................................................
.............................. CYCLE   23 ..............................
........................................................................
   1   -333.4519906 -0.333452E+03  0.131E-01    0.47       0.0  T
   2   -333.4520344 -0.437381E-04  0.722E-02    0.48       1.0  T
   3   -333.4520048  0.295829E-04  0.159E-02    0.48       1.0  T
   4   -333.4520501 -0.453640E-04  0.510E-03    0.48       1.4  T
   5   -333.4520518 -0.163691E-05  0.240E-03    0.48       3.0  T
   6   -333.4520522 -0.441480E-06  0.110E-03    0.48       6.5  T
   7   -333.4520524 -0.177246E-06  0.446E-04    0.48      16.1  T
   8   -333.4520524 -0.122617E-07  0.232E-04    0.48      30.9  T
     SCC iter.                  ...        0 min,  0.291 sec
     gradient                   ...        0 min,  0.128 sec
 * total energy  :  -328.3090830 Eh     change        0.3167604E-03 Eh
   gradient norm :     0.0275194 Eh/α   predicted    -0.7093966E-03 (-323.95%)
   displ. norm   :     0.1480597 α      lambda       -0.1698437E-02
   maximum displ.:     0.0514230 α      in ANC's #31, #18, #32, ...

........................................................................
.............................. CYCLE   24 ..............................
........................................................................
   1   -333.4527076 -0.333453E+03  0.864E-02    0.48       0.0  T
   2   -333.4527248 -0.171591E-04  0.478E-02    0.48       1.0  T
   3   -333.4527202  0.458436E-05  0.816E-03    0.48       1.0  T
   4   -333.4527317 -0.114432E-04  0.222E-03    0.48       3.2  T
   5   -333.4527318 -0.111664E-06  0.120E-03    0.48       6.0  T
   6   -333.4527319 -0.149667E-06  0.488E-04    0.48      14.7  T
   7   -333.4527320 -0.334878E-07  0.195E-04    0.48      36.8  T
     SCC iter.                  ...        0 min,  0.255 sec
     gradient                   ...        0 min,  0.132 sec
 * total energy  :  -328.3101372 Eh     change       -0.1054142E-02 Eh
   gradient norm :     0.0125342 Eh/α   predicted    -0.8678501E-03 ( -17.67%)
   displ. norm   :     0.2730679 α      lambda       -0.6431935E-03
   maximum displ.:     0.0835934 α      in ANC's #29, #4, #31, ...

........................................................................
.............................. CYCLE   25 ..............................
........................................................................
   1   -333.4508869 -0.333451E+03  0.532E-02    0.48       0.0  T
   2   -333.4508939 -0.705855E-05  0.286E-02    0.48       1.0  T
   3   -333.4508920  0.189777E-05  0.570E-03    0.48       1.3  T
   4   -333.4508953 -0.332242E-05  0.285E-03    0.48       2.5  T
   5   -333.4508960 -0.642207E-06  0.124E-03    0.48       5.8  T
   6   -333.4508962 -0.223020E-06  0.433E-04    0.48      16.6  T
   7   -333.4508962 -0.290569E-07  0.171E-04    0.48      41.9  T
     SCC iter.                  ...        0 min,  0.256 sec
     gradient                   ...        0 min,  0.129 sec
 * total energy  :  -328.3106329 Eh     change       -0.4957825E-03 Eh
   gradient norm :     0.0080002 Eh/α   predicted    -0.3455776E-03 ( -30.30%)
   displ. norm   :     0.6428822 α      lambda       -0.1194172E-02
   maximum displ.:     0.1962053 α      in ANC's #29, #4, #48, ...

........................................................................
.............................. CYCLE   26 ..............................
........................................................................
   1   -333.4482817 -0.333448E+03  0.102E-01    0.48       0.0  T
   2   -333.4483072 -0.255215E-04  0.540E-02    0.48       1.0  T
   3   -333.4482983  0.888158E-05  0.120E-02    0.48       1.0  T
   4   -333.4483099 -0.115452E-04  0.641E-03    0.48       1.1  T
   5   -333.4483130 -0.317480E-05  0.287E-03    0.48       2.5  T
   6   -333.4483143 -0.130101E-05  0.927E-04    0.48       7.7  T
   7   -333.4483145 -0.133493E-06  0.319E-04    0.48      22.5  T
   8   -333.4483145 -0.403878E-08  0.193E-04    0.48      37.2  T
     SCC iter.                  ...        0 min,  0.318 sec
     gradient                   ...        0 min,  0.128 sec
 * total energy  :  -328.3115206 Eh     change       -0.8876104E-03 Eh
   gradient norm :     0.0165184 Eh/α   predicted    -0.8438658E-03 (  -4.93%)
   displ. norm   :     0.6455368 α      lambda       -0.1274712E-02
   maximum displ.:     0.2167187 α      in ANC's #29, #4, #12, ...

........................................................................
.............................. CYCLE   27 ..............................
........................................................................
   1   -333.4510673 -0.333451E+03  0.989E-02    0.48       0.0  T
   2   -333.4510907 -0.234096E-04  0.526E-02    0.48       1.0  T
   3   -333.4510857  0.507052E-05  0.107E-02    0.48       1.0  T
   4   -333.4510929 -0.723644E-05  0.605E-03    0.48       1.2  T
   5   -333.4510959 -0.296296E-05  0.255E-03    0.48       2.8  T
   6   -333.4510970 -0.108690E-05  0.877E-04    0.48       8.2  T
   7   -333.4510971 -0.134632E-06  0.295E-04    0.48      24.3  T
   8   -333.4510971 -0.402588E-08  0.180E-04    0.48      39.9  T
     SCC iter.                  ...        0 min,  0.302 sec
     gradient                   ...        0 min,  0.129 sec
 * total energy  :  -328.3125544 Eh     change       -0.1033811E-02 Eh
   gradient norm :     0.0131775 Eh/α   predicted    -0.9029650E-03 ( -12.66%)
   displ. norm   :     0.6292243 α      lambda       -0.1364830E-02
   maximum displ.:     0.2167104 α      in ANC's #4, #29, #12, ...

........................................................................
.............................. CYCLE   28 ..............................
........................................................................
   1   -333.4581905 -0.333458E+03  0.915E-02    0.48       0.0  T
   2   -333.4582112 -0.206320E-04  0.486E-02    0.48       1.0  T
   3   -333.4582014  0.973892E-05  0.113E-02    0.49       1.0  T
   4   -333.4582118 -0.103277E-04  0.636E-03    0.48       1.1  T
   5   -333.4582159 -0.417589E-05  0.259E-03    0.49       2.8  T
   6   -333.4582168 -0.894702E-06  0.891E-04    0.48       8.1  T
   7   -333.4582170 -0.129272E-06  0.300E-04    0.49      23.9  T
     SCC iter.                  ...        0 min,  0.267 sec
     gradient                   ...        0 min,  0.129 sec
 * total energy  :  -328.3135470 Eh     change       -0.9926257E-03 Eh
   gradient norm :     0.0100891 Eh/α   predicted    -0.9525997E-03 (  -4.03%)
   displ. norm   :     0.8090429 α      lambda       -0.1434623E-02
   maximum displ.:     0.2753634 α      in ANC's #29, #4, #12, ...

........................................................................
.............................. CYCLE   29 ..............................
........................................................................
   1   -333.4494231 -0.333449E+03  0.111E-01    0.48       0.0  T
   2   -333.4494556 -0.324323E-04  0.587E-02    0.48       1.0  T
   3   -333.4494443  0.113019E-04  0.141E-02    0.48       1.0  T
   4   -333.4494573 -0.130171E-04  0.780E-03    0.48       1.0  T
   5   -333.4494615 -0.418766E-05  0.355E-03    0.48       2.0  T
   6   -333.4494635 -0.200673E-05  0.105E-03    0.48       6.8  T
   7   -333.4494637 -0.200018E-06  0.382E-04    0.48      18.8  T
   8   -333.4494637 -0.671628E-08  0.219E-04    0.48      32.9  T
     SCC iter.                  ...        0 min,  0.302 sec
     gradient                   ...        0 min,  0.128 sec
 * total energy  :  -328.3142434 Eh     change       -0.6963743E-03 Eh
   gradient norm :     0.0180204 Eh/α   predicted    -0.1186829E-02 (  70.43%)
   displ. norm   :     0.3893280 α      lambda       -0.1011397E-02
   maximum displ.:     0.1494449 α      in ANC's #4, #29, #12, ...

........................................................................
.............................. CYCLE   30 ..............................
........................................................................
   1   -333.4549091 -0.333455E+03  0.495E-02    0.47       0.0  T
   2   -333.4549149 -0.572735E-05  0.264E-02    0.47       1.0  T
   3   -333.4549125  0.236242E-05  0.619E-03    0.47       1.2  T
   4   -333.4549154 -0.291263E-05  0.320E-03    0.47       2.2  T
   5   -333.4549162 -0.794228E-06  0.133E-03    0.47       5.4  T
   6   -333.4549165 -0.263203E-06  0.429E-04    0.47      16.7  T
   7   -333.4549165 -0.261912E-07  0.182E-04    0.47      39.5  T
     SCC iter.                  ...        0 min,  0.267 sec
     gradient                   ...        0 min,  0.128 sec
 * total energy  :  -328.3150260 Eh     change       -0.7826268E-03 Eh
   gradient norm :     0.0091628 Eh/α   predicted    -0.5823513E-03 ( -25.59%)
   displ. norm   :     0.6637583 α      lambda       -0.1010740E-02
   maximum displ.:     0.2595409 α      in ANC's #4, #29, #12, ...

........................................................................
.............................. CYCLE   31 ..............................
........................................................................
   1   -333.4614217 -0.333461E+03  0.903E-02    0.47       0.0  T
   2   -333.4614375 -0.157947E-04  0.479E-02    0.47       1.0  T
   3   -333.4614201  0.174441E-04  0.120E-02    0.47       1.0  T
   4   -333.4614395 -0.194066E-04  0.600E-03    0.47       1.2  T
   5   -333.4614427 -0.316086E-05  0.250E-03    0.47       2.9  T
   6   -333.4614437 -0.104460E-05  0.635E-04    0.47      11.3  T
   7   -333.4614438 -0.507103E-07  0.313E-04    0.47      22.9  T
   8   -333.4614438 -0.811627E-08  0.168E-04    0.47      42.8  T
     SCC iter.                  ...        0 min,  0.303 sec
     gradient                   ...        0 min,  0.128 sec
 * total energy  :  -328.3158362 Eh     change       -0.8102021E-03 Eh
   gradient norm :     0.0068856 Eh/α   predicted    -0.7280275E-03 ( -10.14%)
   displ. norm   :     0.8088504 α      lambda       -0.9937608E-03
   maximum displ.:     0.3168203 α      in ANC's #4, #29, #12, ...

........................................................................
.............................. CYCLE   32 ..............................
........................................................................
   1   -333.4615144 -0.333462E+03  0.103E-01    0.46       0.0  T
   2   -333.4615352 -0.207818E-04  0.537E-02    0.46       1.0  T
   3   -333.4615229  0.123709E-04  0.125E-02    0.46       1.0  T
   4   -333.4615376 -0.147218E-04  0.678E-03    0.46       1.1  T
   5   -333.4615410 -0.344508E-05  0.250E-03    0.46       2.9  T
   6   -333.4615422 -0.122617E-05  0.610E-04    0.46      11.8  T
   7   -333.4615423 -0.504662E-07  0.287E-04    0.46      25.0  T
   8   -333.4615423 -0.680876E-08  0.160E-04    0.46      44.8  T
     SCC iter.                  ...        0 min,  0.300 sec
     gradient                   ...        0 min,  0.128 sec
 * total energy  :  -328.3166702 Eh     change       -0.8340387E-03 Eh
   gradient norm :     0.0063225 Eh/α   predicted    -0.8219625E-03 (  -1.45%)
   displ. norm   :     0.8074946 α      lambda       -0.8906178E-03
   maximum displ.:     0.3238970 α      in ANC's #4, #29, #12, ...

........................................................................
.............................. CYCLE   33 ..............................
........................................................................
   1   -333.4570800 -0.333457E+03  0.104E-01    0.45       0.0  T
   2   -333.4571017 -0.216514E-04  0.544E-02    0.45       1.0  T
   3   -333.4570840  0.176322E-04  0.131E-02    0.45       1.0  T
   4   -333.4571042 -0.201170E-04  0.693E-03    0.45       1.0  T
   5   -333.4571081 -0.391421E-05  0.275E-03    0.45       2.6  T
   6   -333.4571095 -0.138918E-05  0.662E-04    0.45      10.8  T
   7   -333.4571095 -0.615059E-07  0.308E-04    0.45      23.3  T
   8   -333.4571095 -0.914974E-08  0.166E-04    0.45      43.4  T
     SCC iter.                  ...        0 min,  0.296 sec
     gradient                   ...        0 min,  0.128 sec
 * total energy  :  -328.3174568 Eh     change       -0.7865826E-03 Eh
   gradient norm :     0.0078344 Eh/α   predicted    -0.7356768E-03 (  -6.47%)
   displ. norm   :     0.7564619 α      lambda       -0.1060260E-02
   maximum displ.:     0.3192970 α      in ANC's #4, #12, #29, ...

........................................................................
.............................. CYCLE   34 ..............................
........................................................................
   1   -333.4682781 -0.333468E+03  0.996E-02    0.45       0.0  T
   2   -333.4682991 -0.209682E-04  0.529E-02    0.45       1.0  T
   3   -333.4682804  0.187011E-04  0.129E-02    0.45       1.0  T
   4   -333.4683030 -0.226865E-04  0.635E-03    0.45       1.1  T
   5   -333.4683059 -0.283065E-05  0.271E-03    0.45       2.7  T
   6   -333.4683071 -0.125250E-05  0.785E-04    0.45       9.2  T
   7   -333.4683072 -0.698313E-07  0.408E-04    0.45      17.6  T
   8   -333.4683072 -0.946892E-08  0.246E-04    0.45      29.2  T
     SCC iter.                  ...        0 min,  0.301 sec
     gradient                   ...        0 min,  0.128 sec
 * total energy  :  -328.3182156 Eh     change       -0.7587971E-03 Eh
   gradient norm :     0.0127050 Eh/α   predicted    -0.8334903E-03 (   9.84%)
   displ. norm   :     0.8016559 α      lambda       -0.9674937E-03
   maximum displ.:     0.3266496 α      in ANC's #4, #29, #12, ...

........................................................................
.............................. CYCLE   35 ..............................
........................................................................
   1   -333.4606012 -0.333461E+03  0.104E-01    0.45       0.0  T
   2   -333.4606233 -0.220879E-04  0.540E-02    0.45       1.0  T
   3   -333.4606113  0.119687E-04  0.123E-02    0.45       1.0  T
   4   -333.4606250 -0.136374E-04  0.702E-03    0.45       1.0  T
   5   -333.4606297 -0.475286E-05  0.243E-03    0.45       3.0  T
   6   -333.4606307 -0.101370E-05  0.657E-04    0.45      10.9  T
   7   -333.4606308 -0.541902E-07  0.323E-04    0.45      22.2  T
   8   -333.4606308 -0.567223E-08  0.183E-04    0.45      39.1  T
     SCC iter.                  ...        0 min,  0.301 sec
     gradient                   ...        0 min,  0.128 sec
 * total energy  :  -328.3190444 Eh     change       -0.8287830E-03 Eh
   gradient norm :     0.0103938 Eh/α   predicted    -0.7946283E-03 (  -4.12%)
   displ. norm   :     0.7618281 α      lambda       -0.9319781E-03
   maximum displ.:     0.3172311 α      in ANC's #4, #29, #12, ...

........................................................................
.............................. CYCLE   36 ..............................
........................................................................
   1   -333.4547813 -0.333455E+03  0.983E-02    0.44       0.0  T
   2   -333.4548036 -0.222603E-04  0.513E-02    0.44       1.0  T
   3   -333.4547819  0.216796E-04  0.138E-02    0.44       1.0  T
   4   -333.4548081 -0.261992E-04  0.656E-03    0.44       1.1  T
   5   -333.4548110 -0.285474E-05  0.264E-03    0.44       2.7  T
   6   -333.4548121 -0.111121E-05  0.721E-04    0.44      10.0  T
   7   -333.4548122 -0.769808E-07  0.332E-04    0.44      21.6  T
   8   -333.4548122 -0.904129E-08  0.182E-04    0.44      39.4  T
     SCC iter.                  ...        0 min,  0.300 sec
     gradient                   ...        0 min,  0.128 sec
 * total energy  :  -328.3198022 Eh     change       -0.7577757E-03 Eh
   gradient norm :     0.0123360 Eh/α   predicted    -0.7364454E-03 (  -2.81%)
   displ. norm   :     0.7431918 α      lambda       -0.9039565E-03
   maximum displ.:     0.3164698 α      in ANC's #4, #12, #29, ...

........................................................................
.............................. CYCLE   37 ..............................
........................................................................
   1   -333.4579050 -0.333458E+03  0.866E-02    0.44       0.0  T
   2   -333.4579208 -0.157628E-04  0.450E-02    0.44       1.0  T
   3   -333.4579114  0.944165E-05  0.108E-02    0.44       1.0  T
   4   -333.4579231 -0.117072E-04  0.576E-03    0.44       1.2  T
   5   -333.4579252 -0.214984E-05  0.240E-03    0.44       3.0  T
   6   -333.4579263 -0.105595E-05  0.536E-04    0.44      13.4  T
   7   -333.4579263 -0.342020E-07  0.265E-04    0.44      27.1  T
   8   -333.4579263 -0.499205E-08  0.140E-04    0.44      51.2  T
     SCC iter.                  ...        0 min,  0.303 sec
     gradient                   ...        0 min,  0.128 sec
 * total energy  :  -328.3205707 Eh     change       -0.7685045E-03 Eh
   gradient norm :     0.0115800 Eh/α   predicted    -0.7016218E-03 (  -8.70%)
   displ. norm   :     0.7610923 α      lambda       -0.9473332E-03
   maximum displ.:     0.3242776 α      in ANC's #4, #12, #29, ...

........................................................................
.............................. CYCLE   38 ..............................
........................................................................
   1   -333.4622627 -0.333462E+03  0.875E-02    0.43       0.0  T
   2   -333.4622785 -0.157242E-04  0.458E-02    0.44       1.0  T
   3   -333.4622665  0.119824E-04  0.112E-02    0.44       1.0  T
   4   -333.4622806 -0.140979E-04  0.595E-03    0.44       1.2  T
   5   -333.4622830 -0.242638E-05  0.253E-03    0.44       2.8  T
   6   -333.4622842 -0.123038E-05  0.544E-04    0.44      13.2  T
   7   -333.4622843 -0.316066E-07  0.272E-04    0.44      26.4  T
   8   -333.4622843 -0.442628E-08  0.154E-04    0.44      46.7  T
     SCC iter.                  ...        0 min,  0.297 sec
     gradient                   ...        0 min,  0.128 sec
 * total energy  :  -328.3213998 Eh     change       -0.8290806E-03 Eh
   gradient norm :     0.0094670 Eh/α   predicted    -0.7480459E-03 (  -9.77%)
   displ. norm   :     0.8079332 α      lambda       -0.9846383E-03
   maximum displ.:     0.3473868 α      in ANC's #4, #12, #6, ...

........................................................................
.............................. CYCLE   39 ..............................
........................................................................
   1   -333.4646011 -0.333465E+03  0.842E-02    0.43       0.0  T
   2   -333.4646167 -0.155523E-04  0.438E-02    0.43       1.0  T
   3   -333.4646014  0.152680E-04  0.120E-02    0.44       1.0  T
   4   -333.4646189 -0.175362E-04  0.603E-03    0.43       1.2  T
   5   -333.4646214 -0.243182E-05  0.260E-03    0.43       2.8  T
   6   -333.4646226 -0.120479E-05  0.687E-04    0.43      10.4  T
   7   -333.4646227 -0.695364E-07  0.302E-04    0.43      23.8  T
   8   -333.4646227 -0.722872E-08  0.176E-04    0.43      40.7  T
     SCC iter.                  ...        0 min,  0.296 sec
     gradient                   ...        0 min,  0.128 sec
 * total energy  :  -328.3222404 Eh     change       -0.8406254E-03 Eh
   gradient norm :     0.0090984 Eh/α   predicted    -0.8136844E-03 (  -3.20%)
   displ. norm   :     0.8489355 α      lambda       -0.1012101E-02
   maximum displ.:     0.3645091 α      in ANC's #4, #12, #6, ...

........................................................................
.............................. CYCLE   40 ..............................
........................................................................
   1   -333.4663647 -0.333466E+03  0.932E-02    0.43       0.0  T
   2   -333.4663842 -0.195422E-04  0.486E-02    0.43       1.0  T
   3   -333.4663557  0.284725E-04  0.143E-02    0.43       1.0  T
   4   -333.4663879 -0.321321E-04  0.665E-03    0.43       1.1  T
   5   -333.4663910 -0.310665E-05  0.319E-03    0.43       2.2  T
   6   -333.4663928 -0.181254E-05  0.723E-04    0.43       9.9  T
   7   -333.4663929 -0.699594E-07  0.333E-04    0.43      21.5  T
   8   -333.4663929 -0.120140E-07  0.178E-04    0.43      40.3  T
     SCC iter.                  ...        0 min,  0.297 sec
     gradient                   ...        0 min,  0.128 sec
 * total energy  :  -328.3230847 Eh     change       -0.8443620E-03 Eh
   gradient norm :     0.0082299 Eh/α   predicted    -0.8707615E-03 (   3.13%)
   displ. norm   :     0.8591386 α      lambda       -0.9448417E-03
   maximum displ.:     0.3649619 α      in ANC's #4, #12, #29, ...

........................................................................
.............................. CYCLE   41 ..............................
........................................................................
   1   -333.4628587 -0.333463E+03  0.929E-02    0.42       0.0  T
   2   -333.4628779 -0.191708E-04  0.481E-02    0.42       1.0  T
   3   -333.4628641  0.138016E-04  0.122E-02    0.42       1.0  T
   4   -333.4628799 -0.158504E-04  0.658E-03    0.42       1.1  T
   5   -333.4628830 -0.307616E-05  0.287E-03    0.42       2.5  T
   6   -333.4628846 -0.156452E-05  0.599E-04    0.42      12.0  T
   7   -333.4628846 -0.458481E-07  0.299E-04    0.42      24.0  T
   8   -333.4628846 -0.777152E-08  0.165E-04    0.42      43.6  T
     SCC iter.                  ...        0 min,  0.294 sec
     gradient                   ...        0 min,  0.128 sec
 * total energy  :  -328.3239181 Eh     change       -0.8333548E-03 Eh
   gradient norm :     0.0098631 Eh/α   predicted    -0.8211027E-03 (  -1.47%)
   displ. norm   :     0.7760608 α      lambda       -0.1103992E-02
   maximum displ.:     0.3102022 α      in ANC's #4, #12, #8, ...

........................................................................
.............................. CYCLE   42 ..............................
........................................................................
   1   -333.4812070 -0.333481E+03  0.972E-02    0.42       0.0  T
   2   -333.4812284 -0.213582E-04  0.542E-02    0.42       1.0  T
   3   -333.4811686  0.598011E-04  0.195E-02    0.42       1.0  T
   4   -333.4812382 -0.695759E-04  0.610E-03    0.42       1.2  T
   5   -333.4812398 -0.166116E-05  0.364E-03    0.42       2.0  T
   6   -333.4812418 -0.199559E-05  0.828E-04    0.42       8.7  T
   7   -333.4812419 -0.760988E-07  0.443E-04    0.42      16.2  T
   8   -333.4812419 -0.232945E-07  0.220E-04    0.42      32.7  T
     SCC iter.                  ...        0 min,  0.311 sec
     gradient                   ...        0 min,  0.128 sec
 * total energy  :  -328.3242862 Eh     change       -0.3680876E-03 Eh
   gradient norm :     0.0216358 Eh/α   predicted    -0.8844540E-03 ( 140.28%)
   displ. norm   :     0.6029825 α      lambda       -0.1439009E-02
   maximum displ.:     0.2532742 α      in ANC's #4, #12, #29, ...
 * RMSD in coord.:     0.9319792 α      energy gain  -0.1623884E-01 Eh

generating ANC from model Hessian ...
Using Lindh-Hessian (1995)
 Shifting diagonal of input Hessian by   1.002005577680714E-002
 Lowest  eigenvalues of input Hessian
    0.010000    0.010015    0.000000    0.000000    0.000000    0.000000
    0.000000    0.000000    0.010023    0.010043    0.010071    0.010103
    0.010119    0.010137    0.010149    0.010165    0.010181    0.010190
 Highest eigenvalues
    2.295565    2.297374    2.607085    2.612310    2.649610    2.655019
 

........................................................................
.............................. CYCLE   43 ..............................
........................................................................
   1   -333.4661932 -0.333466E+03  0.750E-02    0.42       0.0  T
   2   -333.4662086 -0.154066E-04  0.397E-02    0.42       1.0  T
   3   -333.4661811  0.274312E-04  0.141E-02    0.42       1.0  T
   4   -333.4662141 -0.329948E-04  0.539E-03    0.42       1.3  T
   5   -333.4662146 -0.437880E-06  0.320E-03    0.42       2.2  T
   6   -333.4662165 -0.190508E-05  0.690E-04    0.42      10.4  T
   7   -333.4662165 -0.560463E-07  0.353E-04    0.42      20.4  T
   8   -333.4662165 -0.120252E-07  0.182E-04    0.42      39.4  T
     SCC iter.                  ...        0 min,  0.293 sec
     gradient                   ...        0 min,  0.128 sec
 * total energy  :  -328.3252054 Eh     change       -0.9191642E-03 Eh
   gradient norm :     0.0096866 Eh/α   predicted     0.0000000E+00 (-100.00%)
   displ. norm   :     0.1207900 α      lambda       -0.3506360E-03
   maximum displ.:     0.0413781 α      in ANC's #1, #4, #12, ...

........................................................................
.............................. CYCLE   44 ..............................
........................................................................
   1   -333.4688483 -0.333469E+03  0.418E-02    0.41       0.0  T
   2   -333.4688519 -0.363897E-05  0.230E-02    0.41       1.0  T
   3   -333.4688416  0.103162E-04  0.750E-03    0.41       1.0  T
   4   -333.4688539 -0.122760E-04  0.183E-03    0.41       3.9  T
   5   -333.4688541 -0.221378E-06  0.936E-04    0.41       7.7  T
   6   -333.4688542 -0.106517E-06  0.294E-04    0.41      24.4  T
     SCC iter.                  ...        0 min,  0.222 sec
     gradient                   ...        0 min,  0.128 sec
 * total energy  :  -328.3254311 Eh     change       -0.2257801E-03 Eh
   gradient norm :     0.0044746 Eh/α   predicted    -0.1778767E-03 ( -21.22%)
   displ. norm   :     0.2801297 α      lambda       -0.5017083E-03
   maximum displ.:     0.1047777 α      in ANC's #1, #12, #4, ...

........................................................................
.............................. CYCLE   45 ..............................
........................................................................
   1   -333.4733203 -0.333473E+03  0.657E-02    0.41       0.0  T
   2   -333.4733309 -0.105319E-04  0.354E-02    0.41       1.0  T
   3   -333.4733128  0.180044E-04  0.102E-02    0.41       1.0  T
   4   -333.4733340 -0.211980E-04  0.378E-03    0.41       1.9  T
   5   -333.4733353 -0.128254E-05  0.169E-03    0.41       4.2  T
   6   -333.4733357 -0.375715E-06  0.538E-04    0.41      13.3  T
   7   -333.4733357 -0.344688E-07  0.249E-04    0.41      28.8  T
     SCC iter.                  ...        0 min,  0.257 sec
     gradient                   ...        0 min,  0.128 sec
 * total energy  :  -328.3256431 Eh     change       -0.2119287E-03 Eh
   gradient norm :     0.0098356 Eh/α   predicted    -0.2705434E-03 (  27.66%)
   displ. norm   :     0.3088708 α      lambda       -0.5014408E-03
   maximum displ.:     0.1151373 α      in ANC's #1, #4, #12, ...

........................................................................
.............................. CYCLE   46 ..............................
........................................................................
   1   -333.4733469 -0.333473E+03  0.778E-02    0.41       0.0  T
   2   -333.4733614 -0.145357E-04  0.419E-02    0.41       1.0  T
   3   -333.4733445  0.168763E-04  0.114E-02    0.41       1.0  T
   4   -333.4733674 -0.228827E-04  0.346E-03    0.41       2.1  T
   5   -333.4733678 -0.425005E-06  0.161E-03    0.41       4.5  T
   6   -333.4733683 -0.447920E-06  0.478E-04    0.41      15.0  T
   7   -333.4733683 -0.251027E-07  0.223E-04    0.41      32.2  T
     SCC iter.                  ...        0 min,  0.258 sec
     gradient                   ...        0 min,  0.128 sec
 * total energy  :  -328.3258908 Eh     change       -0.2477526E-03 Eh
   gradient norm :     0.0123452 Eh/α   predicted    -0.2746524E-03 (  10.86%)
   displ. norm   :     0.4363545 α      lambda       -0.8186213E-03
   maximum displ.:     0.1625235 α      in ANC's #1, #12, #4, ...

........................................................................
.............................. CYCLE   47 ..............................
........................................................................
   1   -333.4710792 -0.333471E+03  0.812E-02    0.40       0.0  T
   2   -333.4710963 -0.171712E-04  0.429E-02    0.40       1.0  T
   3   -333.4710720  0.243502E-04  0.122E-02    0.41       1.0  T
   4   -333.4711018 -0.297820E-04  0.486E-03    0.40       1.5  T
   5   -333.4711035 -0.176302E-05  0.210E-03    0.40       3.4  T
   6   -333.4711042 -0.688805E-06  0.661E-04    0.40      10.9  T
   7   -333.4711043 -0.594770E-07  0.280E-04    0.40      25.6  T
     SCC iter.                  ...        0 min,  0.277 sec
     gradient                   ...        0 min,  0.128 sec
 * total energy  :  -328.3263800 Eh     change       -0.4892058E-03 Eh
   gradient norm :     0.0110359 Eh/α   predicted    -0.4872503E-03 (  -0.40%)
   displ. norm   :     0.4861135 α      lambda       -0.6959942E-03
   maximum displ.:     0.1848735 α      in ANC's #1, #4, #12, ...

........................................................................
.............................. CYCLE   48 ..............................
........................................................................
   1   -333.4663101 -0.333466E+03  0.794E-02    0.39       0.0  T
   2   -333.4663271 -0.169510E-04  0.414E-02    0.40       1.0  T
   3   -333.4663005  0.265634E-04  0.131E-02    0.39       1.0  T
   4   -333.4663330 -0.324613E-04  0.504E-03    0.40       1.4  T
   5   -333.4663341 -0.114923E-05  0.226E-03    0.40       3.2  T
   6   -333.4663350 -0.898456E-06  0.701E-04    0.40      10.2  T
   7   -333.4663351 -0.878654E-07  0.293E-04    0.40      24.5  T
     SCC iter.                  ...        0 min,  0.257 sec
     gradient                   ...        0 min,  0.128 sec
 * total energy  :  -328.3269249 Eh     change       -0.5448463E-03 Eh
   gradient norm :     0.0099195 Eh/α   predicted    -0.4302363E-03 ( -21.04%)
   displ. norm   :     0.6076644 α      lambda       -0.7551307E-03
   maximum displ.:     0.2450869 α      in ANC's #1, #4, #12, ...

........................................................................
.............................. CYCLE   49 ..............................
........................................................................
   1   -333.4651916 -0.333465E+03  0.815E-02    0.39       0.0  T
   2   -333.4652093 -0.177292E-04  0.418E-02    0.39       1.0  T
   3   -333.4651889  0.204365E-04  0.125E-02    0.39       1.0  T
   4   -333.4652146 -0.256886E-04  0.535E-03    0.39       1.3  T
   5   -333.4652159 -0.133265E-05  0.240E-03    0.39       3.0  T
   6   -333.4652169 -0.100258E-05  0.643E-04    0.39      11.2  T
   7   -333.4652170 -0.627706E-07  0.301E-04    0.39      23.9  T
   8   -333.4652170 -0.941935E-08  0.153E-04    0.39      47.0  T
     SCC iter.                  ...        0 min,  0.313 sec
     gradient                   ...        0 min,  0.128 sec
 * total energy  :  -328.3275360 Eh     change       -0.6111397E-03 Eh
   gradient norm :     0.0092639 Eh/α   predicted    -0.5169851E-03 ( -15.41%)
   displ. norm   :     0.6698203 α      lambda       -0.7124537E-03
   maximum displ.:     0.2815984 α      in ANC's #1, #4, #12, ...

........................................................................
.............................. CYCLE   50 ..............................
........................................................................
   1   -333.4672561 -0.333467E+03  0.755E-02    0.39       0.0  T
   2   -333.4672721 -0.160187E-04  0.382E-02    0.39       1.0  T
   3   -333.4672526  0.195074E-04  0.123E-02    0.39       1.0  T
   4   -333.4672766 -0.239145E-04  0.535E-03    0.39       1.3  T
   5   -333.4672776 -0.107939E-05  0.265E-03    0.39       2.7  T
   6   -333.4672789 -0.127548E-05  0.644E-04    0.39      11.2  T
   7   -333.4672790 -0.628975E-07  0.301E-04    0.39      23.8  T
   8   -333.4672790 -0.103483E-07  0.153E-04    0.39      47.0  T
     SCC iter.                  ...        0 min,  0.307 sec
     gradient                   ...        0 min,  0.128 sec
 * total energy  :  -328.3281665 Eh     change       -0.6305433E-03 Eh
   gradient norm :     0.0082637 Eh/α   predicted    -0.5160514E-03 ( -18.16%)
   displ. norm   :     0.7423118 α      lambda       -0.8107537E-03
   maximum displ.:     0.3223310 α      in ANC's #1, #4, #12, ...

........................................................................
.............................. CYCLE   51 ..............................
........................................................................
   1   -333.4718860 -0.333472E+03  0.754E-02    0.38       0.0  T
   2   -333.4719014 -0.154404E-04  0.381E-02    0.38       1.0  T
   3   -333.4718813  0.201259E-04  0.127E-02    0.38       1.0  T
   4   -333.4719055 -0.241973E-04  0.554E-03    0.38       1.3  T
   5   -333.4719066 -0.111826E-05  0.284E-03    0.38       2.5  T
   6   -333.4719081 -0.149841E-05  0.621E-04    0.38      11.6  T
   7   -333.4719081 -0.523606E-07  0.298E-04    0.38      24.1  T
   8   -333.4719081 -0.904049E-08  0.155E-04    0.38      46.3  T
     SCC iter.                  ...        0 min,  0.306 sec
     gradient                   ...        0 min,  0.128 sec
 * total energy  :  -328.3288983 Eh     change       -0.7317734E-03 Eh
   gradient norm :     0.0068433 Eh/α   predicted    -0.6287512E-03 ( -14.08%)
   displ. norm   :     0.8325998 α      lambda       -0.8768342E-03
   maximum displ.:     0.3642954 α      in ANC's #1, #4, #12, ...

........................................................................
.............................. CYCLE   52 ..............................
........................................................................
   1   -333.4734340 -0.333473E+03  0.878E-02    0.37       0.0  T
   2   -333.4734543 -0.202643E-04  0.446E-02    0.37       1.0  T
   3   -333.4734293  0.249944E-04  0.141E-02    0.38       1.0  T
   4   -333.4734589 -0.295864E-04  0.640E-03    0.37       1.1  T
   5   -333.4734609 -0.199661E-05  0.318E-03    0.38       2.3  T
   6   -333.4734627 -0.187919E-05  0.729E-04    0.38       9.9  T
   7   -333.4734628 -0.740126E-07  0.332E-04    0.38      21.7  T
   8   -333.4734628 -0.981959E-08  0.182E-04    0.38      39.5  T
     SCC iter.                  ...        0 min,  0.304 sec
     gradient                   ...        0 min,  0.128 sec
 * total energy  :  -328.3296936 Eh     change       -0.7952466E-03 Eh
   gradient norm :     0.0065019 Eh/α   predicted    -0.7423431E-03 (  -6.65%)
   displ. norm   :     0.8209833 α      lambda       -0.9648746E-03
   maximum displ.:     0.3739325 α      in ANC's #1, #4, #12, ...

........................................................................
.............................. CYCLE   53 ..............................
........................................................................
   1   -333.4790240 -0.333479E+03  0.834E-02    0.36       0.0  T
   2   -333.4790407 -0.166496E-04  0.438E-02    0.36       1.0  T
   3   -333.4790017  0.389381E-04  0.157E-02    0.36       1.0  T
   4   -333.4790461 -0.443335E-04  0.614E-03    0.36       1.2  T
   5   -333.4790485 -0.248365E-05  0.298E-03    0.36       2.4  T
   6   -333.4790500 -0.143958E-05  0.748E-04    0.36       9.6  T
   7   -333.4790500 -0.662003E-07  0.344E-04    0.36      20.9  T
   8   -333.4790501 -0.734400E-08  0.203E-04    0.36      35.4  T
     SCC iter.                  ...        0 min,  0.304 sec
     gradient                   ...        0 min,  0.128 sec
 * total energy  :  -328.3304936 Eh     change       -0.8000067E-03 Eh
   gradient norm :     0.0089918 Eh/α   predicted    -0.8076111E-03 (   0.95%)
   displ. norm   :     0.8959411 α      lambda       -0.9650000E-03
   maximum displ.:     0.3916130 α      in ANC's #1, #4, #12, ...

........................................................................
.............................. CYCLE   54 ..............................
........................................................................
   1   -333.4703920 -0.333470E+03  0.998E-02    0.35       0.0  T
   2   -333.4704185 -0.265283E-04  0.497E-02    0.35       1.0  T
   3   -333.4703925  0.259991E-04  0.154E-02    0.36       1.0  T
   4   -333.4704251 -0.325202E-04  0.702E-03    0.35       1.0  T
   5   -333.4704266 -0.158940E-05  0.348E-03    0.35       2.1  T
   6   -333.4704288 -0.213496E-05  0.959E-04    0.35       7.5  T
   7   -333.4704289 -0.154961E-06  0.367E-04    0.35      19.6  T
   8   -333.4704289 -0.101389E-07  0.202E-04    0.35      35.5  T
     SCC iter.                  ...        0 min,  0.302 sec
     gradient                   ...        0 min,  0.128 sec
 * total energy  :  -328.3312420 Eh     change       -0.7484382E-03 Eh
   gradient norm :     0.0106235 Eh/α   predicted    -0.8698101E-03 (  16.22%)
   displ. norm   :     0.7180032 α      lambda       -0.9618100E-03
   maximum displ.:     0.3304133 α      in ANC's #1, #4, #13, ...

........................................................................
.............................. CYCLE   55 ..............................
........................................................................
   1   -333.4734379 -0.333473E+03  0.777E-02    0.35       0.0  T
   2   -333.4734530 -0.151036E-04  0.408E-02    0.34       1.0  T
   3   -333.4734197  0.332159E-04  0.150E-02    0.35       1.0  T
   4   -333.4734588 -0.390989E-04  0.529E-03    0.35       1.4  T
   5   -333.4734599 -0.109947E-05  0.287E-03    0.35       2.5  T
   6   -333.4734614 -0.146811E-05  0.672E-04    0.35      10.7  T
   7   -333.4734615 -0.561180E-07  0.311E-04    0.35      23.1  T
   8   -333.4734615 -0.775469E-08  0.160E-04    0.35      44.9  T
     SCC iter.                  ...        0 min,  0.301 sec
     gradient                   ...        0 min,  0.128 sec
 * total energy  :  -328.3320154 Eh     change       -0.7733711E-03 Eh
   gradient norm :     0.0112202 Eh/α   predicted    -0.7288267E-03 (  -5.76%)
   displ. norm   :     0.7864871 α      lambda       -0.9336740E-03
   maximum displ.:     0.3616561 α      in ANC's #1, #4, #13, ...

........................................................................
.............................. CYCLE   56 ..............................
........................................................................
   1   -333.4711442 -0.333471E+03  0.857E-02    0.33       0.0  T
   2   -333.4711622 -0.179890E-04  0.455E-02    0.33       1.0  T
   3   -333.4711082  0.539539E-04  0.170E-02    0.34       1.0  T
   4   -333.4711692 -0.609665E-04  0.597E-03    0.34       1.2  T
   5   -333.4711721 -0.291408E-05  0.283E-03    0.34       2.5  T
   6   -333.4711733 -0.120544E-05  0.723E-04    0.34       9.9  T
   7   -333.4711734 -0.675729E-07  0.350E-04    0.34      20.5  T
   8   -333.4711734 -0.117016E-07  0.199E-04    0.34      36.0  T
     SCC iter.                  ...        0 min,  0.301 sec
     gradient                   ...        0 min,  0.128 sec
 * total energy  :  -328.3328019 Eh     change       -0.7865332E-03 Eh
   gradient norm :     0.0111925 Eh/α   predicted    -0.7556180E-03 (  -3.93%)
   displ. norm   :     0.8222322 α      lambda       -0.9222557E-03
   maximum displ.:     0.3858078 α      in ANC's #1, #4, #13, ...

........................................................................
.............................. CYCLE   57 ..............................
........................................................................
   1   -333.4747686 -0.333475E+03  0.778E-02    0.32       0.0  T
   2   -333.4747829 -0.142448E-04  0.401E-02    0.33       1.0  T
   3   -333.4747405  0.423887E-04  0.164E-02    0.33       1.0  T
   4   -333.4747893 -0.487714E-04  0.594E-03    0.33       1.2  T
   5   -333.4747909 -0.159773E-05  0.314E-03    0.33       2.3  T
   6   -333.4747925 -0.158328E-05  0.748E-04    0.33       9.6  T
   7   -333.4747925 -0.765106E-07  0.318E-04    0.33      22.5  T
   8   -333.4747925 -0.866441E-08  0.166E-04    0.33      43.4  T
     SCC iter.                  ...        0 min,  0.302 sec
     gradient                   ...        0 min,  0.127 sec
 * total energy  :  -328.3335812 Eh     change       -0.7792941E-03 Eh
   gradient norm :     0.0083284 Eh/α   predicted    -0.7728899E-03 (  -0.82%)
   displ. norm   :     0.8653524 α      lambda       -0.9362519E-03
   maximum displ.:     0.4035510 α      in ANC's #1, #4, #13, ...

........................................................................
.............................. CYCLE   58 ..............................
........................................................................
   1   -333.4736044 -0.333474E+03  0.778E-02    0.32       0.0  T
   2   -333.4736214 -0.169678E-04  0.400E-02    0.32       1.0  T
[...]
   120   6 C    3.987 --   121 C    1.925   119 C    1.010   189 H    0.971
   121   6 C    3.987 --   120 C    1.925   122 C    1.010   190 H    0.971
   122   6 C    3.989 --   121 C    1.010   123 C    0.985   191 H    0.972
                           124 C    0.947
   123   6 C    3.993 --   119 C    0.985   122 C    0.985   193 H    0.978
                           192 H    0.976
   124   6 C    3.984 --   108 C    0.996   118 C    0.978   194 H    0.960
                           122 C    0.947
   125   1 H    0.988 --     1 C    0.928
   126   1 H    0.995 --     6 C    0.959
   127   1 H    0.996 --     9 C    0.959
   128   1 H    0.997 --    17 C    0.961
   129   1 H    0.998 --    18 C    0.971
   130   1 H    0.998 --    19 C    0.971
   131   1 H    0.998 --    20 C    0.971
   132   1 H    0.998 --    21 C    0.970
   133   1 H    0.999 --    22 C    0.974
   134   1 H    0.998 --    22 C    0.978
   135   1 H    0.996 --    23 C    0.961
   136   1 H    0.997 --    32 C    0.972
   137   1 H    0.993 --    32 C    0.954
   138   1 H    0.997 --    33 C    0.986
   139   1 H    0.998 --    33 C    0.988
   140   1 H    0.997 --    33 C    0.984
   141   1 H    0.992 --    36 C    0.942
   142   1 H    0.992 --    36 C    0.940
   143   1 H    0.998 --    37 C    0.986
   144   1 H    0.998 --    37 C    0.982
   145   1 H    0.997 --    37 C    0.985
   146   1 H    0.998 --    46 C    0.966
   147   1 H    0.998 --    47 C    0.968
   148   1 H    0.996 --    50 C    0.980
   149   1 H    0.996 --    50 C    0.982
   150   1 H    0.997 --    50 C    0.983
   151   1 H    0.998 --    51 C    0.965
   152   1 H    0.999 --    52 C    0.965
   153   1 H    0.998 --    54 C    0.967
   154   1 H    0.998 --    55 C    0.968
   155   1 H    0.997 --    58 C    0.982
   156   1 H    0.996 --    58 C    0.978
   157   1 H    0.995 --    58 C    0.975
   158   1 H    0.999 --    59 C    0.965
   159   1 H    0.999 --    60 C    0.964
   160   1 H    0.998 --    67 C    0.967
   161   1 H    0.997 --    68 C    0.967
   162   1 H    0.995 --    71 C    0.979
   163   1 H    0.996 --    71 C    0.982
   164   1 H    0.996 --    71 C    0.982
   165   1 H    0.998 --    72 C    0.965
   166   1 H    0.996 --    73 C    0.962
   167   1 H    0.998 --    75 C    0.963
   168   1 H    0.998 --    76 C    0.967
   169   1 H    0.997 --    79 C    0.980
   170   1 H    0.995 --    79 C    0.978
   171   1 H    0.996 --    79 C    0.981
   172   1 H    0.998 --    80 C    0.965
   173   1 H    0.998 --    81 C    0.967
   174   1 H    0.993 --    92 C    0.953
   175   1 H    0.997 --    92 C    0.971
   176   1 H    0.998 --    93 C    0.988
   177   1 H    0.997 --    93 C    0.984
   178   1 H    0.998 --    93 C    0.985
   179   1 H    0.993 --    96 C    0.945
   180   1 H    0.993 --    96 C    0.948
   181   1 H    0.998 --    97 C    0.987
   182   1 H    0.997 --    97 C    0.985
   183   1 H    0.998 --    97 C    0.982
   184   1 H    0.991 --   102 C    0.946
   185   1 H    0.996 --   107 C    0.963
   186   1 H    0.996 --   110 C    0.959
   187   1 H    0.997 --   118 C    0.960
   188   1 H    0.998 --   119 C    0.972
   189   1 H    0.999 --   120 C    0.971
   190   1 H    0.999 --   121 C    0.971
   191   1 H    0.998 --   122 C    0.972
   192   1 H    0.996 --   123 C    0.976
   193   1 H    0.998 --   123 C    0.978
   194   1 H    0.996 --   124 C    0.960
 ---------------------------------------------------------------------------

Topologies differ in bond orders
Writing corrected topology to xtbtopo.mol

molecular dipole:
                 x           y           z       tot (Debye)
 q only:        1.550      -0.215       0.482
   full:        1.477      -0.134       1.345       5.089
molecular quadrupole (traceless):
                xx          xy          yy          xz          yz          zz
 q only:       21.970     -29.459     -17.686     -13.018     -25.704      -4.284
  q+dip:       21.807     -19.871      -3.969      -7.336     -17.331     -17.838
   full:       16.469     -18.863      -1.670     -10.924     -15.525     -14.799

           -------------------------------------------------
          |                Geometry Summary                 |
           -------------------------------------------------

      molecular mass/u    :     1796.3354372
   center of mass at/Å    :       -0.5982467       0.2094366      -0.4563714
  moments of inertia/u·Å² :        0.3291836E+05   0.9615923E+05   0.1125733E+06
rotational constants/cm⁻¹ :        0.5121042E-03   0.1753096E-03   0.1497480E-03

 * 182 selected distances

     #   Z          #   Z                                           value/Å
     1   6 C        2   6 C                                       1.3629396
     3   6 C        4   8 O                                       1.2176562
     5   6 C        6   6 C                                       1.3936569
     6   6 C        7   6 C                                       1.3731425
     7   6 C        8   6 C                                       1.4028186
     8   6 C        9   6 C                                       1.3755803
     5   6 C       10   6 C                                       1.4115034
     9   6 C       10   6 C                                       1.3989688
    11   6 C       12   6 C                                       1.3668229
    13   6 C       14   7 N                                       1.1477917
    15   6 C       16   7 N                                       1.1473456
     8   6 C       17   6 C                                       1.5089944
    17   6 C       18   6 C                                       1.5439386
    19   6 C       20   6 C                                       1.3269627
    18   6 C       22   6 C                                       1.5343023
    21   6 C       22   6 C                                       1.5343202
     7   6 C       23   6 C                                       1.5060963
    17   6 C       23   6 C                                       1.5628357
    21   6 C       23   6 C                                       1.5429192
     1   6 C       24   6 C                                       1.4149529
    24   6 C       25  16 S                                       1.7373613
    25  16 S       26   6 C                                       1.7254084
    26   6 C       27   6 C                                       1.3822322
    28   6 C       29   8 O                                       1.2199436
    30   6 C       31   6 C                                       1.3717199
    31   6 C       32   6 C                                       1.4850390
    32   6 C       33   6 C                                       1.5318390
    31   6 C       34  16 S                                       1.7286775
    34  16 S       35   6 C                                       1.7279587
    35   6 C       36   6 C                                       1.4845440
    36   6 C       37   6 C                                       1.5221030
    30   6 C       38   6 C                                       1.4341710
    35   6 C       38   6 C                                       1.3765090
    39   6 C       40   8 O                                       1.2252468
    24   6 C       41   6 C                                       1.3997505
    27   6 C       41   6 C                                       1.4129277
    26   6 C       42   6 C                                       1.4397902
    42   6 C       43   6 C                                       1.3848190
    43   6 C       44   7 N                                       1.3976231
    44   7 N       45   6 C                                       1.3975162
    45   6 C       46   6 C                                       1.3955568
    46   6 C       47   6 C                                       1.3763210
    47   6 C       48   6 C                                       1.3928967
    48   6 C       51   6 C                                       1.3864973
    45   6 C       52   6 C                                       1.3915671
    51   6 C       52   6 C                                       1.3805907
    44   7 N       53   6 C                                       1.4040440
    53   6 C       54   6 C                                       1.3969146
    54   6 C       55   6 C                                       1.3761624
    55   6 C       56   6 C                                       1.3937409
    56   6 C       59   6 C                                       1.3875914
    53   6 C       60   6 C                                       1.3931101
    59   6 C       60   6 C                                       1.3816275
    43   6 C       61   6 C                                       1.4096574
    61   6 C       62  16 S                                       1.7219360
    63   6 C       64   6 C                                       1.3939211
    64   6 C       65   7 N                                       1.3762767
    65   7 N       66   6 C                                       1.4093818
    66   6 C       67   6 C                                       1.3938755
    67   6 C       68   6 C                                       1.3765236
    68   6 C       69   6 C                                       1.3942050
    69   6 C       72   6 C                                       1.3881832
    66   6 C       73   6 C                                       1.3904365
    72   6 C       73   6 C                                       1.3814917
    65   7 N       74   6 C                                       1.3973466
    74   6 C       75   6 C                                       1.3962843
    75   6 C       76   6 C                                       1.3774083
    76   6 C       77   6 C                                       1.3918903
    77   6 C       80   6 C                                       1.3904942
    74   6 C       81   6 C                                       1.3952469
    80   6 C       81   6 C                                       1.3797786
    61   6 C       82   6 C                                       1.3886938
    64   6 C       82   6 C                                       1.4194099
    42   6 C       83  16 S                                       1.7382476
    82   6 C       83  16 S                                       1.7337139
    63   6 C       84   6 C                                       1.4214770
    84   6 C       85  16 S                                       1.7348976
    85  16 S       86   6 C                                       1.7386509 (max)
    86   6 C       87   6 C                                       1.3884932
    88   6 C       89   8 O                                       1.2253924
    90   6 C       91   6 C                                       1.3744921
    91   6 C       92   6 C                                       1.4848188
    92   6 C       93   6 C                                       1.5313510
    91   6 C       94  16 S                                       1.7261282
    94  16 S       95   6 C                                       1.7358115
    95   6 C       96   6 C                                       1.4860529
    96   6 C       97   6 C                                       1.5254005
    90   6 C       98   6 C                                       1.4328957
    95   6 C       98   6 C                                       1.3708037
    99   6 C      100   8 O                                       1.2224638
    84   6 C      101   6 C                                       1.3876492
    87   6 C      101   6 C                                       1.4204217
    86   6 C      102   6 C                                       1.4269505
   102   6 C      103   6 C                                       1.3514196
   104   6 C      105   8 O                                       1.2096735
   106   6 C      107   6 C                                       1.3939244
   107   6 C      108   6 C                                       1.3736739
   108   6 C      109   6 C                                       1.4024649
   109   6 C      110   6 C                                       1.3736164
   106   6 C      111   6 C                                       1.4124768
   110   6 C      111   6 C                                       1.3971543
   112   6 C      113   6 C                                       1.3681170
   114   6 C      115   7 N                                       1.1481445
   116   6 C      117   7 N                                       1.1481429
   109   6 C      118   6 C                                       1.5076997
   118   6 C      119   6 C                                       1.5487419
   120   6 C      121   6 C                                       1.3263248
   119   6 C      123   6 C                                       1.5369312
   122   6 C      123   6 C                                       1.5370540
   108   6 C      124   6 C                                       1.5081241
   118   6 C      124   6 C                                       1.5613676
   122   6 C      124   6 C                                       1.5493173
     1   6 C      125   1 H                                       1.0846914
     6   6 C      126   1 H                                       1.0782406
     9   6 C      127   1 H                                       1.0775859
    17   6 C      128   1 H                                       1.0882434
    18   6 C      129   1 H                                       1.0865720
    19   6 C      130   1 H                                       1.0741506
    20   6 C      131   1 H                                       1.0740934 (min)
    21   6 C      132   1 H                                       1.0862800
    22   6 C      133   1 H                                       1.0884575
    22   6 C      134   1 H                                       1.0886891
    23   6 C      135   1 H                                       1.0878414
    32   6 C      136   1 H                                       1.0917223
    32   6 C      137   1 H                                       1.0916875
    33   6 C      138   1 H                                       1.0867088
    33   6 C      139   1 H                                       1.0879993
    33   6 C      140   1 H                                       1.0864322
    36   6 C      141   1 H                                       1.0921657
    36   6 C      142   1 H                                       1.0956913
    37   6 C      143   1 H                                       1.0880241
    37   6 C      144   1 H                                       1.0882481
    37   6 C      145   1 H                                       1.0868789
    46   6 C      146   1 H                                       1.0796635
    47   6 C      147   1 H                                       1.0796826
    50   6 C      148   1 H                                       1.0856983
    50   6 C      149   1 H                                       1.0858027
    50   6 C      150   1 H                                       1.0863937
    51   6 C      151   1 H                                       1.0777836
    52   6 C      152   1 H                                       1.0791761
    54   6 C      153   1 H                                       1.0792047
    55   6 C      154   1 H                                       1.0793488
    58   6 C      155   1 H                                       1.0862494
    58   6 C      156   1 H                                       1.0857062
    58   6 C      157   1 H                                       1.0867505
    59   6 C      158   1 H                                       1.0784372
    60   6 C      159   1 H                                       1.0798624
    67   6 C      160   1 H                                       1.0797853
    68   6 C      161   1 H                                       1.0790570
    71   6 C      162   1 H                                       1.0855716
    71   6 C      163   1 H                                       1.0858054
    71   6 C      164   1 H                                       1.0862085
    72   6 C      165   1 H                                       1.0778405
    73   6 C      166   1 H                                       1.0787150
    75   6 C      167   1 H                                       1.0787340
    76   6 C      168   1 H                                       1.0794328
    79   6 C      169   1 H                                       1.0860806
    79   6 C      170   1 H                                       1.0854876
    79   6 C      171   1 H                                       1.0857340
    80   6 C      172   1 H                                       1.0784271
    81   6 C      173   1 H                                       1.0798617
    92   6 C      174   1 H                                       1.0916903
    92   6 C      175   1 H                                       1.0916555
    93   6 C      176   1 H                                       1.0878971
    93   6 C      177   1 H                                       1.0865755
    93   6 C      178   1 H                                       1.0865626
    96   6 C      179   1 H                                       1.0951528
    96   6 C      180   1 H                                       1.0926682
    97   6 C      181   1 H                                       1.0880910
    97   6 C      182   1 H                                       1.0868378
    97   6 C      183   1 H                                       1.0882086
   102   6 C      184   1 H                                       1.0867666
   107   6 C      185   1 H                                       1.0788690
   110   6 C      186   1 H                                       1.0774604
   118   6 C      187   1 H                                       1.0881059
   119   6 C      188   1 H                                       1.0866069
   120   6 C      189   1 H                                       1.0742272
   121   6 C      190   1 H                                       1.0742897
   122   6 C      191   1 H                                       1.0868067
   123   6 C      192   1 H                                       1.0888635
   123   6 C      193   1 H                                       1.0891649
   124   6 C      194   1 H                                       1.0882663

 * 5 distinct bonds (by element types)

   Z      Z             #   av. dist./Å        max./Å        min./Å
   1 H    6 C          70     1.0845953     1.0956913     1.0740934
   6 C    6 C          85     1.4247705     1.5628357     1.3263248
   6 C    7 N          10     1.2973613     1.4093818     1.1473456
   6 C    8 O           6     1.2200627     1.2253924     1.2096735
   6 C   16 S          11     1.7317083     1.7386509     1.7219360


optimized geometry written to: xtbopt.mol


           -------------------------------------------------
          | TOTAL ENERGY             -328.378390324922 Eh   |
          | GRADIENT NORM               0.000537322859 Eh/α |
          | HOMO-LUMO GAP               0.328825984157 eV   |
           -------------------------------------------------

------------------------------------------------------------------------
 * finished run on 2022/02/05 at 13:34:07.591     
------------------------------------------------------------------------
 total:
 * wall-time:     0 d,  0 h,  2 min, 29.096 sec
 *  cpu-time:     0 d,  0 h, 19 min, 52.585 sec
 * ratio c/w:     7.999 speedup
 SCF:
 * wall-time:     0 d,  0 h,  0 min,  0.725 sec
 *  cpu-time:     0 d,  0 h,  0 min,  5.787 sec
 * ratio c/w:     7.977 speedup
 ANC optimizer:
 * wall-time:     0 d,  0 h,  2 min, 28.269 sec
 *  cpu-time:     0 d,  0 h, 19 min, 46.076 sec
 * ratio c/w:     7.999 speedup

