      -----------------------------------------------------------      
     |                   =====================                   |     
     |                           x T B                           |     
     |                   =====================                   |     
     |                         S. Grimme                         |     
     |          Mulliken Center for Theoretical Chemistry        |     
     |                    University of Bonn                     |     
      -----------------------------------------------------------      

   * xtb version 6.4.1 (unknown) compiled by 'oda6@login1.crc.pitt.edu' on 2021-06-25

   xtb is free software: you can redistribute it and/or modify it under
   the terms of the GNU Lesser General Public License as published by
   the Free Software Foundation, either version 3 of the License, or
   (at your option) any later version.
   
   xtb is distributed in the hope that it will be useful,
   but WITHOUT ANY WARRANTY; without even the implied warranty of
   MERCHANTABILITY or FITNESS FOR A PARTICULAR PURPOSE.  See the
   GNU Lesser General Public License for more details.
   
   Cite this work as:
   * C. Bannwarth, E. Caldeweyher, S. Ehlert, A. Hansen, P. Pracht,
     J. Seibert, S. Spicher, S. Grimme, WIREs Comput. Mol. Sci., 2020, 11,
     e01493. DOI: 10.1002/wcms.1493
   
   for GFN2-xTB:
   * C. Bannwarth, S. Ehlert and S. Grimme., J. Chem. Theory Comput., 2019,
     15, 1652-1671. DOI: 10.1021/acs.jctc.8b01176
   for GFN1-xTB:
   * S. Grimme, C. Bannwarth, P. Shushkov, J. Chem. Theory Comput., 2017,
     13, 1989-2009. DOI: 10.1021/acs.jctc.7b00118
   for GFN0-xTB:
   * P. Pracht, E. Caldeweyher, S. Ehlert, S. Grimme, ChemRxiv, 2019, preprint.
     DOI: 10.26434/chemrxiv.8326202.v1
   for GFN-FF:
   * S. Spicher and S. Grimme, Angew. Chem. Int. Ed., 2020, 59, 15665-15673.
     DOI: 10.1002/anie.202004239
   
   for DFT-D4:
   * E. Caldeweyher, C. Bannwarth and S. Grimme, J. Chem. Phys., 2017,
     147, 034112. DOI: 10.1063/1.4993215
   * E. Caldeweyher, S. Ehlert, A. Hansen, H. Neugebauer, S. Spicher,
     C. Bannwarth and S. Grimme, J. Chem. Phys., 2019, 150, 154122.
     DOI: 10.1063/1.5090222
   * E. Caldeweyher, J.-M. Mewes, S. Ehlert and S. Grimme, Phys. Chem. Chem. Phys.
     2020, 22, 8499-8512. DOI: 10.1039/D0CP00502A
   
   for sTDA-xTB:
   * S. Grimme and C. Bannwarth, J. Chem. Phys., 2016, 145, 054103.
     DOI: 10.1063/1.4959605
   
   in the mass-spec context:
   * V. Asgeirsson, C. Bauer and S. Grimme, Chem. Sci., 2017, 8, 4879.
     DOI: 10.1039/c7sc00601b
   * J. Koopman and S. Grimme, ACS Omega 2019, 4, 12, 15120-15133.
     DOI: 10.1021/acsomega.9b02011
   
   for metadynamics refer to:
   * S. Grimme, J. Chem. Theory Comput., 2019, 155, 2847-2862
     DOI: 10.1021/acs.jctc.9b00143
   
   for SPH calculations refer to:
   * S. Spicher and S. Grimme, J. Chem. Theory Comput., 2021, 17, 1701-1714
     DOI: 10.1021/acs.jctc.0c01306
   
   with help from (in alphabetical order)
   P. Atkinson, C. Bannwarth, F. Bohle, G. Brandenburg, E. Caldeweyher
   M. Checinski, S. Dohm, S. Ehlert, S. Ehrlich, I. Gerasimov, J. Koopman
   C. Lavigne, S. Lehtola, F. März, M. Müller, F. Musil, H. Neugebauer
   J. Pisarek, C. Plett, P. Pracht, J. Seibert, P. Shushkov, S. Spicher
   M. Stahn, M. Steiner, T. Strunk, J. Stückrath, T. Rose, and J. Unsleber
   
 * started run on 2022/02/12 at 13:55:37.426     

           -------------------------------------------------
          |                Calculation Setup                |
           -------------------------------------------------

          program call               : /ihome/ghutchison/oda6/xtb/xtb-641/bin/xtb ../../FF_optimized/39_132_135_130_39.mol -opt
          hostname                   : smp-n25
          coordinate file            : ../../FF_optimized/39_132_135_130_39.mol
          omp threads                :                     8
          number of atoms            :                   185
          number of electrons        :                   580
          charge                     :                     0
          spin                       :                   0.0
          first test random number   :      0.01881666183444

   ID    Z sym.   atoms
    1    6 C      1-3, 5-13, 15, 17-25, 27, 28, 30, 31, 33-36, 39, 40, 42-44,
                  46-49, 51-53, 55, 56, 58-61, 63-69, 71-74, 76, 77, 79-82,
                  84-90, 92-95, 97-99, 101-109, 111, 113-119
    2    8 O      4, 29, 100
    3    7 N      14, 16, 26, 32, 41, 54, 57, 78, 110, 112
    4    9 F      37, 38
    5   16 S      45, 50, 62, 70, 75, 83, 91, 96
    6    1 H      120-185
########################################################################
[WARNING] Please study the warnings concerning your input carefully
-1- prog_main_parseArguments: the use of '-opt' is discouraged, please use '--opt' next time
########################################################################

           -------------------------------------------------
          |                 G F N 2 - x T B                 |
           -------------------------------------------------

        Reference                      10.1021/acs.jctc.8b01176
      * Hamiltonian:
        H0-scaling (s, p, d)           1.850000    2.230000    2.230000
        zeta-weighting                 0.500000
      * Dispersion:
        s8                             2.700000
        a1                             0.520000
        a2                             5.000000
        s9                             5.000000
      * Repulsion:
        kExp                           1.500000    1.000000
        rExp                           1.000000
      * Coulomb:
        alpha                          2.000000
        third order                    shell-resolved
        anisotropic                    true
        a3                             3.000000
        a5                             4.000000
        cn-shift                       1.200000
        cn-exp                         4.000000
        max-rad                        5.000000


          ...................................................
          :                      SETUP                      :
          :.................................................:
          :  # basis functions                 590          :
          :  # atomic orbitals                 582          :
          :  # shells                          312          :
          :  # electrons                       580          :
          :  max. iterations                   250          :
          :  Hamiltonian                  GFN2-xTB          :
          :  restarted?                      false          :
          :  GBSA solvation                  false          :
          :  PC potential                    false          :
          :  electronic temp.          300.0000000     K    :
          :  accuracy                    1.0000000          :
          :  -> integral cutoff          0.2500000E+02      :
          :  -> integral neglect         0.1000000E-07      :
          :  -> SCF convergence          0.1000000E-05 Eh   :
          :  -> wf. convergence          0.1000000E-03 e    :
          :  Broyden damping             0.4000000          :
          ...................................................

 iter      E             dE          RMSdq      gap      omega  full diag
   1   -319.9409776 -0.319941E+03  0.481E+00    1.23       0.0  T
   2   -320.1331247 -0.192147E+00  0.289E+00    1.18       1.0  T
   3   -319.7132734  0.419851E+00  0.200E+00    0.48       1.0  T
   4   -320.2538028 -0.540529E+00  0.643E-01    0.52       1.0  T
   5   -320.3063486 -0.525458E-01  0.211E-01    0.45       1.0  T
   6   -320.3081059 -0.175732E-02  0.116E-01    0.51       1.0  T
   7   -320.3097441 -0.163819E-02  0.480E-02    0.53       1.0  T
   8   -320.3100003 -0.256267E-03  0.235E-02    0.54       1.0  T
   9   -320.3100538 -0.534376E-04  0.125E-02    0.54       1.0  T
  10   -320.3100654 -0.115957E-04  0.591E-03    0.54       1.2  T
  11   -320.3100690 -0.365430E-05  0.240E-03    0.54       3.1  T
  12   -320.3100697 -0.666103E-06  0.117E-03    0.54       6.3  T
  13   -320.3100698 -0.803204E-07  0.555E-04    0.54      13.2  T
  14   -320.3100698 -0.223395E-07  0.301E-04    0.54      24.4  T

   *** convergence criteria satisfied after 14 iterations ***

         #    Occupation            Energy/Eh            Energy/eV
      -------------------------------------------------------------
         1        2.0000           -0.8320489             -22.6412
       ...           ...                  ...                  ...
       284        2.0000           -0.3810414             -10.3687
       285        2.0000           -0.3711358             -10.0991
       286        2.0000           -0.3687851             -10.0352
       287        2.0000           -0.3652444              -9.9388
       288        2.0000           -0.3604946              -9.8096
       289        2.0000           -0.3596256              -9.7859
       290        1.9999           -0.3571760              -9.7193 (HOMO)
       291        0.0001           -0.3372693              -9.1776 (LUMO)
       292        0.0000           -0.3319017              -9.0315
       293                         -0.3278451              -8.9211
       294                         -0.3207605              -8.7283
       295                         -0.3194871              -8.6937
       ...                                ...                  ...
       582                          1.0701130              29.1193
      -------------------------------------------------------------
                  HL-Gap            0.0199067 Eh            0.5417 eV
             Fermi-level           -0.3471763 Eh           -9.4471 eV

 SCC (total)                   0 d,  0 h,  0 min,  2.255 sec
 SCC setup                      ...        0 min,  0.004 sec (  0.157%)
 Dispersion                     ...        0 min,  0.010 sec (  0.463%)
 classical contributions        ...        0 min,  0.001 sec (  0.044%)
 integral evaluation            ...        0 min,  0.058 sec (  2.558%)
 iterations                     ...        0 min,  2.050 sec ( 90.919%)
 molecular gradient             ...        0 min,  0.127 sec (  5.626%)
 printout                       ...        0 min,  0.005 sec (  0.229%)

         :::::::::::::::::::::::::::::::::::::::::::::::::::::
         ::                     SUMMARY                     ::
         :::::::::::::::::::::::::::::::::::::::::::::::::::::
         :: total energy            -315.729789273578 Eh    ::
         :: gradient norm              0.347142023419 Eh/a0 ::
         :: HOMO-LUMO gap              0.541688914023 eV    ::
         ::.................................................::
         :: SCC energy              -320.310069793265 Eh    ::
         :: -> isotropic ES            0.184376257443 Eh    ::
         :: -> anisotropic ES          0.024580803197 Eh    ::
         :: -> anisotropic XC          0.213888458640 Eh    ::
         :: -> dispersion             -0.295186712573 Eh    ::
         :: repulsion energy           4.570941955507 Eh    ::
         :: add. restraining           0.000000000000 Eh    ::
         :: total charge              -0.000000000000 e     ::
         :::::::::::::::::::::::::::::::::::::::::::::::::::::

      ----------------------------------------------------------- 
     |                   =====================                   |
     |                        A N C O P T                        |
     |                   =====================                   |
     |               Approximate Normal Coordinate               |
     |                Rational Function Optimizer                |
      ----------------------------------------------------------- 

          ...................................................
          :                      SETUP                      :
          :.................................................:
          :   optimization level            normal          :
          :   max. optcycles                   555          :
          :   ANC micro-cycles                  20          :
          :   degrees of freedom               549          :
          :.................................................:
          :   RF solver                   davidson          :
          :   write xtbopt.log                true          :
          :   linear?                        false          :
          :   energy convergence         0.5000000E-05 Eh   :
          :   grad. convergence          0.1000000E-02 Eh/α :
          :   maximium RF displ.         1.0000000          :
          :   Hlow (freq-cutoff)         0.1000000E-01      :
          :   Hmax (freq-cutoff)         5.0000000          :
          :   S6 in model hess.         20.0000000          :
          ...................................................

generating ANC from model Hessian ...
Using Lindh-Hessian (1995)
 Shifting diagonal of input Hessian by   1.011039266732701E-002
 Lowest  eigenvalues of input Hessian
    0.010000    0.010109    0.000000    0.000000    0.000000    0.000000
    0.000000    0.000000    0.010117    0.010123    0.010136    0.010140
    0.010175    0.010184    0.010192    0.010203    0.010216    0.010232
 Highest eigenvalues
    2.161558    2.179656    2.496304    2.501044    2.543262    2.552212
 

........................................................................
.............................. CYCLE    1 ..............................
........................................................................
   1   -320.3100698 -0.320310E+03  0.123E-04    0.54       0.0  T
   2   -320.3100698  0.629825E-09  0.113E-04    0.54      64.8  T
   3   -320.3100698 -0.231046E-08  0.534E-05    0.54     137.7  T
     SCC iter.                  ...        0 min,  0.250 sec
     gradient                   ...        0 min,  0.122 sec
 * total energy  :  -315.7297893 Eh     change       -0.9749840E-08 Eh
   gradient norm :     0.3471439 Eh/α   predicted     0.0000000E+00 (-100.00%)
   displ. norm   :     0.4877179 α      lambda       -0.1196316E+00
   maximum displ.:     0.1007379 α      in ANC's #302, #196, #342, ...

........................................................................
.............................. CYCLE    2 ..............................
........................................................................
   1   -320.5514006 -0.320551E+03  0.246E-01    0.56       0.0  T
   2   -320.5532481 -0.184747E-02  0.155E-01    0.59       1.0  T
   3   -320.5533488 -0.100740E-03  0.881E-02    0.59       1.0  T
   4   -320.5537495 -0.400690E-03  0.411E-02    0.58       1.0  T
   5   -320.5540408 -0.291288E-03  0.136E-02    0.59       1.0  T
   6   -320.5540670 -0.261728E-04  0.571E-03    0.59       1.3  T
   7   -320.5540694 -0.245097E-05  0.276E-03    0.59       2.7  T
   8   -320.5540705 -0.106550E-05  0.122E-03    0.59       6.1  T
   9   -320.5540706 -0.959368E-07  0.663E-04    0.59      11.1  T
  10   -320.5540706 -0.227382E-07  0.318E-04    0.59      23.1  T
     SCC iter.                  ...        0 min,  0.946 sec
     gradient                   ...        0 min,  0.136 sec
 * total energy  :  -315.8189027 Eh     change       -0.8911337E-01 Eh
   gradient norm :     0.1730755 Eh/α   predicted    -0.7409078E-01 ( -16.86%)
   displ. norm   :     0.5007126 α      lambda       -0.5665013E-01
   maximum displ.:     0.0948026 α      in ANC's #196, #106, #79, ...

........................................................................
.............................. CYCLE    3 ..............................
........................................................................
   1   -320.7089196 -0.320709E+03  0.224E-01    0.57       0.0  T
   2   -320.7107746 -0.185499E-02  0.140E-01    0.60       1.0  T
   3   -320.7111382 -0.363607E-03  0.818E-02    0.60       1.0  T
   4   -320.7113862 -0.247966E-03  0.424E-02    0.60       1.0  T
   5   -320.7116890 -0.302881E-03  0.146E-02    0.60       1.0  T
   6   -320.7117208 -0.317141E-04  0.581E-03    0.60       1.3  T
   7   -320.7117235 -0.276608E-05  0.315E-03    0.60       2.3  T
   8   -320.7117250 -0.142633E-05  0.118E-03    0.60       6.2  T
   9   -320.7117250 -0.744657E-07  0.667E-04    0.60      11.0  T
  10   -320.7117250 -0.150862E-07  0.331E-04    0.60      22.2  T
     SCC iter.                  ...        0 min,  0.857 sec
     gradient                   ...        0 min,  0.117 sec
 * total energy  :  -315.8544916 Eh     change       -0.3558896E-01 Eh
   gradient norm :     0.0494260 Eh/α   predicted    -0.3542656E-01 (  -0.46%)
   displ. norm   :     0.5538363 α      lambda       -0.1554442E-01
   maximum displ.:     0.1613108 α      in ANC's #82, #106, #79, ...

........................................................................
.............................. CYCLE    4 ..............................
........................................................................
   1   -320.7525232 -0.320753E+03  0.180E-01    0.61       0.0  T
   2   -320.7527220 -0.198741E-03  0.107E-01    0.61       1.0  T
   3   -320.7518180  0.904035E-03  0.685E-02    0.62       1.0  T
   4   -320.7528610 -0.104309E-02  0.203E-02    0.61       1.0  T
   5   -320.7529471 -0.860184E-04  0.761E-03    0.61       1.0  T
   6   -320.7529545 -0.741312E-05  0.322E-03    0.61       2.3  T
   7   -320.7529550 -0.561622E-06  0.159E-03    0.61       4.6  T
   8   -320.7529553 -0.301284E-06  0.625E-04    0.61      11.8  T
   9   -320.7529554 -0.122433E-07  0.361E-04    0.61      20.4  T
     SCC iter.                  ...        0 min,  0.958 sec
     gradient                   ...        0 min,  0.117 sec
 * total energy  :  -315.8643220 Eh     change       -0.9830361E-02 Eh
   gradient norm :     0.0344925 Eh/α   predicted    -0.1015630E-01 (   3.32%)
   displ. norm   :     0.7162674 α      lambda       -0.1396706E-01
   maximum displ.:     0.2299114 α      in ANC's #79, #106, #1, ...

........................................................................
.............................. CYCLE    5 ..............................
........................................................................
   1   -320.7834374 -0.320783E+03  0.315E-01    0.60       0.0  T
   2   -320.7837424 -0.304955E-03  0.178E-01    0.59       1.0  T
   3   -320.7819536  0.178874E-02  0.896E-02    0.60       1.0  T
   4   -320.7839658 -0.201222E-02  0.184E-02    0.59       1.0  T
   5   -320.7840260 -0.601213E-04  0.909E-03    0.59       1.0  T
   6   -320.7840359 -0.998030E-05  0.403E-03    0.59       1.8  T
   7   -320.7840372 -0.123620E-05  0.168E-03    0.59       4.4  T
   8   -320.7840375 -0.353823E-06  0.727E-04    0.59      10.1  T
   9   -320.7840376 -0.218266E-07  0.415E-04    0.59      17.7  T
     SCC iter.                  ...        0 min,  0.976 sec
     gradient                   ...        0 min,  0.117 sec
 * total energy  :  -315.8677590 Eh     change       -0.3437027E-02 Eh
   gradient norm :     0.0412966 Eh/α   predicted    -0.1056647E-01 ( 207.43%)
   displ. norm   :     0.3675984 α      lambda       -0.7655349E-02
   maximum displ.:     0.0870031 α      in ANC's #59, #82, #32, ...

........................................................................
.............................. CYCLE    6 ..............................
........................................................................
   1   -320.7939009 -0.320794E+03  0.156E-01    0.60       0.0  T
   2   -320.7939580 -0.571110E-04  0.874E-02    0.61       1.0  T
   3   -320.7937328  0.225185E-03  0.343E-02    0.60       1.0  T
   4   -320.7939916 -0.258739E-03  0.660E-03    0.61       1.1  T
   5   -320.7939971 -0.548786E-05  0.328E-03    0.61       2.2  T
   6   -320.7939980 -0.923133E-06  0.160E-03    0.61       4.6  T
   7   -320.7939983 -0.328622E-06  0.589E-04    0.61      12.5  T
   8   -320.7939984 -0.496406E-07  0.267E-04    0.61      27.5  T
     SCC iter.                  ...        0 min,  0.879 sec
     gradient                   ...        0 min,  0.118 sec
 * total energy  :  -315.8727386 Eh     change       -0.4979639E-02 Eh
   gradient norm :     0.0269561 Eh/α   predicted    -0.4344951E-02 ( -12.75%)
   displ. norm   :     0.5328672 α      lambda       -0.4603231E-02
   maximum displ.:     0.1279107 α      in ANC's #69, #16, #75, ...

........................................................................
.............................. CYCLE    7 ..............................
........................................................................
   1   -320.7783961 -0.320778E+03  0.194E-01    0.62       0.0  T
   2   -320.7784535 -0.573483E-04  0.109E-01    0.63       1.0  T
   3   -320.7777407  0.712791E-03  0.645E-02    0.62       1.0  T
   4   -320.7785444 -0.803740E-03  0.882E-03    0.63       1.0  T
   5   -320.7785543 -0.991903E-05  0.452E-03    0.63       1.6  T
   6   -320.7785562 -0.188804E-05  0.177E-03    0.63       4.2  T
   7   -320.7785567 -0.428360E-06  0.742E-04    0.63       9.9  T
   8   -320.7785567 -0.609746E-07  0.341E-04    0.63      21.6  T
     SCC iter.                  ...        0 min,  0.870 sec
     gradient                   ...        0 min,  0.118 sec
 * total energy  :  -315.8738982 Eh     change       -0.1159588E-02 Eh
   gradient norm :     0.0310443 Eh/α   predicted    -0.2955214E-02 ( 154.85%)
   displ. norm   :     0.4886299 α      lambda       -0.5557521E-02
   maximum displ.:     0.1364004 α      in ANC's #16, #67, #13, ...

........................................................................
.............................. CYCLE    8 ..............................
........................................................................
   1   -320.7856334 -0.320786E+03  0.217E-01    0.61       0.0  T
   2   -320.7857282 -0.948094E-04  0.120E-01    0.62       1.0  T
   3   -320.7854274  0.300766E-03  0.400E-02    0.61       1.0  T
   4   -320.7857850 -0.357518E-03  0.726E-03    0.62       1.0  T
   5   -320.7857901 -0.517659E-05  0.433E-03    0.62       1.7  T
   6   -320.7857923 -0.220208E-05  0.142E-03    0.62       5.2  T
   7   -320.7857926 -0.265106E-06  0.552E-04    0.62      13.3  T
   8   -320.7857926 -0.255718E-07  0.283E-04    0.62      25.9  T
     SCC iter.                  ...        0 min,  0.866 sec
     gradient                   ...        0 min,  0.116 sec
 * total energy  :  -315.8767218 Eh     change       -0.2823562E-02 Eh
   gradient norm :     0.0309255 Eh/α   predicted    -0.3442218E-02 (  21.91%)
   displ. norm   :     0.4350877 α      lambda       -0.2918557E-02
   maximum displ.:     0.1402026 α      in ANC's #16, #1, #47, ...

........................................................................
.............................. CYCLE    9 ..............................
........................................................................
   1   -320.7985348 -0.320799E+03  0.150E-01    0.60       0.0  T
   2   -320.7985906 -0.558144E-04  0.830E-02    0.61       1.0  T
   3   -320.7983768  0.213842E-03  0.326E-02    0.61       1.0  T
   4   -320.7986245 -0.247767E-03  0.638E-03    0.61       1.2  T
   5   -320.7986294 -0.486606E-05  0.362E-03    0.61       2.0  T
   6   -320.7986308 -0.139911E-05  0.142E-03    0.61       5.2  T
   7   -320.7986311 -0.299428E-06  0.557E-04    0.61      13.2  T
   8   -320.7986311 -0.392100E-07  0.266E-04    0.61      27.7  T
     SCC iter.                  ...        0 min,  0.860 sec
     gradient                   ...        0 min,  0.116 sec
 * total energy  :  -315.8781757 Eh     change       -0.1453934E-02 Eh
   gradient norm :     0.0286260 Eh/α   predicted    -0.1735523E-02 (  19.37%)
   displ. norm   :     0.5827984 α      lambda       -0.4440600E-02
   maximum displ.:     0.2045980 α      in ANC's #16, #17, #30, ...

........................................................................
.............................. CYCLE   10 ..............................
........................................................................
   1   -320.8258274 -0.320826E+03  0.178E-01    0.63       0.0  T
   2   -320.8259076 -0.802219E-04  0.987E-02    0.63       1.0  T
   3   -320.8255325  0.375106E-03  0.434E-02    0.63       1.0  T
   4   -320.8259600 -0.427483E-03  0.850E-03    0.63       1.0  T
   5   -320.8259687 -0.874042E-05  0.475E-03    0.63       1.5  T
   6   -320.8259712 -0.241774E-05  0.190E-03    0.63       3.9  T
   7   -320.8259717 -0.573040E-06  0.778E-04    0.63       9.5  T
   8   -320.8259718 -0.776075E-07  0.361E-04    0.63      20.4  T
     SCC iter.                  ...        0 min,  0.852 sec
     gradient                   ...        0 min,  0.118 sec
 * total energy  :  -315.8793177 Eh     change       -0.1141934E-02 Eh
   gradient norm :     0.0603761 Eh/α   predicted    -0.2974438E-02 ( 160.47%)
   displ. norm   :     0.4431176 α      lambda       -0.3560844E-02
   maximum displ.:     0.1614557 α      in ANC's #16, #17, #1, ...

........................................................................
.............................. CYCLE   11 ..............................
........................................................................
   1   -320.8091031 -0.320809E+03  0.916E-02    0.63       0.0  T
   2   -320.8091237 -0.205547E-04  0.519E-02    0.63       1.0  T
   3   -320.8089499  0.173817E-03  0.325E-02    0.63       1.0  T
   4   -320.8091471 -0.197256E-03  0.554E-03    0.63       1.3  T
   5   -320.8091490 -0.191701E-05  0.349E-03    0.63       2.1  T
   6   -320.8091509 -0.185334E-05  0.131E-03    0.63       5.6  T
   7   -320.8091511 -0.239946E-06  0.584E-04    0.63      12.6  T
   8   -320.8091512 -0.516612E-07  0.234E-04    0.63      31.4  T
     SCC iter.                  ...        0 min,  0.841 sec
     gradient                   ...        0 min,  0.117 sec
 * total energy  :  -315.8818183 Eh     change       -0.2500681E-02 Eh
   gradient norm :     0.0186863 Eh/α   predicted    -0.2130018E-02 ( -14.82%)
   displ. norm   :     0.6537361 α      lambda       -0.2912397E-02
   maximum displ.:     0.2551600 α      in ANC's #16, #17, #13, ...

........................................................................
.............................. CYCLE   12 ..............................
........................................................................
   1   -320.7885655 -0.320789E+03  0.181E-01    0.60       0.0  T
   2   -320.7886531 -0.875708E-04  0.100E-01    0.60       1.0  T
   3   -320.7884116  0.241513E-03  0.364E-02    0.60       1.0  T
   4   -320.7886944 -0.282883E-03  0.813E-03    0.61       1.0  T
   5   -320.7887006 -0.618524E-05  0.428E-03    0.60       1.7  T
   6   -320.7887028 -0.218391E-05  0.178E-03    0.60       4.1  T
   7   -320.7887033 -0.529086E-06  0.690E-04    0.60      10.7  T
   8   -320.7887034 -0.574912E-07  0.320E-04    0.60      23.0  T
     SCC iter.                  ...        0 min,  0.849 sec
     gradient                   ...        0 min,  0.117 sec
 * total energy  :  -315.8822064 Eh     change       -0.3880886E-03 Eh
   gradient norm :     0.0637297 Eh/α   predicted    -0.2078539E-02 ( 435.58%)
   displ. norm   :     0.4605458 α      lambda       -0.5213333E-02
   maximum displ.:     0.1764902 α      in ANC's #16, #17, #34, ...

........................................................................
.............................. CYCLE   13 ..............................
........................................................................
   1   -320.7989574 -0.320799E+03  0.160E-01    0.62       0.0  T
   2   -320.7990478 -0.904258E-04  0.881E-02    0.62       1.0  T
   3   -320.7989955  0.522470E-04  0.220E-02    0.61       1.0  T
   4   -320.7990760 -0.804401E-04  0.594E-03    0.62       1.2  T
   5   -320.7990783 -0.227217E-05  0.305E-03    0.62       2.4  T
   6   -320.7990794 -0.117682E-05  0.125E-03    0.62       5.9  T
   7   -320.7990796 -0.178349E-06  0.492E-04    0.62      15.0  T
   8   -320.7990796 -0.309375E-07  0.252E-04    0.62      29.2  T
     SCC iter.                  ...        0 min,  0.906 sec
     gradient                   ...        0 min,  0.118 sec
 * total energy  :  -315.8844300 Eh     change       -0.2223585E-02 Eh
   gradient norm :     0.0485911 Eh/α   predicted    -0.3159548E-02 (  42.09%)
   displ. norm   :     0.4597592 α      lambda       -0.3231615E-02
   maximum displ.:     0.1778194 α      in ANC's #16, #17, #1, ...

........................................................................
.............................. CYCLE   14 ..............................
........................................................................
   1   -320.8105624 -0.320811E+03  0.163E-01    0.64       0.0  T
   2   -320.8106369 -0.745455E-04  0.905E-02    0.64       1.0  T
   3   -320.8104681  0.168809E-03  0.325E-02    0.64       1.0  T
   4   -320.8106750 -0.206861E-03  0.620E-03    0.64       1.2  T
   5   -320.8106760 -0.107328E-05  0.430E-03    0.64       1.7  T
   6   -320.8106792 -0.321099E-05  0.148E-03    0.64       5.0  T
   7   -320.8106796 -0.325070E-06  0.632E-04    0.64      11.6  T
   8   -320.8106796 -0.565475E-07  0.287E-04    0.64      25.6  T
     SCC iter.                  ...        0 min,  0.890 sec
     gradient                   ...        0 min,  0.116 sec
 * total energy  :  -315.8857376 Eh     change       -0.1307633E-02 Eh
   gradient norm :     0.0305288 Eh/α   predicted    -0.1957359E-02 (  49.69%)
   displ. norm   :     0.6210176 α      lambda       -0.2509652E-02
   maximum displ.:     0.2678726 α      in ANC's #16, #17, #45, ...

........................................................................
.............................. CYCLE   15 ..............................
........................................................................
   1   -320.8094665 -0.320809E+03  0.956E-02    0.63       0.0  T
   2   -320.8094847 -0.182131E-04  0.523E-02    0.63       1.0  T
   3   -320.8093980  0.867342E-04  0.215E-02    0.63       1.0  T
   4   -320.8094908 -0.927492E-04  0.708E-03    0.63       1.0  T
   5   -320.8094956 -0.479665E-05  0.381E-03    0.63       1.9  T
   6   -320.8094977 -0.210961E-05  0.106E-03    0.63       6.9  T
   7   -320.8094978 -0.164596E-06  0.407E-04    0.63      18.0  T
   8   -320.8094978 -0.156958E-07  0.213E-04    0.63      34.5  T
     SCC iter.                  ...        0 min,  0.872 sec
     gradient                   ...        0 min,  0.116 sec
 * total energy  :  -315.8878574 Eh     change       -0.2119809E-02 Eh
   gradient norm :     0.0166863 Eh/α   predicted    -0.1738768E-02 ( -17.98%)
   displ. norm   :     0.7625912 α      lambda       -0.2620364E-02
   maximum displ.:     0.3456321 α      in ANC's #16, #17, #45, ...

........................................................................
.............................. CYCLE   16 ..............................
........................................................................
   1   -320.8112723 -0.320811E+03  0.122E-01    0.60       0.0  T
   2   -320.8113082 -0.358720E-04  0.661E-02    0.60       1.0  T
   3   -320.8112782  0.300515E-04  0.175E-02    0.60       1.0  T
   4   -320.8113157 -0.375341E-04  0.730E-03    0.60       1.0  T
   5   -320.8113184 -0.268757E-05  0.366E-03    0.60       2.0  T
   6   -320.8113208 -0.237427E-05  0.143E-03    0.60       5.1  T
   7   -320.8113212 -0.416895E-06  0.528E-04    0.60      13.9  T
   8   -320.8113212 -0.329092E-07  0.266E-04    0.60      27.7  T
     SCC iter.                  ...        0 min,  0.875 sec
     gradient                   ...        0 min,  0.116 sec
 * total energy  :  -315.8900190 Eh     change       -0.2161509E-02 Eh
   gradient norm :     0.0216752 Eh/α   predicted    -0.2072116E-02 (  -4.14%)
   displ. norm   :     0.8302580 α      lambda       -0.2390216E-02
   maximum displ.:     0.3753381 α      in ANC's #16, #17, #45, ...

........................................................................
.............................. CYCLE   17 ..............................
........................................................................
   1   -320.8148521 -0.320815E+03  0.117E-01    0.59       0.0  T
   2   -320.8148804 -0.283355E-04  0.625E-02    0.58       1.0  T
   3   -320.8148042  0.762590E-04  0.215E-02    0.58       1.0  T
   4   -320.8148822 -0.780113E-04  0.910E-03    0.58       1.0  T
   5   -320.8148899 -0.773313E-05  0.468E-03    0.58       1.6  T
   6   -320.8148937 -0.381324E-05  0.143E-03    0.58       5.1  T
   7   -320.8148941 -0.356282E-06  0.579E-04    0.58      12.7  T
   8   -320.8148941 -0.512514E-07  0.243E-04    0.58      30.3  T
     SCC iter.                  ...        0 min,  0.883 sec
     gradient                   ...        0 min,  0.116 sec
 * total energy  :  -315.8922207 Eh     change       -0.2201767E-02 Eh
   gradient norm :     0.0227060 Eh/α   predicted    -0.2018926E-02 (  -8.30%)
   displ. norm   :     0.8446031 α      lambda       -0.2732310E-02
   maximum displ.:     0.3929735 α      in ANC's #16, #45, #17, ...

........................................................................
.............................. CYCLE   18 ..............................
........................................................................
   1   -320.8267517 -0.320827E+03  0.131E-01    0.57       0.0  T
   2   -320.8267910 -0.393894E-04  0.704E-02    0.57       1.0  T
   3   -320.8267614  0.296659E-04  0.180E-02    0.57       1.0  T
   4   -320.8267964 -0.350141E-04  0.853E-03    0.57       1.0  T
   5   -320.8268008 -0.436780E-05  0.395E-03    0.57       1.9  T
   6   -320.8268031 -0.233698E-05  0.128E-03    0.57       5.7  T
   7   -320.8268034 -0.259859E-06  0.458E-04    0.57      16.0  T
   8   -320.8268034 -0.207593E-07  0.279E-04    0.57      26.3  T
     SCC iter.                  ...        0 min,  0.882 sec
     gradient                   ...        0 min,  0.116 sec
 * total energy  :  -315.8946856 Eh     change       -0.2464851E-02 Eh
   gradient norm :     0.0149895 Eh/α   predicted    -0.2340709E-02 (  -5.04%)
   displ. norm   :     0.8756767 α      lambda       -0.2746262E-02
   maximum displ.:     0.4070203 α      in ANC's #16, #45, #17, ...

........................................................................
.............................. CYCLE   19 ..............................
........................................................................
   1   -320.8224001 -0.320822E+03  0.135E-01    0.56       0.0  T
   2   -320.8224442 -0.440938E-04  0.726E-02    0.55       1.0  T
   3   -320.8223582  0.859194E-04  0.238E-02    0.55       1.0  T
   4   -320.8224499 -0.916184E-04  0.100E-02    0.55       1.0  T
   5   -320.8224577 -0.788080E-05  0.527E-03    0.55       1.4  T
   6   -320.8224626 -0.483218E-05  0.180E-03    0.55       4.1  T
   7   -320.8224632 -0.663003E-06  0.674E-04    0.55      10.9  T
   8   -320.8224633 -0.692663E-07  0.289E-04    0.55      25.4  T
     SCC iter.                  ...        0 min,  0.876 sec
     gradient                   ...        0 min,  0.116 sec
 * total energy  :  -315.8971082 Eh     change       -0.2422631E-02 Eh
   gradient norm :     0.0145678 Eh/α   predicted    -0.2426064E-02 (   0.14%)
   displ. norm   :     0.8728367 α      lambda       -0.2575429E-02
   maximum displ.:     0.4094241 α      in ANC's #16, #45, #17, ...

........................................................................
.............................. CYCLE   20 ..............................
........................................................................
   1   -320.8293861 -0.320829E+03  0.131E-01    0.54       0.0  T
   2   -320.8294327 -0.466379E-04  0.704E-02    0.53       1.0  T
   3   -320.8293977  0.349989E-04  0.184E-02    0.54       1.0  T
   4   -320.8294366 -0.388542E-04  0.886E-03    0.53       1.0  T
   5   -320.8294410 -0.440703E-05  0.477E-03    0.53       1.5  T
   6   -320.8294452 -0.418827E-05  0.183E-03    0.53       4.0  T
   7   -320.8294459 -0.745565E-06  0.571E-04    0.53      12.9  T
   8   -320.8294459 -0.398085E-07  0.277E-04    0.53      26.6  T
     SCC iter.                  ...        0 min,  0.904 sec
     gradient                   ...        0 min,  0.117 sec
 * total energy  :  -315.8993650 Eh     change       -0.2256792E-02 Eh
   gradient norm :     0.0176874 Eh/α   predicted    -0.2268753E-02 (   0.53%)
   displ. norm   :     0.8812737 α      lambda       -0.2598346E-02
   maximum displ.:     0.4143428 α      in ANC's #16, #45, #17, ...
 * RMSD in coord.:     0.7121741 α      energy gain  -0.1695757E+00 Eh

generating ANC from model Hessian ...
Using Lindh-Hessian (1995)
 Shifting diagonal of input Hessian by   9.999657958176832E-003
 Lowest  eigenvalues of input Hessian
    0.000000    0.000000    0.000000    0.000000    0.000000    0.000000
    0.010000    0.010004    0.010006    0.010017    0.010027    0.010053
    0.010074    0.010085    0.010094    0.010126    0.010139    0.010171
 Highest eigenvalues
    2.282448    2.291470    2.589687    2.609323    2.646043    2.647106
 

........................................................................
.............................. CYCLE   21 ..............................
........................................................................
   1   -320.8214219 -0.320821E+03  0.143E-01    0.52       0.0  T
   2   -320.8214662 -0.442980E-04  0.767E-02    0.51       1.0  T
   3   -320.8213998  0.663642E-04  0.240E-02    0.52       1.0  T
   4   -320.8214778 -0.779877E-04  0.920E-03    0.51       1.0  T
   5   -320.8214794 -0.155689E-05  0.520E-03    0.51       1.4  T
   6   -320.8214847 -0.527738E-05  0.170E-03    0.51       4.3  T
   7   -320.8214853 -0.628371E-06  0.585E-04    0.51      12.6  T
   8   -320.8214853 -0.451720E-07  0.280E-04    0.51      26.2  T
     SCC iter.                  ...        0 min,  0.884 sec
     gradient                   ...        0 min,  0.116 sec
 * total energy  :  -315.9016772 Eh     change       -0.2312218E-02 Eh
   gradient norm :     0.0156950 Eh/α   predicted     0.0000000E+00 (-100.00%)
   displ. norm   :     0.2513297 α      lambda       -0.1079510E-02
   maximum displ.:     0.0620224 α      in ANC's #36, #38, #21, ...

........................................................................
.............................. CYCLE   22 ..............................
........................................................................
   1   -320.8299985 -0.320830E+03  0.881E-02    0.51       0.0  T
   2   -320.8300158 -0.172317E-04  0.482E-02    0.51       1.0  T
   3   -320.8300058  0.100113E-04  0.958E-03    0.51       1.0  T
   4   -320.8300223 -0.165041E-04  0.324E-03    0.51       2.3  T
   5   -320.8300228 -0.508565E-06  0.156E-03    0.51       4.7  T
   6   -320.8300232 -0.406159E-06  0.471E-04    0.51      15.6  T
   7   -320.8300232 -0.244258E-07  0.229E-04    0.51      32.1  T
     SCC iter.                  ...        0 min,  0.784 sec
     gradient                   ...        0 min,  0.116 sec
 * total energy  :  -315.9023133 Eh     change       -0.6360455E-03 Eh
   gradient norm :     0.0097590 Eh/α   predicted    -0.5739625E-03 (  -9.76%)
   displ. norm   :     0.6046800 α      lambda       -0.2346118E-02
   maximum displ.:     0.1682805 α      in ANC's #36, #4, #30, ...

........................................................................
.............................. CYCLE   23 ..............................
........................................................................
   1   -320.8521324 -0.320852E+03  0.119E-01    0.51       0.0  T
   2   -320.8521669 -0.344658E-04  0.632E-02    0.50       1.0  T
   3   -320.8521098  0.570606E-04  0.203E-02    0.51       1.0  T
   4   -320.8521768 -0.670028E-04  0.782E-03    0.50       1.0  T
   5   -320.8521802 -0.332204E-05  0.385E-03    0.50       1.9  T
   6   -320.8521826 -0.244293E-05  0.139E-03    0.50       5.3  T
   7   -320.8521830 -0.363094E-06  0.551E-04    0.50      13.3  T
   8   -320.8521830 -0.391761E-07  0.272E-04    0.50      27.1  T
     SCC iter.                  ...        0 min,  0.748 sec
     gradient                   ...        0 min,  0.119 sec
 * total energy  :  -315.9038115 Eh     change       -0.1498261E-02 Eh
   gradient norm :     0.0334964 Eh/α   predicted    -0.1601985E-02 (   6.92%)
   displ. norm   :     0.6351963 α      lambda       -0.2014896E-02
   maximum displ.:     0.1868256 α      in ANC's #36, #30, #4, ...

........................................................................
.............................. CYCLE   24 ..............................
........................................................................
   1   -320.8459363 -0.320846E+03  0.117E-01    0.50       0.0  T
   2   -320.8459671 -0.308504E-04  0.612E-02    0.50       1.0  T
   3   -320.8459399  0.272528E-04  0.158E-02    0.50       1.0  T
   4   -320.8459707 -0.308220E-04  0.789E-03    0.50       1.0  T
   5   -320.8459750 -0.436051E-05  0.383E-03    0.50       1.9  T
   6   -320.8459780 -0.292119E-05  0.130E-03    0.50       5.6  T
   7   -320.8459783 -0.332844E-06  0.484E-04    0.50      15.2  T
   8   -320.8459783 -0.246781E-07  0.236E-04    0.50      31.2  T
     SCC iter.                  ...        0 min,  0.687 sec
     gradient                   ...        0 min,  0.118 sec
 * total energy  :  -315.9055046 Eh     change       -0.1693116E-02 Eh
   gradient norm :     0.0247246 Eh/α   predicted    -0.1413949E-02 ( -16.49%)
   displ. norm   :     0.7600232 α      lambda       -0.2921059E-02
   maximum displ.:     0.2061232 α      in ANC's #4, #36, #30, ...

........................................................................
.............................. CYCLE   25 ..............................
........................................................................
   1   -320.8194022 -0.320819E+03  0.138E-01    0.49       0.0  T
   2   -320.8194477 -0.455589E-04  0.723E-02    0.49       1.0  T
   3   -320.8193664  0.813311E-04  0.247E-02    0.49       1.0  T
   4   -320.8194601 -0.936983E-04  0.960E-03    0.49       1.0  T
   5   -320.8194661 -0.597033E-05  0.397E-03    0.49       1.9  T
   6   -320.8194681 -0.201425E-05  0.133E-03    0.49       5.5  T
   7   -320.8194683 -0.262309E-06  0.518E-04    0.49      14.2  T
   8   -320.8194684 -0.156518E-07  0.313E-04    0.49      23.5  T
     SCC iter.                  ...        0 min,  0.696 sec
     gradient                   ...        0 min,  0.132 sec
 * total energy  :  -315.9072705 Eh     change       -0.1765850E-02 Eh
   gradient norm :     0.0316685 Eh/α   predicted    -0.2304185E-02 (  30.49%)
   displ. norm   :     0.5938357 α      lambda       -0.2200720E-02
   maximum displ.:     0.1703815 α      in ANC's #4, #30, #35, ...

........................................................................
.............................. CYCLE   26 ..............................
........................................................................
   1   -320.8161372 -0.320816E+03  0.123E-01    0.49       0.0  T
   2   -320.8161692 -0.319930E-04  0.663E-02    0.48       1.0  T
   3   -320.8161522  0.170568E-04  0.145E-02    0.48       1.0  T
   4   -320.8161781 -0.259800E-04  0.643E-03    0.48       1.1  T
   5   -320.8161805 -0.233624E-05  0.266E-03    0.48       2.8  T
   6   -320.8161815 -0.993989E-06  0.965E-04    0.48       7.6  T
   7   -320.8161816 -0.135829E-06  0.411E-04    0.48      17.9  T
     SCC iter.                  ...        0 min,  0.598 sec
     gradient                   ...        0 min,  0.131 sec
 * total energy  :  -315.9089388 Eh     change       -0.1668303E-02 Eh
   gradient norm :     0.0298084 Eh/α   predicted    -0.1488406E-02 ( -10.78%)
   displ. norm   :     0.6359710 α      lambda       -0.2392868E-02
   maximum displ.:     0.1988778 α      in ANC's #4, #7, #30, ...

........................................................................
.............................. CYCLE   27 ..............................
........................................................................
   1   -320.8290638 -0.320829E+03  0.995E-02    0.48       0.0  T
   2   -320.8290853 -0.215398E-04  0.534E-02    0.47       1.0  T
   3   -320.8290504  0.349335E-04  0.163E-02    0.47       1.0  T
   4   -320.8290897 -0.393348E-04  0.672E-03    0.47       1.1  T
   5   -320.8290928 -0.301246E-05  0.319E-03    0.47       2.3  T
   6   -320.8290944 -0.164566E-05  0.105E-03    0.47       7.0  T
   7   -320.8290946 -0.206797E-06  0.472E-04    0.47      15.6  T
   8   -320.8290946 -0.360095E-07  0.235E-04    0.47      31.3  T
     SCC iter.                  ...        0 min,  0.721 sec
     gradient                   ...        0 min,  0.127 sec
 * total energy  :  -315.9107630 Eh     change       -0.1824240E-02 Eh
   gradient norm :     0.0125565 Eh/α   predicted    -0.1680354E-02 (  -7.89%)
   displ. norm   :     0.7758577 α      lambda       -0.2501053E-02
   maximum displ.:     0.2432386 α      in ANC's #4, #7, #30, ...

........................................................................
.............................. CYCLE   28 ..............................
........................................................................
   1   -320.8379208 -0.320838E+03  0.128E-01    0.47       0.0  T
   2   -320.8379554 -0.346521E-04  0.682E-02    0.46       1.0  T
   3   -320.8379074  0.479720E-04  0.183E-02    0.46       1.0  T
   4   -320.8379589 -0.514504E-04  0.882E-03    0.46       1.0  T
   5   -320.8379664 -0.751061E-05  0.405E-03    0.46       1.8  T
   6   -320.8379694 -0.297604E-05  0.136E-03    0.46       5.4  T
   7   -320.8379698 -0.393026E-06  0.527E-04    0.46      13.9  T
   8   -320.8379698 -0.345453E-07  0.262E-04    0.46      28.0  T
     SCC iter.                  ...        0 min,  0.692 sec
     gradient                   ...        0 min,  0.118 sec
 * total energy  :  -315.9127081 Eh     change       -0.1945116E-02 Eh
   gradient norm :     0.0232067 Eh/α   predicted    -0.2003296E-02 (   2.99%)
   displ. norm   :     0.7105829 α      lambda       -0.2466736E-02
   maximum displ.:     0.2475039 α      in ANC's #4, #7, #2, ...

........................................................................
.............................. CYCLE   29 ..............................
........................................................................
   1   -320.8470793 -0.320847E+03  0.126E-01    0.45       0.0  T
   2   -320.8471162 -0.369442E-04  0.680E-02    0.44       1.0  T
   3   -320.8470545  0.617240E-04  0.214E-02    0.44       1.0  T
   4   -320.8471223 -0.677788E-04  0.856E-03    0.44       1.0  T
   5   -320.8471282 -0.594787E-05  0.467E-03    0.44       1.6  T
   6   -320.8471324 -0.421571E-05  0.130E-03    0.44       5.7  T
   7   -320.8471327 -0.278912E-06  0.552E-04    0.44      13.3  T
   8   -320.8471327 -0.359564E-07  0.279E-04    0.44      26.3  T
     SCC iter.                  ...        0 min,  0.684 sec
     gradient                   ...        0 min,  0.118 sec
 * total energy  :  -315.9142432 Eh     change       -0.1535088E-02 Eh
   gradient norm :     0.0168952 Eh/α   predicted    -0.1856136E-02 (  20.91%)
   displ. norm   :     0.7857330 α      lambda       -0.2761487E-02
   maximum displ.:     0.2375702 α      in ANC's #4, #7, #30, ...

........................................................................
.............................. CYCLE   30 ..............................
........................................................................
   1   -320.8296054 -0.320830E+03  0.143E-01    0.43       0.0  T
   2   -320.8296496 -0.441950E-04  0.761E-02    0.43       1.0  T
   3   -320.8296209  0.286833E-04  0.179E-02    0.43       1.0  T
   4   -320.8296565 -0.355966E-04  0.911E-03    0.43       1.0  T
   5   -320.8296633 -0.678877E-05  0.354E-03    0.43       2.1  T
   6   -320.8296651 -0.180105E-05  0.129E-03    0.43       5.7  T
   7   -320.8296653 -0.258345E-06  0.530E-04    0.43      13.9  T
   8   -320.8296653 -0.332517E-08  0.348E-04    0.43      21.1  T
     SCC iter.                  ...        0 min,  0.718 sec
     gradient                   ...        0 min,  0.124 sec
 * total energy  :  -315.9158120 Eh     change       -0.1568765E-02 Eh
   gradient norm :     0.0221156 Eh/α   predicted    -0.2233182E-02 (  42.35%)
   displ. norm   :     0.6196679 α      lambda       -0.1974939E-02
   maximum displ.:     0.2185968 α      in ANC's #4, #7, #2, ...

........................................................................
.............................. CYCLE   31 ..............................
........................................................................
   1   -320.8376814 -0.320838E+03  0.862E-02    0.42       0.0  T
   2   -320.8376995 -0.181687E-04  0.460E-02    0.41       1.0  T
   3   -320.8376845  0.150820E-04  0.124E-02    0.41       1.0  T
   4   -320.8376996 -0.151214E-04  0.632E-03    0.41       1.2  T
   5   -320.8377036 -0.402246E-05  0.288E-03    0.41       2.6  T
   6   -320.8377047 -0.114106E-05  0.120E-03    0.41       6.1  T
   7   -320.8377050 -0.308826E-06  0.402E-04    0.41      18.3  T
   8   -320.8377051 -0.176940E-07  0.231E-04    0.41      31.8  T
     SCC iter.                  ...        0 min,  0.698 sec
     gradient                   ...        0 min,  0.119 sec
 * total energy  :  -315.9173622 Eh     change       -0.1550172E-02 Eh
   gradient norm :     0.0158647 Eh/α   predicted    -0.1366647E-02 ( -11.84%)
   displ. norm   :     0.7003140 α      lambda       -0.2192574E-02
   maximum displ.:     0.2502985 α      in ANC's #4, #7, #2, ...

........................................................................
.............................. CYCLE   32 ..............................
........................................................................
   1   -320.8539434 -0.320854E+03  0.950E-02    0.40       0.0  T
   2   -320.8539620 -0.185322E-04  0.517E-02    0.40       1.0  T
   3   -320.8539385  0.235159E-04  0.146E-02    0.40       1.0  T
   4   -320.8539655 -0.270177E-04  0.639E-03    0.40       1.2  T
   5   -320.8539682 -0.268477E-05  0.283E-03    0.40       2.6  T
   6   -320.8539694 -0.119845E-05  0.836E-04    0.40       8.8  T
   7   -320.8539695 -0.104235E-06  0.335E-04    0.40      22.0  T
   8   -320.8539695 -0.318852E-08  0.203E-04    0.40      36.2  T
     SCC iter.                  ...        0 min,  0.714 sec
     gradient                   ...        0 min,  0.117 sec
 * total energy  :  -315.9188051 Eh     change       -0.1442909E-02 Eh
   gradient norm :     0.0184139 Eh/α   predicted    -0.1633955E-02 (  13.24%)
   displ. norm   :     0.7833640 α      lambda       -0.1894489E-02
   maximum displ.:     0.2857984 α      in ANC's #4, #7, #2, ...

........................................................................
.............................. CYCLE   33 ..............................
........................................................................
   1   -320.8491421 -0.320849E+03  0.114E-01    0.39       0.0  T
   2   -320.8491669 -0.248020E-04  0.608E-02    0.39       1.0  T
   3   -320.8491422  0.247349E-04  0.153E-02    0.39       1.0  T
   4   -320.8491690 -0.268246E-04  0.782E-03    0.39       1.0  T
   5   -320.8491730 -0.394315E-05  0.377E-03    0.39       2.0  T
   6   -320.8491760 -0.306549E-05  0.108E-03    0.39       6.8  T
   7   -320.8491763 -0.234503E-06  0.422E-04    0.39      17.4  T
   8   -320.8491763 -0.229807E-07  0.201E-04    0.39      36.6  T
     SCC iter.                  ...        0 min,  0.696 sec
     gradient                   ...        0 min,  0.117 sec
 * total energy  :  -315.9204499 Eh     change       -0.1644831E-02 Eh
   gradient norm :     0.0093445 Eh/α   predicted    -0.1528532E-02 (  -7.07%)
   displ. norm   :     0.8074479 α      lambda       -0.1763727E-02
   maximum displ.:     0.3050998 α      in ANC's #4, #7, #2, ...

........................................................................
.............................. CYCLE   34 ..............................
........................................................................
   1   -320.8531210 -0.320853E+03  0.117E-01    0.38       0.0  T
   2   -320.8531470 -0.259487E-04  0.622E-02    0.38       1.0  T
   3   -320.8531231  0.238259E-04  0.158E-02    0.38       1.0  T
   4   -320.8531495 -0.264112E-04  0.798E-03    0.38       1.0  T
   5   -320.8531544 -0.482661E-05  0.342E-03    0.38       2.1  T
   6   -320.8531562 -0.180040E-05  0.115E-03    0.38       6.4  T
   7   -320.8531564 -0.240278E-06  0.459E-04    0.38      16.0  T
   8   -320.8531564 -0.233339E-07  0.258E-04    0.38      28.4  T
     SCC iter.                  ...        0 min,  0.671 sec
     gradient                   ...        0 min,  0.122 sec
 * total energy  :  -315.9218561 Eh     change       -0.1406210E-02 Eh
   gradient norm :     0.0160539 Eh/α   predicted    -0.1456819E-02 (   3.60%)
   displ. norm   :     0.8471292 α      lambda       -0.1747514E-02
   maximum displ.:     0.3101572 α      in ANC's #4, #7, #2, ...

........................................................................
.............................. CYCLE   35 ..............................
........................................................................
   1   -320.8392202 -0.320839E+03  0.116E-01    0.37       0.0  T
   2   -320.8392448 -0.245175E-04  0.615E-02    0.37       1.0  T
   3   -320.8392190  0.257877E-04  0.160E-02    0.37       1.0  T
   4   -320.8392451 -0.261024E-04  0.843E-03    0.37       1.0  T
   5   -320.8392497 -0.458094E-05  0.413E-03    0.37       1.8  T
   6   -320.8392533 -0.364476E-05  0.116E-03    0.37       6.3  T
   7   -320.8392536 -0.285381E-06  0.411E-04    0.37      17.9  T
   8   -320.8392536 -0.152387E-07  0.229E-04    0.37      32.1  T
     SCC iter.                  ...        0 min,  0.698 sec
     gradient                   ...        0 min,  0.119 sec
 * total energy  :  -315.9231714 Eh     change       -0.1315307E-02 Eh
   gradient norm :     0.0162272 Eh/α   predicted    -0.1500784E-02 (  14.10%)
   displ. norm   :     0.6793664 α      lambda       -0.1748281E-02
   maximum displ.:     0.2607915 α      in ANC's #4, #7, #2, ...

........................................................................
.............................. CYCLE   36 ..............................
........................................................................
   1   -320.8577307 -0.320858E+03  0.835E-02    0.36       0.0  T
   2   -320.8577428 -0.121314E-04  0.464E-02    0.36       1.0  T
   3   -320.8577078  0.350453E-04  0.145E-02    0.37       1.0  T
   4   -320.8577465 -0.386727E-04  0.546E-03    0.36       1.3  T
   5   -320.8577486 -0.210372E-05  0.270E-03    0.36       2.7  T
   6   -320.8577498 -0.119085E-05  0.789E-04    0.36       9.3  T
   7   -320.8577499 -0.907663E-07  0.349E-04    0.36      21.0  T
   8   -320.8577499 -0.320080E-08  0.249E-04    0.36      29.5  T
     SCC iter.                  ...        0 min,  0.696 sec
     gradient                   ...        0 min,  0.123 sec
 * total energy  :  -315.9244022 Eh     change       -0.1230740E-02 Eh
   gradient norm :     0.0161105 Eh/α   predicted    -0.1277594E-02 (   3.81%)
   displ. norm   :     0.7689199 α      lambda       -0.2016050E-02
   maximum displ.:     0.2841879 α      in ANC's #4, #7, #2, ...

........................................................................
.............................. CYCLE   37 ..............................
........................................................................
   1   -320.8477511 -0.320848E+03  0.105E-01    0.36       0.0  T
   2   -320.8477920 -0.409153E-04  0.557E-02    0.36       1.0  T
   3   -320.8477656  0.264688E-04  0.179E-02    0.36       1.0  T
   4   -320.8477903 -0.247749E-04  0.863E-03    0.36       1.0  T
   5   -320.8477990 -0.863396E-05  0.463E-03    0.35       1.6  T
   6   -320.8478020 -0.304891E-05  0.193E-03    0.36       3.8  T
   7   -320.8478028 -0.775579E-06  0.586E-04    0.36      12.5  T
   8   -320.8478028 -0.119153E-07  0.385E-04    0.36      19.1  T
     SCC iter.                  ...        0 min,  0.717 sec
     gradient                   ...        0 min,  0.122 sec
 * total energy  :  -315.9249291 Eh     change       -0.5268813E-03 Eh
   gradient norm :     0.0289016 Eh/α   predicted    -0.1604005E-02 ( 204.43%)
   displ. norm   :     0.4698126 α      lambda       -0.2582804E-02
   maximum displ.:     0.1709024 α      in ANC's #4, #7, #2, ...

........................................................................
.............................. CYCLE   38 ..............................
........................................................................
   1   -320.8577209 -0.320858E+03  0.828E-02    0.36       0.0  T
   2   -320.8577510 -0.300966E-04  0.445E-02    0.35       1.0  T
   3   -320.8577346  0.163546E-04  0.141E-02    0.35       1.0  T
   4   -320.8577539 -0.193270E-04  0.635E-03    0.35       1.2  T
   5   -320.8577573 -0.338206E-05  0.325E-03    0.35       2.3  T
   6   -320.8577583 -0.970747E-06  0.159E-03    0.35       4.6  T
   7   -320.8577588 -0.562901E-06  0.474E-04    0.35      15.5  T
   8   -320.8577589 -0.137735E-07  0.298E-04    0.35      24.7  T
     SCC iter.                  ...        0 min,  0.706 sec
     gradient                   ...        0 min,  0.119 sec
 * total energy  :  -315.9263560 Eh     change       -0.1426961E-02 Eh
   gradient norm :     0.0164842 Eh/α   predicted    -0.1576445E-02 (  10.48%)
   displ. norm   :     0.7084408 α      lambda       -0.1773660E-02
   maximum displ.:     0.2753947 α      in ANC's #4, #7, #2, ...

........................................................................
.............................. CYCLE   39 ..............................
........................................................................
   1   -320.8449284 -0.320845E+03  0.102E-01    0.34       0.0  T
   2   -320.8449649 -0.364747E-04  0.564E-02    0.34       1.0  T
   3   -320.8449395  0.254173E-04  0.169E-02    0.35       1.0  T
   4   -320.8449636 -0.241695E-04  0.841E-03    0.34       1.0  T
   5   -320.8449719 -0.828190E-05  0.397E-03    0.34       1.9  T
   6   -320.8449735 -0.153479E-05  0.181E-03    0.34       4.1  T
   7   -320.8449742 -0.754223E-06  0.527E-04    0.34      14.0  T
   8   -320.8449742 -0.493264E-08  0.359E-04    0.34      20.5  T
     SCC iter.                  ...        0 min,  0.721 sec
     gradient                   ...        0 min,  0.118 sec
 * total energy  :  -315.9270993 Eh     change       -0.7432380E-03 Eh
   gradient norm :     0.0206788 Eh/α   predicted    -0.1331916E-02 (  79.20%)
   displ. norm   :     0.5778905 α      lambda       -0.1658024E-02
   maximum displ.:     0.2307611 α      in ANC's #4, #7, #2, ...

........................................................................
.............................. CYCLE   40 ..............................
........................................................................
   1   -320.8496306 -0.320850E+03  0.754E-02    0.34       0.0  T
   2   -320.8496485 -0.179162E-04  0.403E-02    0.34       1.0  T
   3   -320.8496324  0.161348E-04  0.121E-02    0.34       1.0  T
   4   -320.8496469 -0.145089E-04  0.618E-03    0.34       1.2  T
   5   -320.8496518 -0.490252E-05  0.314E-03    0.34       2.3  T
   6   -320.8496533 -0.148599E-05  0.127E-03    0.34       5.8  T
   7   -320.8496536 -0.320030E-06  0.335E-04    0.34      21.9  T
   8   -320.8496536 -0.786457E-08  0.209E-04    0.34      35.1  T
     SCC iter.                  ...        0 min,  0.692 sec
     gradient                   ...        0 min,  0.120 sec
 * total energy  :  -315.9283719 Eh     change       -0.1272603E-02 Eh
   gradient norm :     0.0104959 Eh/α   predicted    -0.1105868E-02 ( -13.10%)
   displ. norm   :     0.7404989 α      lambda       -0.1378472E-02
   maximum displ.:     0.2940551 α      in ANC's #4, #2, #7, ...

........................................................................
.............................. CYCLE   41 ..............................
........................................................................
   1   -320.8624431 -0.320862E+03  0.855E-02    0.34       0.0  T
   2   -320.8624544 -0.112610E-04  0.461E-02    0.34       1.0  T
   3   -320.8624196  0.347943E-04  0.145E-02    0.34       1.0  T
   4   -320.8624548 -0.352410E-04  0.638E-03    0.34       1.2  T
   5   -320.8624586 -0.383148E-05  0.311E-03    0.34       2.4  T
   6   -320.8624605 -0.184336E-05  0.948E-04    0.34       7.8  T
   7   -320.8624606 -0.161487E-06  0.371E-04    0.34      19.8  T
   8   -320.8624607 -0.172776E-07  0.177E-04    0.34      41.5  T
     SCC iter.                  ...        0 min,  0.698 sec
     gradient                   ...        0 min,  0.123 sec
 * total energy  :  -315.9294979 Eh     change       -0.1126004E-02 Eh
   gradient norm :     0.0103517 Eh/α   predicted    -0.1067176E-02 (  -5.22%)
   displ. norm   :     0.8632986 α      lambda       -0.1327561E-02
   maximum displ.:     0.3527298 α      in ANC's #4, #2, #7, ...

........................................................................
.............................. CYCLE   42 ..............................
........................................................................
   1   -320.8613560 -0.320861E+03  0.106E-01    0.33       0.0  T
   2   -320.8613757 -0.197242E-04  0.571E-02    0.33       1.0  T
   3   -320.8613281  0.476383E-04  0.170E-02    0.33       1.0  T
   4   -320.8613750 -0.469804E-04  0.798E-03    0.33       1.0  T
   5   -320.8613816 -0.655774E-05  0.411E-03    0.33       1.8  T
   6   -320.8613852 -0.357788E-05  0.931E-04    0.33       7.9  T
   7   -320.8613853 -0.115646E-06  0.423E-04    0.33      17.4  T
   8   -320.8613853 -0.226179E-07  0.199E-04    0.33      37.0  T
     SCC iter.                  ...        0 min,  0.703 sec
     gradient                   ...        0 min,  0.123 sec
 * total energy  :  -315.9306990 Eh     change       -0.1201122E-02 Eh
   gradient norm :     0.0096484 Eh/α   predicted    -0.1158486E-02 (  -3.55%)
   displ. norm   :     0.8269997 α      lambda       -0.1428692E-02
   maximum displ.:     0.3398381 α      in ANC's #4, #2, #7, ...
 * RMSD in coord.:     1.0363695 α      energy gain  -0.3133398E-01 Eh

generating ANC from model Hessian ...
Using Lindh-Hessian (1995)
 Shifting diagonal of input Hessian by   1.000170084803936E-002
 Lowest  eigenvalues of input Hessian
    0.010000    0.000000    0.000000    0.000000    0.000000    0.000000
    0.000000    0.010006    0.010008    0.010021    0.010031    0.010048
    0.010065    0.010087    0.010093    0.010123    0.010130    0.010166
 Highest eigenvalues
    2.284348    2.290929    2.597624    2.601451    2.642298    2.647963
 

........................................................................
.............................. CYCLE   43 ..............................
........................................................................
   1   -320.8722078 -0.320872E+03  0.105E-01    0.32       0.0  T
   2   -320.8722264 -0.185561E-04  0.583E-02    0.32       1.0  T
   3   -320.8721633  0.630294E-04  0.186E-02    0.33       1.0  T
   4   -320.8722300 -0.666308E-04  0.716E-03    0.33       1.0  T
   5   -320.8722342 -0.426866E-05  0.388E-03    0.32       1.9  T
   6   -320.8722373 -0.305798E-05  0.118E-03    0.32       6.3  T
   7   -320.8722375 -0.249013E-06  0.490E-04    0.32      15.0  T
   8   -320.8722376 -0.230444E-07  0.270E-04    0.32      27.2  T
     SCC iter.                  ...        0 min,  0.673 sec
     gradient                   ...        0 min,  0.122 sec
 * total energy  :  -315.9316387 Eh     change       -0.9397244E-03 Eh
   gradient norm :     0.0203172 Eh/α   predicted     0.0000000E+00 (-100.00%)
   displ. norm   :     0.1635333 α      lambda       -0.7710086E-03
   maximum displ.:     0.0545636 α      in ANC's #9, #16, #30, ...

........................................................................
.............................. CYCLE   44 ..............................
........................................................................
   1   -320.8686940 -0.320869E+03  0.646E-02    0.33       0.0  T
   2   -320.8687037 -0.973775E-05  0.357E-02    0.33       1.0  T
   3   -320.8686949  0.887115E-05  0.811E-03    0.32       1.0  T
   4   -320.8687076 -0.127551E-04  0.231E-03    0.32       3.2  T
   5   -320.8687079 -0.309816E-06  0.130E-03    0.32       5.7  T
   6   -320.8687081 -0.203824E-06  0.513E-04    0.32      14.3  T
   7   -320.8687082 -0.416018E-07  0.235E-04    0.32      31.3  T
     SCC iter.                  ...        0 min,  0.587 sec
     gradient                   ...        0 min,  0.117 sec
 * total energy  :  -315.9320718 Eh     change       -0.4331146E-03 Eh
   gradient norm :     0.0065708 Eh/α   predicted    -0.3958965E-03 (  -8.59%)
   displ. norm   :     0.3596718 α      lambda       -0.1127941E-02
   maximum displ.:     0.1432326 α      in ANC's #9, #4, #32, ...

........................................................................
.............................. CYCLE   45 ..............................
........................................................................
   1   -320.8611169 -0.320861E+03  0.109E-01    0.33       0.0  T
   2   -320.8611444 -0.274629E-04  0.603E-02    0.33       1.0  T
   3   -320.8611171  0.272199E-04  0.147E-02    0.32       1.0  T
   4   -320.8611557 -0.385775E-04  0.402E-03    0.32       1.8  T
   5   -320.8611564 -0.640577E-06  0.206E-03    0.32       3.6  T
   6   -320.8611568 -0.485818E-06  0.821E-04    0.32       9.0  T
   7   -320.8611569 -0.850384E-07  0.387E-04    0.32      19.0  T
     SCC iter.                  ...        0 min,  0.598 sec
     gradient                   ...        0 min,  0.119 sec
 * total energy  :  -315.9318875 Eh     change        0.1843305E-03 Eh
   gradient norm :     0.0352002 Eh/α   predicted    -0.6369281E-03 (-445.54%)
   displ. norm   :     0.1456184 α      lambda       -0.1397377E-02
   maximum displ.:     0.0431690 α      in ANC's #16, #9, #31, ...

........................................................................
.............................. CYCLE   46 ..............................
........................................................................
   1   -320.8615131 -0.320862E+03  0.794E-02    0.32       0.0  T
   2   -320.8615285 -0.154248E-04  0.439E-02    0.32       1.0  T
   3   -320.8615261  0.245591E-05  0.731E-03    0.32       1.0  T
   4   -320.8615346 -0.851324E-05  0.208E-03    0.32       3.5  T
   5   -320.8615346  0.815243E-08  0.127E-03    0.32       5.8  T
   6   -320.8615349 -0.285235E-06  0.449E-04    0.32      16.4  T
   7   -320.8615349 -0.285642E-07  0.189E-04    0.32      39.0  T
     SCC iter.                  ...        0 min,  0.599 sec
     gradient                   ...        0 min,  0.123 sec
 * total energy  :  -315.9326927 Eh     change       -0.8052209E-03 Eh
   gradient norm :     0.0152618 Eh/α   predicted    -0.7135053E-03 ( -11.39%)
   displ. norm   :     0.2532750 α      lambda       -0.1030541E-02
   maximum displ.:     0.0993438 α      in ANC's #9, #4, #16, ...

........................................................................
.............................. CYCLE   47 ..............................
........................................................................
   1   -320.8622624 -0.320862E+03  0.966E-02    0.31       0.0  T
   2   -320.8622841 -0.216063E-04  0.535E-02    0.32       1.0  T
   3   -320.8622561  0.279712E-04  0.146E-02    0.31       1.0  T
   4   -320.8622933 -0.372012E-04  0.316E-03    0.32       2.3  T
   5   -320.8622936 -0.354189E-06  0.184E-03    0.32       4.0  T
   6   -320.8622941 -0.469058E-06  0.655E-04    0.32      11.2  T
   7   -320.8622941 -0.395934E-07  0.284E-04    0.32      25.9  T
     SCC iter.                  ...        0 min,  0.604 sec
     gradient                   ...        0 min,  0.124 sec
 * total energy  :  -315.9329433 Eh     change       -0.2505976E-03 Eh
   gradient norm :     0.0200647 Eh/α   predicted    -0.5483249E-03 ( 118.81%)
   displ. norm   :     0.3367744 α      lambda       -0.9395476E-03
   maximum displ.:     0.1418386 α      in ANC's #9, #4, #32, ...

........................................................................
.............................. CYCLE   48 ..............................
........................................................................
   1   -320.8627622 -0.320863E+03  0.674E-02    0.32       0.0  T
   2   -320.8627718 -0.961347E-05  0.367E-02    0.32       1.0  T
   3   -320.8627648  0.702987E-05  0.823E-03    0.32       1.0  T
   4   -320.8627749 -0.101386E-04  0.313E-03    0.32       2.3  T
   5   -320.8627755 -0.544261E-06  0.152E-03    0.32       4.8  T
   6   -320.8627758 -0.348104E-06  0.486E-04    0.32      15.1  T
   7   -320.8627759 -0.302959E-07  0.218E-04    0.32      33.7  T
     SCC iter.                  ...        0 min,  0.595 sec
     gradient                   ...        0 min,  0.118 sec
 * total energy  :  -315.9336941 Eh     change       -0.7508207E-03 Eh
   gradient norm :     0.0086426 Eh/α   predicted    -0.5230547E-03 ( -30.34%)
   displ. norm   :     0.6649359 α      lambda       -0.1155770E-02
   maximum displ.:     0.2779929 α      in ANC's #9, #4, #16, ...

........................................................................
.............................. CYCLE   49 ..............................
........................................................................
   1   -320.8614844 -0.320861E+03  0.972E-02    0.31       0.0  T
   2   -320.8615013 -0.169929E-04  0.525E-02    0.31       1.0  T
   3   -320.8614825  0.188539E-04  0.127E-02    0.31       1.0  T
   4   -320.8615039 -0.214152E-04  0.604E-03    0.31       1.2  T
   5   -320.8615064 -0.252159E-05  0.306E-03    0.31       2.4  T
   6   -320.8615083 -0.187722E-05  0.916E-04    0.31       8.0  T
   7   -320.8615085 -0.158358E-06  0.390E-04    0.31      18.9  T
   8   -320.8615085 -0.164470E-07  0.201E-04    0.31      36.5  T
     SCC iter.                  ...        0 min,  0.682 sec
     gradient                   ...        0 min,  0.131 sec
 * total energy  :  -315.9346495 Eh     change       -0.9553677E-03 Eh
   gradient norm :     0.0095296 Eh/α   predicted    -0.8334033E-03 ( -12.77%)
   displ. norm   :     0.7612079 α      lambda       -0.1286761E-02
   maximum displ.:     0.3330399 α      in ANC's #9, #4, #16, ...

........................................................................
.............................. CYCLE   50 ..............................
........................................................................
   1   -320.8612187 -0.320861E+03  0.127E-01    0.30       0.0  T
   2   -320.8612462 -0.274580E-04  0.688E-02    0.30       1.0  T
   3   -320.8612200  0.262257E-04  0.149E-02    0.31       1.0  T
   4   -320.8612509 -0.309062E-04  0.706E-03    0.30       1.0  T
   5   -320.8612547 -0.378905E-05  0.373E-03    0.30       2.0  T
   6   -320.8612578 -0.311985E-05  0.958E-04    0.30       7.7  T
   7   -320.8612579 -0.133246E-06  0.475E-04    0.30      15.5  T
   8   -320.8612580 -0.243313E-07  0.235E-04    0.30      31.3  T
     SCC iter.                  ...        0 min,  0.694 sec
     gradient                   ...        0 min,  0.131 sec
 * total energy  :  -315.9355732 Eh     change       -0.9237239E-03 Eh
   gradient norm :     0.0138664 Eh/α   predicted    -0.1016183E-02 (  10.01%)
   displ. norm   :     0.6865009 α      lambda       -0.1417489E-02
   maximum displ.:     0.3062956 α      in ANC's #9, #4, #16, ...

........................................................................
.............................. CYCLE   51 ..............................
........................................................................
   1   -320.8699213 -0.320870E+03  0.100E-01    0.30       0.0  T
   2   -320.8699390 -0.176338E-04  0.545E-02    0.30       1.0  T
   3   -320.8699254  0.136139E-04  0.119E-02    0.30       1.0  T
   4   -320.8699412 -0.157865E-04  0.591E-03    0.30       1.2  T
   5   -320.8699438 -0.266393E-05  0.285E-03    0.30       2.6  T
   6   -320.8699455 -0.172594E-05  0.789E-04    0.30       9.3  T
   7   -320.8699456 -0.939971E-07  0.406E-04    0.30      18.1  T
   8   -320.8699457 -0.223288E-07  0.201E-04    0.30      36.6  T
     SCC iter.                  ...        0 min,  0.708 sec
     gradient                   ...        0 min,  0.128 sec
 * total energy  :  -315.9366410 Eh     change       -0.1067746E-02 Eh
   gradient norm :     0.0147756 Eh/α   predicted    -0.1042764E-02 (  -2.34%)
   displ. norm   :     0.7227177 α      lambda       -0.1475524E-02
   maximum displ.:     0.3299384 α      in ANC's #9, #4, #16, ...

........................................................................
.............................. CYCLE   52 ..............................
........................................................................
   1   -320.8710963 -0.320871E+03  0.115E-01    0.29       0.0  T
   2   -320.8711221 -0.257845E-04  0.626E-02    0.29       1.0  T
   3   -320.8710874  0.346238E-04  0.159E-02    0.30       1.0  T
   4   -320.8711271 -0.396287E-04  0.687E-03    0.30       1.1  T
   5   -320.8711302 -0.312221E-05  0.372E-03    0.29       2.0  T
   6   -320.8711332 -0.304412E-05  0.958E-04    0.29       7.7  T
   7   -320.8711334 -0.149630E-06  0.458E-04    0.29      16.1  T
   8   -320.8711334 -0.248472E-07  0.218E-04    0.29      33.8  T
     SCC iter.                  ...        0 min,  0.717 sec
     gradient                   ...        0 min,  0.117 sec
 * total energy  :  -315.9377837 Eh     change       -0.1142753E-02 Eh
   gradient norm :     0.0176688 Eh/α   predicted    -0.1123111E-02 (  -1.72%)
   displ. norm   :     0.8074440 α      lambda       -0.1415007E-02
   maximum displ.:     0.3632471 α      in ANC's #9, #4, #16, ...

........................................................................
.............................. CYCLE   53 ..............................
........................................................................
   1   -320.8630722 -0.320863E+03  0.102E-01    0.29       0.0  T
   2   -320.8630908 -0.186021E-04  0.549E-02    0.29       1.0  T
   3   -320.8630704  0.203663E-04  0.146E-02    0.29       1.0  T
   4   -320.8630931 -0.226980E-04  0.688E-03    0.29       1.1  T
   5   -320.8630955 -0.240277E-05  0.332E-03    0.29       2.2  T
   6   -320.8630975 -0.197202E-05  0.967E-04    0.29       7.6  T
   7   -320.8630977 -0.170752E-06  0.320E-04    0.29      23.0  T
   8   -320.8630977 -0.415304E-08  0.211E-04    0.29      34.9  T
     SCC iter.                  ...        0 min,  0.704 sec
     gradient                   ...        0 min,  0.126 sec
 * total energy  :  -315.9389686 Eh     change       -0.1184905E-02 Eh
   gradient norm :     0.0138839 Eh/α   predicted    -0.1168774E-02 (  -1.36%)
   displ. norm   :     0.6516942 α      lambda       -0.1960587E-02
   maximum displ.:     0.3065037 α      in ANC's #9, #16, #4, ...

........................................................................
.............................. CYCLE   54 ..............................
........................................................................
   1   -320.8863071 -0.320886E+03  0.139E-01    0.29       0.0  T
   2   -320.8863566 -0.495010E-04  0.766E-02    0.29       1.0  T
   3   -320.8862716  0.850121E-04  0.254E-02    0.28       1.0  T
   4   -320.8863721 -0.100511E-03  0.774E-03    0.29       1.0  T
   5   -320.8863769 -0.486383E-05  0.405E-03    0.29       1.8  T
   6   -320.8863788 -0.190454E-05  0.151E-03    0.29       4.9  T
   7   -320.8863791 -0.269044E-06  0.607E-04    0.29      12.1  T
   8   -320.8863791 -0.142147E-07  0.362E-04    0.29      20.3  T
     SCC iter.                  ...        0 min,  0.710 sec
     gradient                   ...        0 min,  0.131 sec
 * total energy  :  -315.9389910 Eh     change       -0.2239446E-04 Eh
   gradient norm :     0.0380899 Eh/α   predicted    -0.1396632E-02 (6136.51%)
   displ. norm   :     0.4797365 α      lambda       -0.2641950E-02
   maximum displ.:     0.1978359 α      in ANC's #9, #4, #32, ...

........................................................................
.............................. CYCLE   55 ..............................
........................................................................
   1   -320.8665362 -0.320867E+03  0.967E-02    0.29       0.0  T
   2   -320.8665618 -0.256233E-04  0.529E-02    0.28       1.0  T
   3   -320.8665165  0.453110E-04  0.179E-02    0.29       1.0  T
   4   -320.8665693 -0.528079E-04  0.579E-03    0.28       1.3  T
   5   -320.8665723 -0.295937E-05  0.279E-03    0.29       2.6  T
   6   -320.8665731 -0.809654E-06  0.124E-03    0.29       5.9  T
   7   -320.8665734 -0.253336E-06  0.492E-04    0.29      14.9  T
   8   -320.8665734 -0.223789E-07  0.283E-04    0.29      26.0  T
     SCC iter.                  ...        0 min,  0.689 sec
     gradient                   ...        0 min,  0.117 sec
 * total energy  :  -315.9406280 Eh     change       -0.1636960E-02 Eh
   gradient norm :     0.0112010 Eh/α   predicted    -0.1624999E-02 (  -0.73%)
   displ. norm   :     0.8414291 α      lambda       -0.1200266E-02
   maximum displ.:     0.3965768 α      in ANC's #9, #4, #16, ...

........................................................................
.............................. CYCLE   56 ..............................
........................................................................
   1   -320.8597557 -0.320860E+03  0.103E-01    0.28       0.0  T
   2   -320.8597743 -0.185739E-04  0.554E-02    0.28       1.0  T
   3   -320.8597520  0.222908E-04  0.149E-02    0.28       1.0  T
   4   -320.8597776 -0.256123E-04  0.672E-03    0.28       1.1  T
   5   -320.8597791 -0.141728E-05  0.351E-03    0.28       2.1  T
   6   -320.8597814 -0.239393E-05  0.102E-03    0.28       7.2  T
   7   -320.8597817 -0.224399E-06  0.365E-04    0.28      20.1  T
   8   -320.8597817 -0.147086E-07  0.216E-04    0.28      34.0  T
     SCC iter.                  ...        0 min,  0.687 sec
     gradient                   ...        0 min,  0.134 sec
 * total energy  :  -315.9416633 Eh     change       -0.1035358E-02 Eh
   gradient norm :     0.0135109 Eh/α   predicted    -0.1025024E-02 (  -1.00%)
   displ. norm   :     0.7730379 α      lambda       -0.1335261E-02
   maximum displ.:     0.3746569 α      in ANC's #9, #4, #16, ...

........................................................................
.............................. CYCLE   57 ..............................
........................................................................
   1   -320.8665883 -0.320867E+03  0.961E-02    0.28       0.0  T
   2   -320.8666050 -0.166454E-04  0.517E-02    0.28       1.0  T
   3   -320.8665788  0.262170E-04  0.153E-02    0.29       1.0  T
   4   -320.8666086 -0.298314E-04  0.647E-03    0.28       1.1  T
   5   -320.8666103 -0.175657E-05  0.343E-03    0.29       2.1  T
   6   -320.8666124 -0.205796E-05  0.756E-04    0.28       9.7  T
   7   -320.8666125 -0.809198E-07  0.317E-04    0.28      23.2  T
   8   -320.8666125 -0.747718E-08  0.198E-04    0.28      37.2  T
     SCC iter.                  ...        0 min,  0.705 sec
     gradient                   ...        0 min,  0.149 sec
 * total energy  :  -315.9427711 Eh     change       -0.1107793E-02 Eh
   gradient norm :     0.0122520 Eh/α   predicted    -0.1066601E-02 (  -3.72%)
   displ. norm   :     0.7047790 α      lambda       -0.1455157E-02
[...]
   106   6 C    3.977 --   105 C    1.368   101 C    1.314   107 C    1.083
   107   6 C    3.974 --   108 C    1.462    98 C    1.158   106 C    1.083
   108   6 C    3.950 --   107 C    1.462   111 C    1.106   109 C    1.100
   109   6 C    3.943 --   110 N    2.755   108 C    1.100
   110   7 N    2.961 --   109 C    2.755
   111   6 C    3.944 --   112 N    2.734   108 C    1.106
   112   7 N    2.963 --   111 C    2.734
   113   6 C    3.985 --   104 C    0.992   119 C    0.976   178 H    0.962
                           114 C    0.951
   114   6 C    3.990 --   115 C    1.004   118 C    0.989   179 H    0.971
                           113 C    0.951
   115   6 C    3.982 --   116 C    1.923   114 C    1.004   180 H    0.971
   116   6 C    3.982 --   115 C    1.923   117 C    1.004   181 H    0.971
   117   6 C    3.989 --   116 C    1.004   118 C    0.989   182 H    0.971
                           119 C    0.951
   118   6 C    3.994 --   117 C    0.989   114 C    0.989   184 H    0.978
                           183 H    0.974
   119   6 C    3.984 --   103 C    0.991   113 C    0.976   185 H    0.963
                           117 C    0.951
   120   1 H    0.991 --     1 C    0.940
   121   1 H    0.996 --     6 C    0.963
   122   1 H    0.996 --     9 C    0.958
   123   1 H    0.996 --    17 C    0.960
   124   1 H    0.998 --    18 C    0.972
   125   1 H    0.999 --    19 C    0.971
   126   1 H    0.999 --    20 C    0.971
   127   1 H    0.998 --    21 C    0.972
   128   1 H    0.998 --    22 C    0.978
   129   1 H    0.996 --    22 C    0.976
   130   1 H    0.996 --    23 C    0.960
   131   1 H    0.995 --    27 C    0.959
   132   1 H    0.997 --    30 C    0.965
   133   1 H    0.997 --    30 C    0.967
   134   1 H    0.996 --    31 C    0.982
   135   1 H    0.996 --    31 C    0.984
   136   1 H    0.996 --    31 C    0.985
   137   1 H    0.995 --    43 C    0.966
   138   1 H    0.994 --    43 C    0.962
   139   1 H    0.998 --    44 C    0.986
   140   1 H    0.997 --    44 C    0.984
   141   1 H    0.997 --    44 C    0.988
   142   1 H    0.990 --    52 C    0.939
   143   1 H    0.995 --    52 C    0.965
   144   1 H    0.997 --    53 C    0.982
   145   1 H    0.998 --    53 C    0.986
   146   1 H    0.998 --    53 C    0.987
   147   1 H    0.999 --    59 C    0.962
   148   1 H    0.998 --    60 C    0.968
   149   1 H    0.997 --    63 C    0.983
   150   1 H    0.996 --    63 C    0.980
   151   1 H    0.997 --    63 C    0.983
   152   1 H    0.998 --    64 C    0.966
   153   1 H    0.999 --    65 C    0.965
   154   1 H    0.998 --    67 C    0.963
   155   1 H    0.998 --    68 C    0.964
   156   1 H    0.996 --    71 C    0.979
   157   1 H    0.997 --    71 C    0.982
   158   1 H    0.997 --    71 C    0.983
   159   1 H    0.998 --    72 C    0.965
   160   1 H    0.999 --    73 C    0.967
   161   1 H    0.996 --    80 C    0.964
   162   1 H    0.996 --    81 C    0.966
   163   1 H    0.995 --    84 C    0.979
   164   1 H    0.997 --    84 C    0.982
   165   1 H    0.996 --    84 C    0.982
   166   1 H    0.998 --    85 C    0.965
   167   1 H    0.999 --    86 C    0.967
   168   1 H    0.998 --    88 C    0.966
   169   1 H    0.997 --    89 C    0.964
   170   1 H    0.996 --    92 C    0.982
   171   1 H    0.995 --    92 C    0.978
   172   1 H    0.996 --    92 C    0.982
   173   1 H    0.997 --    93 C    0.967
   174   1 H    0.998 --    94 C    0.967
   175   1 H    0.995 --    97 C    0.932
   176   1 H    0.996 --   102 C    0.964
   177   1 H    0.997 --   105 C    0.958
   178   1 H    0.997 --   113 C    0.962
   179   1 H    0.999 --   114 C    0.971
   180   1 H    0.999 --   115 C    0.971
   181   1 H    0.999 --   116 C    0.971
   182   1 H    0.999 --   117 C    0.971
   183   1 H    0.999 --   118 C    0.974
   184   1 H    0.999 --   118 C    0.978
   185   1 H    0.997 --   119 C    0.963
 ---------------------------------------------------------------------------

Topologies differ in bond orders
Writing corrected topology to xtbtopo.mol

molecular dipole:
                 x           y           z       tot (Debye)
 q only:       -2.269      -0.388      -1.039
   full:       -2.489      -0.317      -1.971       8.110
molecular quadrupole (traceless):
                xx          xy          yy          xz          yz          zz
 q only:       22.405      98.922     -68.483     -27.674      -0.077      46.078
  q+dip:       25.571     113.790     -87.815     -29.190      -3.936      62.244
   full:       27.782     114.968     -93.521     -32.261       1.710      65.739

           -------------------------------------------------
          |                Geometry Summary                 |
           -------------------------------------------------

      molecular mass/u    :     1702.1350884
   center of mass at/Å    :        0.1982197       0.2358741       0.1682538
  moments of inertia/u·Å² :        0.3017758E+05   0.1049788E+06   0.1088618E+06
rotational constants/cm⁻¹ :        0.5586145E-03   0.1605813E-03   0.1548535E-03

 * 174 selected distances

     #   Z          #   Z                                           value/Å
     1   6 C        2   6 C                                       1.3478359
     3   6 C        4   8 O                                       1.2106932
     5   6 C        6   6 C                                       1.3940268
     6   6 C        7   6 C                                       1.3730014
     7   6 C        8   6 C                                       1.4029005
     8   6 C        9   6 C                                       1.3736918
     5   6 C       10   6 C                                       1.4107945
     9   6 C       10   6 C                                       1.3996302
    11   6 C       12   6 C                                       1.3668285
    13   6 C       14   7 N                                       1.1476817
    15   6 C       16   7 N                                       1.1476099
     8   6 C       17   6 C                                       1.5078217
    17   6 C       18   6 C                                       1.5492264
    19   6 C       20   6 C                                       1.3263115
    18   6 C       22   6 C                                       1.5371750
    21   6 C       22   6 C                                       1.5369486
     7   6 C       23   6 C                                       1.5078543
    17   6 C       23   6 C                                       1.5612976
    21   6 C       23   6 C                                       1.5489436
    24   6 C       25   6 C                                       1.4191415
    25   6 C       26   7 N                                       1.3519014
    26   7 N       27   6 C                                       1.2953691
    27   6 C       28   6 C                                       1.4271066
    28   6 C       29   8 O                                       1.3257452
    29   8 O       30   6 C                                       1.4272048
    30   6 C       31   6 C                                       1.5175446
    28   6 C       32   7 N                                       1.3103853
    25   6 C       33   6 C                                       1.4154954
    32   7 N       33   6 C                                       1.3485320
    33   6 C       34   6 C                                       1.4170524
    34   6 C       35   6 C                                       1.3791945
    24   6 C       36   6 C                                       1.3794605
    35   6 C       36   6 C                                       1.4021254
    35   6 C       38   9 F                                       1.3400728
    39   6 C       40   6 C                                       1.3970163
    40   6 C       41   7 N                                       1.3612103
    41   7 N       42   6 C                                       1.2737304
    42   6 C       43   6 C                                       1.4811489
    43   6 C       44   6 C                                       1.5304255
    40   6 C       46   6 C                                       1.4185460
    45  16 S       46   6 C                                       1.7353818
    46   6 C       47   6 C                                       1.3861190
    47   6 C       48   6 C                                       1.3979510
    39   6 C       49   6 C                                       1.3881935
    48   6 C       49   6 C                                       1.4182056
    49   6 C       50  16 S                                       1.7346971
    51   6 C       52   6 C                                       1.4831806
    52   6 C       53   6 C                                       1.5244488
    48   6 C       54   7 N                                       1.3627386
    51   6 C       54   7 N                                       1.2765084
    55   6 C       56   6 C                                       1.3729438
    56   6 C       57   7 N                                       1.4090037
    57   7 N       58   6 C                                       1.3887013
    58   6 C       59   6 C                                       1.3975893
    59   6 C       60   6 C                                       1.3769934
    60   6 C       61   6 C                                       1.3906544
    61   6 C       64   6 C                                       1.3873601
    58   6 C       65   6 C                                       1.3959498
    64   6 C       65   6 C                                       1.3805756
    57   7 N       66   6 C                                       1.4016748
    66   6 C       67   6 C                                       1.3906985
    67   6 C       68   6 C                                       1.3817318
    68   6 C       69   6 C                                       1.3860652
    69   6 C       72   6 C                                       1.3931767
    66   6 C       73   6 C                                       1.3956364
    72   6 C       73   6 C                                       1.3764384
    56   6 C       74   6 C                                       1.4142991
    74   6 C       75  16 S                                       1.7273908
    76   6 C       77   6 C                                       1.4181581
    77   6 C       78   7 N                                       1.3696289
    78   7 N       79   6 C                                       1.4047321
    79   6 C       80   6 C                                       1.3953911
    80   6 C       81   6 C                                       1.3766964
    81   6 C       82   6 C                                       1.3933969
    82   6 C       85   6 C                                       1.3897781
    79   6 C       86   6 C                                       1.3927892
    85   6 C       86   6 C                                       1.3801622
    78   7 N       87   6 C                                       1.4078559
    87   6 C       88   6 C                                       1.3904998
    88   6 C       89   6 C                                       1.3808922
    89   6 C       90   6 C                                       1.3892858
    90   6 C       93   6 C                                       1.3946366
    87   6 C       94   6 C                                       1.3950795
    93   6 C       94   6 C                                       1.3757355
    74   6 C       95   6 C                                       1.3897405
    77   6 C       95   6 C                                       1.4059116
    55   6 C       96  16 S                                       1.7411466 (max)
    95   6 C       96  16 S                                       1.7355556
    76   6 C       97   6 C                                       1.3937608
    97   6 C       98   6 C                                       1.3760501
    99   6 C      100   8 O                                       1.2202532
   101   6 C      102   6 C                                       1.3927831
   102   6 C      103   6 C                                       1.3745454
   103   6 C      104   6 C                                       1.4004007
   104   6 C      105   6 C                                       1.3751413
   101   6 C      106   6 C                                       1.4091825
   105   6 C      106   6 C                                       1.3975474
   107   6 C      108   6 C                                       1.3748036
   109   6 C      110   7 N                                       1.1488890
   111   6 C      112   7 N                                       1.1501297
   104   6 C      113   6 C                                       1.5085829
   113   6 C      114   6 C                                       1.5432834
   115   6 C      116   6 C                                       1.3268952
   114   6 C      118   6 C                                       1.5341968
   117   6 C      118   6 C                                       1.5341974
   103   6 C      119   6 C                                       1.5089589
   113   6 C      119   6 C                                       1.5624179
   117   6 C      119   6 C                                       1.5437290
     1   6 C      120   1 H                                       1.0822763
     6   6 C      121   1 H                                       1.0787851
     9   6 C      122   1 H                                       1.0772732
    17   6 C      123   1 H                                       1.0880241
    18   6 C      124   1 H                                       1.0865533
    19   6 C      125   1 H                                       1.0742359
    20   6 C      126   1 H                                       1.0742452
    21   6 C      127   1 H                                       1.0868160
    22   6 C      128   1 H                                       1.0891127
    22   6 C      129   1 H                                       1.0888456
    23   6 C      130   1 H                                       1.0881689
    27   6 C      131   1 H                                       1.0803214
    30   6 C      132   1 H                                       1.0959376
    30   6 C      133   1 H                                       1.0962172
    31   6 C      134   1 H                                       1.0862108
    31   6 C      135   1 H                                       1.0867423
    31   6 C      136   1 H                                       1.0867886
    43   6 C      137   1 H                                       1.0906789
    43   6 C      138   1 H                                       1.0923468
    44   6 C      139   1 H                                       1.0879609
    44   6 C      140   1 H                                       1.0866345
    44   6 C      141   1 H                                       1.0872624
    52   6 C      142   1 H                                       1.0945149
    52   6 C      143   1 H                                       1.0921887
    53   6 C      144   1 H                                       1.0858564
    53   6 C      145   1 H                                       1.0872142
    53   6 C      146   1 H                                       1.0867685
    59   6 C      147   1 H                                       1.0786187
    60   6 C      148   1 H                                       1.0793435
    63   6 C      149   1 H                                       1.0858442
    63   6 C      150   1 H                                       1.0855311
    63   6 C      151   1 H                                       1.0864033
    64   6 C      152   1 H                                       1.0785916
    65   6 C      153   1 H                                       1.0793469
    67   6 C      154   1 H                                       1.0784867
    68   6 C      155   1 H                                       1.0781773
    71   6 C      156   1 H                                       1.0856157
    71   6 C      157   1 H                                       1.0861704
    71   6 C      158   1 H                                       1.0860017
    72   6 C      159   1 H                                       1.0792148
    73   6 C      160   1 H                                       1.0803703
    80   6 C      161   1 H                                       1.0779730
    81   6 C      162   1 H                                       1.0783872
    84   6 C      163   1 H                                       1.0855404
    84   6 C      164   1 H                                       1.0860383
    84   6 C      165   1 H                                       1.0862133
    85   6 C      166   1 H                                       1.0779850
    86   6 C      167   1 H                                       1.0800984
    88   6 C      168   1 H                                       1.0797850
    89   6 C      169   1 H                                       1.0776687
    92   6 C      170   1 H                                       1.0860400
    92   6 C      171   1 H                                       1.0856120
    92   6 C      172   1 H                                       1.0860093
    93   6 C      173   1 H                                       1.0789419
    94   6 C      174   1 H                                       1.0797789
    97   6 C      175   1 H                                       1.0824270
   102   6 C      176   1 H                                       1.0788532
   105   6 C      177   1 H                                       1.0769655
   113   6 C      178   1 H                                       1.0883091
   114   6 C      179   1 H                                       1.0865645
   115   6 C      180   1 H                                       1.0742181 (min)
   116   6 C      181   1 H                                       1.0743191
   117   6 C      182   1 H                                       1.0868351
   118   6 C      183   1 H                                       1.0883851
   118   6 C      184   1 H                                       1.0888570
   119   6 C      185   1 H                                       1.0885280

 * 6 distinct bonds (by element types)

   Z      Z             #   av. dist./Å        max./Å        min./Å
   1 H    6 C          66     1.0840308     1.0962172     1.0742181
   6 C    6 C          80     1.4223923     1.5624179     1.3263115
   6 C    7 N          18     1.3086824     1.4090037     1.1476099
   6 C    8 O           4     1.2959741     1.4272048     1.2106932
   6 C    9 F           1     1.3400728     1.3400728     1.3400728
   6 C   16 S           5     1.7348344     1.7411466     1.7273908


optimized geometry written to: xtbopt.mol


           -------------------------------------------------
          | TOTAL ENERGY             -315.969047968751 Eh   |
          | GRADIENT NORM               0.000477709745 Eh/α |
          | HOMO-LUMO GAP               0.315330876748 eV   |
           -------------------------------------------------

------------------------------------------------------------------------
 * finished run on 2022/02/12 at 13:59:19.401     
------------------------------------------------------------------------
 total:
 * wall-time:     0 d,  0 h,  3 min, 41.975 sec
 *  cpu-time:     0 d,  0 h, 25 min, 49.089 sec
 * ratio c/w:     6.979 speedup
 SCF:
 * wall-time:     0 d,  0 h,  0 min,  2.257 sec
 *  cpu-time:     0 d,  0 h,  0 min, 11.304 sec
 * ratio c/w:     5.008 speedup
 ANC optimizer:
 * wall-time:     0 d,  0 h,  3 min, 39.580 sec
 *  cpu-time:     0 d,  0 h, 25 min, 37.013 sec
 * ratio c/w:     7.000 speedup

