      -----------------------------------------------------------      
     |                   =====================                   |     
     |                           x T B                           |     
     |                   =====================                   |     
     |                         S. Grimme                         |     
     |          Mulliken Center for Theoretical Chemistry        |     
     |                    University of Bonn                     |     
      -----------------------------------------------------------      

   * xtb version 6.4.1 (unknown) compiled by 'oda6@login1.crc.pitt.edu' on 2021-06-25

   xtb is free software: you can redistribute it and/or modify it under
   the terms of the GNU Lesser General Public License as published by
   the Free Software Foundation, either version 3 of the License, or
   (at your option) any later version.
   
   xtb is distributed in the hope that it will be useful,
   but WITHOUT ANY WARRANTY; without even the implied warranty of
   MERCHANTABILITY or FITNESS FOR A PARTICULAR PURPOSE.  See the
   GNU Lesser General Public License for more details.
   
   Cite this work as:
   * C. Bannwarth, E. Caldeweyher, S. Ehlert, A. Hansen, P. Pracht,
     J. Seibert, S. Spicher, S. Grimme, WIREs Comput. Mol. Sci., 2020, 11,
     e01493. DOI: 10.1002/wcms.1493
   
   for GFN2-xTB:
   * C. Bannwarth, S. Ehlert and S. Grimme., J. Chem. Theory Comput., 2019,
     15, 1652-1671. DOI: 10.1021/acs.jctc.8b01176
   for GFN1-xTB:
   * S. Grimme, C. Bannwarth, P. Shushkov, J. Chem. Theory Comput., 2017,
     13, 1989-2009. DOI: 10.1021/acs.jctc.7b00118
   for GFN0-xTB:
   * P. Pracht, E. Caldeweyher, S. Ehlert, S. Grimme, ChemRxiv, 2019, preprint.
     DOI: 10.26434/chemrxiv.8326202.v1
   for GFN-FF:
   * S. Spicher and S. Grimme, Angew. Chem. Int. Ed., 2020, 59, 15665-15673.
     DOI: 10.1002/anie.202004239
   
   for DFT-D4:
   * E. Caldeweyher, C. Bannwarth and S. Grimme, J. Chem. Phys., 2017,
     147, 034112. DOI: 10.1063/1.4993215
   * E. Caldeweyher, S. Ehlert, A. Hansen, H. Neugebauer, S. Spicher,
     C. Bannwarth and S. Grimme, J. Chem. Phys., 2019, 150, 154122.
     DOI: 10.1063/1.5090222
   * E. Caldeweyher, J.-M. Mewes, S. Ehlert and S. Grimme, Phys. Chem. Chem. Phys.
     2020, 22, 8499-8512. DOI: 10.1039/D0CP00502A
   
   for sTDA-xTB:
   * S. Grimme and C. Bannwarth, J. Chem. Phys., 2016, 145, 054103.
     DOI: 10.1063/1.4959605
   
   in the mass-spec context:
   * V. Asgeirsson, C. Bauer and S. Grimme, Chem. Sci., 2017, 8, 4879.
     DOI: 10.1039/c7sc00601b
   * J. Koopman and S. Grimme, ACS Omega 2019, 4, 12, 15120-15133.
     DOI: 10.1021/acsomega.9b02011
   
   for metadynamics refer to:
   * S. Grimme, J. Chem. Theory Comput., 2019, 155, 2847-2862
     DOI: 10.1021/acs.jctc.9b00143
   
   for SPH calculations refer to:
   * S. Spicher and S. Grimme, J. Chem. Theory Comput., 2021, 17, 1701-1714
     DOI: 10.1021/acs.jctc.0c01306
   
   with help from (in alphabetical order)
   P. Atkinson, C. Bannwarth, F. Bohle, G. Brandenburg, E. Caldeweyher
   M. Checinski, S. Dohm, S. Ehlert, S. Ehrlich, I. Gerasimov, J. Koopman
   C. Lavigne, S. Lehtola, F. März, M. Müller, F. Musil, H. Neugebauer
   J. Pisarek, C. Plett, P. Pracht, J. Seibert, P. Shushkov, S. Spicher
   M. Stahn, M. Steiner, T. Strunk, J. Stückrath, T. Rose, and J. Unsleber
   
 * started run on 2022/02/09 at 01:33:48.034     

           -------------------------------------------------
          |                Calculation Setup                |
           -------------------------------------------------

          program call               : /ihome/ghutchison/oda6/xtb/xtb-641/bin/xtb ../../FF_optimized/39_130_130_104_50.mol -opt
          hostname                   : smp-n26
          coordinate file            : ../../FF_optimized/39_130_130_104_50.mol
          omp threads                :                     8
          number of atoms            :                   238
          number of electrons        :                   716
          charge                     :                     0
          spin                       :                   0.0
          first test random number   :      0.37366614759044

   ID    Z sym.   atoms
    1    6 C      1-3, 5-13, 15, 17-25, 27-30, 32-38, 40-43, 45, 46, 48-51,
                  53-59, 61-64, 66, 67, 69-72, 74-80, 82-85, 87, 88, 90-93,
                  95-101, 103-106, 108-131, 133, 134, 136, 137, 139, 142-144
    2    8 O      4, 132, 135, 140, 145
    3    7 N      14, 16, 26, 47, 68, 89, 141
    4   16 S      31, 39, 44, 52, 60, 65, 73, 81, 86, 94, 102, 107, 138
    5    1 H      146-238
########################################################################
[WARNING] Please study the warnings concerning your input carefully
-1- prog_main_parseArguments: the use of '-opt' is discouraged, please use '--opt' next time
########################################################################

           -------------------------------------------------
          |                 G F N 2 - x T B                 |
           -------------------------------------------------

        Reference                      10.1021/acs.jctc.8b01176
      * Hamiltonian:
        H0-scaling (s, p, d)           1.850000    2.230000    2.230000
        zeta-weighting                 0.500000
      * Dispersion:
        s8                             2.700000
        a1                             0.520000
        a2                             5.000000
        s9                             5.000000
      * Repulsion:
        kExp                           1.500000    1.000000
        rExp                           1.000000
      * Coulomb:
        alpha                          2.000000
        third order                    shell-resolved
        anisotropic                    true
        a3                             3.000000
        a5                             4.000000
        cn-shift                       1.200000
        cn-exp                         4.000000
        max-rad                        5.000000


          ...................................................
          :                      SETUP                      :
          :.................................................:
          :  # basis functions                 751          :
          :  # atomic orbitals                 738          :
          :  # shells                          396          :
          :  # electrons                       716          :
          :  max. iterations                   250          :
          :  Hamiltonian                  GFN2-xTB          :
          :  restarted?                      false          :
          :  GBSA solvation                  false          :
          :  PC potential                    false          :
          :  electronic temp.          300.0000000     K    :
          :  accuracy                    1.0000000          :
          :  -> integral cutoff          0.2500000E+02      :
          :  -> integral neglect         0.1000000E-07      :
          :  -> SCF convergence          0.1000000E-05 Eh   :
          :  -> wf. convergence          0.1000000E-03 e    :
          :  Broyden damping             0.4000000          :
          ...................................................

 iter      E             dE          RMSdq      gap      omega  full diag
   1   -392.4519678 -0.392452E+03  0.461E+00    1.11       0.0  T
   2   -392.7736738 -0.321706E+00  0.271E+00    0.98       1.0  T
   3   -392.4640388  0.309635E+00  0.160E+00    0.47       1.0  T
   4   -392.8267076 -0.362669E+00  0.659E-01    0.89       1.0  T
   5   -392.8998485 -0.731409E-01  0.237E-01    0.56       1.0  T
   6   -392.9034190 -0.357041E-02  0.140E-01    0.72       1.0  T
   7   -392.9066771 -0.325811E-02  0.548E-02    0.69       1.0  T
   8   -392.9070685 -0.391448E-03  0.264E-02    0.70       1.0  T
   9   -392.9071524 -0.839270E-04  0.140E-02    0.71       1.0  T
  10   -392.9071686 -0.161603E-04  0.727E-03    0.71       1.0  T
  11   -392.9071753 -0.674711E-05  0.232E-03    0.71       2.8  T
  12   -392.9071758 -0.478977E-06  0.133E-03    0.71       4.9  T
  13   -392.9071760 -0.206880E-06  0.604E-04    0.71      10.7  T
  14   -392.9071761 -0.294917E-07  0.271E-04    0.71      23.9  T

   *** convergence criteria satisfied after 14 iterations ***

         #    Occupation            Energy/Eh            Energy/eV
      -------------------------------------------------------------
         1        2.0000           -0.7655421             -20.8315
       ...           ...                  ...                  ...
       352        2.0000           -0.3679536             -10.0125
       353        2.0000           -0.3655619              -9.9474
       354        2.0000           -0.3636951              -9.8966
       355        2.0000           -0.3620397              -9.8516
       356        2.0000           -0.3609558              -9.8221
       357        2.0000           -0.3593004              -9.7771
       358        2.0000           -0.3574473              -9.7266 (HOMO)
       359        0.0000           -0.3314659              -9.0196 (LUMO)
       360                         -0.3237996              -8.8110
       361                         -0.3214683              -8.7476
       362                         -0.3043936              -8.2830
       363                         -0.2840776              -7.7301
       ...                                ...                  ...
       738                          1.0756700              29.2705
      -------------------------------------------------------------
                  HL-Gap            0.0259814 Eh            0.7070 eV
             Fermi-level           -0.3443795 Eh           -9.3710 eV

 SCC (total)                   0 d,  0 h,  0 min,  0.959 sec
 SCC setup                      ...        0 min,  0.004 sec (  0.391%)
 Dispersion                     ...        0 min,  0.012 sec (  1.266%)
 classical contributions        ...        0 min,  0.000 sec (  0.052%)
 integral evaluation            ...        0 min,  0.049 sec (  5.141%)
 iterations                     ...        0 min,  0.700 sec ( 73.005%)
 molecular gradient             ...        0 min,  0.189 sec ( 19.681%)
 printout                       ...        0 min,  0.004 sec (  0.456%)

         :::::::::::::::::::::::::::::::::::::::::::::::::::::
         ::                     SUMMARY                     ::
         :::::::::::::::::::::::::::::::::::::::::::::::::::::
         :: total energy            -387.206942397745 Eh    ::
         :: gradient norm              0.364852521819 Eh/a0 ::
         :: HOMO-LUMO gap              0.706990442360 eV    ::
         ::.................................................::
         :: SCC energy              -392.907176059191 Eh    ::
         :: -> isotropic ES            0.161124126501 Eh    ::
         :: -> anisotropic ES          0.034689651971 Eh    ::
         :: -> anisotropic XC          0.228971084235 Eh    ::
         :: -> dispersion             -0.402817004068 Eh    ::
         :: repulsion energy           5.677580311884 Eh    ::
         :: add. restraining           0.000000000000 Eh    ::
         :: total charge               0.000000000899 e     ::
         :::::::::::::::::::::::::::::::::::::::::::::::::::::

      ----------------------------------------------------------- 
     |                   =====================                   |
     |                        A N C O P T                        |
     |                   =====================                   |
     |               Approximate Normal Coordinate               |
     |                Rational Function Optimizer                |
      ----------------------------------------------------------- 

          ...................................................
          :                      SETUP                      :
          :.................................................:
          :   optimization level            normal          :
          :   max. optcycles                   714          :
          :   ANC micro-cycles                  20          :
          :   degrees of freedom               708          :
          :.................................................:
          :   RF solver                   davidson          :
          :   write xtbopt.log                true          :
          :   linear?                        false          :
          :   energy convergence         0.5000000E-05 Eh   :
          :   grad. convergence          0.1000000E-02 Eh/α :
          :   maximium RF displ.         1.0000000          :
          :   Hlow (freq-cutoff)         0.1000000E-01      :
          :   Hmax (freq-cutoff)         5.0000000          :
          :   S6 in model hess.         20.0000000          :
          ...................................................

generating ANC from model Hessian ...
Using Lindh-Hessian (1995)
 Shifting diagonal of input Hessian by   1.000625769895808E-002
 Lowest  eigenvalues of input Hessian
    0.010000    0.000000    0.000000    0.000000    0.000000    0.000000
    0.000000    0.010012    0.010024    0.010032    0.010051    0.010064
    0.010086    0.010092    0.010108    0.010115    0.010130    0.010154
 Highest eigenvalues
    2.159260    2.177787    2.189352    2.315944    2.501340    2.559209
 

........................................................................
.............................. CYCLE    1 ..............................
........................................................................
   1   -392.9071761 -0.392907E+03  0.128E-04    0.71       0.0  T
   2   -392.9071761  0.258524E-09  0.109E-04    0.71      59.6  T
   3   -392.9071761 -0.229863E-08  0.547E-05    0.71     118.5  T
     SCC iter.                  ...        0 min,  0.155 sec
     gradient                   ...        0 min,  0.182 sec
 * total energy  :  -387.2069424 Eh     change       -0.7891970E-08 Eh
   gradient norm :     0.3648556 Eh/α   predicted     0.0000000E+00 (-100.00%)
   displ. norm   :     0.4807036 α      lambda       -0.1325664E+00
   maximum displ.:     0.0975818 α      in ANC's #432, #441, #580, ...

........................................................................
.............................. CYCLE    2 ..............................
........................................................................
   1   -393.1732411 -0.393173E+03  0.236E-01    0.73       0.0  T
   2   -393.1758939 -0.265281E-02  0.152E-01    0.73       1.0  T
   3   -393.1762501 -0.356184E-03  0.838E-02    0.74       1.0  T
   4   -393.1765924 -0.342364E-03  0.428E-02    0.74       1.0  T
   5   -393.1769258 -0.333426E-03  0.158E-02    0.74       1.0  T
   6   -393.1769643 -0.384891E-04  0.660E-03    0.74       1.0  T
   7   -393.1769703 -0.595356E-05  0.325E-03    0.74       2.0  T
   8   -393.1769720 -0.174979E-05  0.121E-03    0.74       5.4  T
   9   -393.1769721 -0.994879E-07  0.708E-04    0.74       9.2  T
  10   -393.1769722 -0.491556E-07  0.349E-04    0.74      18.6  T
     SCC iter.                  ...        0 min,  0.493 sec
     gradient                   ...        0 min,  0.186 sec
 * total energy  :  -387.3038112 Eh     change       -0.9686881E-01 Eh
   gradient norm :     0.1660094 Eh/α   predicted    -0.8163618E-01 ( -15.73%)
   displ. norm   :     0.4912979 α      lambda       -0.5383834E-01
   maximum displ.:     0.0872348 α      in ANC's #189, #201, #157, ...

........................................................................
.............................. CYCLE    3 ..............................
........................................................................
   1   -393.3562206 -0.393356E+03  0.186E-01    0.73       0.0  T
   2   -393.3577762 -0.155561E-02  0.120E-01    0.74       1.0  T
   3   -393.3580536 -0.277418E-03  0.698E-02    0.74       1.0  T
   4   -393.3584033 -0.349727E-03  0.350E-02    0.74       1.0  T
   5   -393.3586271 -0.223736E-03  0.136E-02    0.74       1.0  T
   6   -393.3586580 -0.309088E-04  0.525E-03    0.74       1.2  T
   7   -393.3586619 -0.388649E-05  0.265E-03    0.74       2.4  T
   8   -393.3586628 -0.978422E-06  0.110E-03    0.74       5.9  T
   9   -393.3586629 -0.959095E-07  0.633E-04    0.74      10.2  T
  10   -393.3586630 -0.376803E-07  0.288E-04    0.74      22.5  T
     SCC iter.                  ...        0 min,  0.479 sec
     gradient                   ...        0 min,  0.184 sec
 * total energy  :  -387.3380815 Eh     change       -0.3427034E-01 Eh
   gradient norm :     0.0490437 Eh/α   predicted    -0.3341675E-01 (  -2.49%)
   displ. norm   :     0.5385104 α      lambda       -0.1471556E-01
   maximum displ.:     0.1159366 α      in ANC's #98, #106, #111, ...

........................................................................
.............................. CYCLE    4 ..............................
........................................................................
   1   -393.4149589 -0.393415E+03  0.117E-01    0.74       0.0  T
   2   -393.4151716 -0.212744E-03  0.743E-02    0.75       1.0  T
   3   -393.4148806  0.290991E-03  0.484E-02    0.75       1.0  T
   4   -393.4153697 -0.489030E-03  0.167E-02    0.76       1.0  T
   5   -393.4154307 -0.610018E-04  0.669E-03    0.75       1.0  T
   6   -393.4154385 -0.781418E-05  0.252E-03    0.75       2.6  T
   7   -393.4154390 -0.505112E-06  0.138E-03    0.75       4.7  T
   8   -393.4154393 -0.306114E-06  0.605E-04    0.75      10.7  T
   9   -393.4154393 -0.300146E-07  0.363E-04    0.75      17.9  T
     SCC iter.                  ...        0 min,  0.442 sec
     gradient                   ...        0 min,  0.188 sec
 * total energy  :  -387.3489558 Eh     change       -0.1087426E-01 Eh
   gradient norm :     0.0240284 Eh/α   predicted    -0.9491693E-02 ( -12.71%)
   displ. norm   :     0.5936601 α      lambda       -0.8091450E-02
   maximum displ.:     0.1440340 α      in ANC's #98, #111, #106, ...

........................................................................
.............................. CYCLE    5 ..............................
........................................................................
   1   -393.4413088 -0.393441E+03  0.110E-01    0.75       0.0  T
   2   -393.4413956 -0.867356E-04  0.678E-02    0.76       1.0  T
   3   -393.4408551  0.540473E-03  0.486E-02    0.75       1.0  T
   4   -393.4415468 -0.691676E-03  0.124E-02    0.76       1.0  T
   5   -393.4415776 -0.308443E-04  0.537E-03    0.76       1.2  T
   6   -393.4415820 -0.436563E-05  0.221E-03    0.76       2.9  T
   7   -393.4415824 -0.392781E-06  0.113E-03    0.76       5.7  T
   8   -393.4415826 -0.213667E-06  0.505E-04    0.76      12.8  T
   9   -393.4415826 -0.181859E-07  0.299E-04    0.76      21.7  T
     SCC iter.                  ...        0 min,  0.439 sec
     gradient                   ...        0 min,  0.185 sec
 * total energy  :  -387.3550028 Eh     change       -0.6046981E-02 Eh
   gradient norm :     0.0177296 Eh/α   predicted    -0.5471725E-02 (  -9.51%)
   displ. norm   :     0.5986465 α      lambda       -0.4684941E-02
   maximum displ.:     0.1524469 α      in ANC's #56, #111, #98, ...

........................................................................
.............................. CYCLE    6 ..............................
........................................................................
   1   -393.4571099 -0.393457E+03  0.948E-02    0.76       0.0  T
   2   -393.4571402 -0.303273E-04  0.574E-02    0.78       1.0  T
   3   -393.4566465  0.493769E-03  0.439E-02    0.77       1.0  T
   4   -393.4572528 -0.606313E-03  0.953E-03    0.78       1.0  T
   5   -393.4572680 -0.152099E-04  0.427E-03    0.78       1.5  T
   6   -393.4572703 -0.228575E-05  0.185E-03    0.78       3.5  T
   7   -393.4572707 -0.428317E-06  0.850E-04    0.78       7.6  T
   8   -393.4572708 -0.122812E-06  0.380E-04    0.78      17.0  T
     SCC iter.                  ...        0 min,  0.404 sec
     gradient                   ...        0 min,  0.183 sec
 * total energy  :  -387.3585301 Eh     change       -0.3527306E-02 Eh
   gradient norm :     0.0165748 Eh/α   predicted    -0.3181961E-02 (  -9.79%)
   displ. norm   :     0.6471281 α      lambda       -0.3521646E-02
   maximum displ.:     0.2008951 α      in ANC's #56, #53, #111, ...

........................................................................
.............................. CYCLE    7 ..............................
........................................................................
   1   -393.4591343 -0.393459E+03  0.128E-01    0.75       0.0  T
   2   -393.4591632 -0.288685E-04  0.739E-02    0.77       1.0  T
   3   -393.4581874  0.975716E-03  0.559E-02    0.75       1.0  T
   4   -393.4592978 -0.111040E-02  0.902E-03    0.77       1.0  T
   5   -393.4593086 -0.107750E-04  0.466E-03    0.77       1.4  T
   6   -393.4593111 -0.249356E-05  0.208E-03    0.77       3.1  T
   7   -393.4593118 -0.695490E-06  0.784E-04    0.77       8.3  T
   8   -393.4593119 -0.100752E-06  0.354E-04    0.77      18.3  T
     SCC iter.                  ...        0 min,  0.396 sec
     gradient                   ...        0 min,  0.186 sec
 * total energy  :  -387.3609653 Eh     change       -0.2435170E-02 Eh
   gradient norm :     0.0258586 Eh/α   predicted    -0.2498213E-02 (   2.59%)
   displ. norm   :     0.6521663 α      lambda       -0.3204247E-02
   maximum displ.:     0.2204877 α      in ANC's #56, #53, #23, ...

........................................................................
.............................. CYCLE    8 ..............................
........................................................................
   1   -393.4737047 -0.393474E+03  0.106E-01    0.78       0.0  T
   2   -393.4737356 -0.309414E-04  0.609E-02    0.80       1.0  T
   3   -393.4732047  0.530946E-03  0.422E-02    0.79       1.0  T
   4   -393.4738070 -0.602351E-03  0.918E-03    0.81       1.0  T
   5   -393.4738208 -0.138077E-04  0.420E-03    0.80       1.5  T
   6   -393.4738226 -0.172715E-05  0.193E-03    0.80       3.4  T
   7   -393.4738233 -0.771124E-06  0.676E-04    0.80       9.6  T
   8   -393.4738234 -0.879055E-07  0.267E-04    0.80      24.3  T
     SCC iter.                  ...        0 min,  0.398 sec
     gradient                   ...        0 min,  0.185 sec
 * total energy  :  -387.3631109 Eh     change       -0.2145664E-02 Eh
   gradient norm :     0.0217723 Eh/α   predicted    -0.2283565E-02 (   6.43%)
   displ. norm   :     0.6298377 α      lambda       -0.2550046E-02
   maximum displ.:     0.2327766 α      in ANC's #56, #23, #53, ...

........................................................................
.............................. CYCLE    9 ..............................
........................................................................
   1   -393.4682215 -0.393468E+03  0.104E-01    0.79       0.0  T
   2   -393.4682437 -0.221537E-04  0.584E-02    0.80       1.0  T
   3   -393.4678183  0.425354E-03  0.367E-02    0.79       1.0  T
   4   -393.4682872 -0.468815E-03  0.747E-03    0.80       1.0  T
   5   -393.4682934 -0.619970E-05  0.412E-03    0.80       1.6  T
   6   -393.4682957 -0.235473E-05  0.154E-03    0.80       4.2  T
   7   -393.4682961 -0.432952E-06  0.534E-04    0.80      12.1  T
   8   -393.4682962 -0.442181E-07  0.257E-04    0.80      25.2  T
     SCC iter.                  ...        0 min,  0.396 sec
     gradient                   ...        0 min,  0.185 sec
 * total energy  :  -387.3651279 Eh     change       -0.2016938E-02 Eh
   gradient norm :     0.0223816 Eh/α   predicted    -0.1780829E-02 ( -11.71%)
   displ. norm   :     0.7401726 α      lambda       -0.3321464E-02
   maximum displ.:     0.2823647 α      in ANC's #56, #53, #23, ...

........................................................................
.............................. CYCLE   10 ..............................
........................................................................
   1   -393.4707583 -0.393471E+03  0.129E-01    0.80       0.0  T
   2   -393.4708180 -0.597802E-04  0.712E-02    0.81       1.0  T
   3   -393.4706606  0.157413E-03  0.256E-02    0.80       1.0  T
   4   -393.4708315 -0.170898E-03  0.859E-03    0.81       1.0  T
   5   -393.4708407 -0.918223E-05  0.473E-03    0.80       1.4  T
   6   -393.4708453 -0.456369E-05  0.151E-03    0.81       4.3  T
   7   -393.4708457 -0.391464E-06  0.706E-04    0.80       9.2  T
   8   -393.4708458 -0.891198E-07  0.318E-04    0.81      20.4  T
     SCC iter.                  ...        0 min,  0.395 sec
     gradient                   ...        0 min,  0.184 sec
 * total energy  :  -387.3672985 Eh     change       -0.2170658E-02 Eh
   gradient norm :     0.0340859 Eh/α   predicted    -0.2570587E-02 (  18.42%)
   displ. norm   :     0.6733951 α      lambda       -0.3040197E-02
   maximum displ.:     0.2578492 α      in ANC's #56, #23, #22, ...

........................................................................
.............................. CYCLE   11 ..............................
........................................................................
   1   -393.4705773 -0.393471E+03  0.108E-01    0.80       0.0  T
   2   -393.4706121 -0.348606E-04  0.589E-02    0.80       1.0  T
   3   -393.4704586  0.153509E-03  0.236E-02    0.80       1.0  T
   4   -393.4706207 -0.162093E-03  0.830E-03    0.80       1.0  T
   5   -393.4706302 -0.943050E-05  0.445E-03    0.80       1.5  T
   6   -393.4706339 -0.376175E-05  0.148E-03    0.80       4.4  T
   7   -393.4706343 -0.392288E-06  0.570E-04    0.80      11.4  T
   8   -393.4706344 -0.510051E-07  0.269E-04    0.80      24.1  T
     SCC iter.                  ...        0 min,  0.398 sec
     gradient                   ...        0 min,  0.188 sec
 * total energy  :  -387.3695924 Eh     change       -0.2293862E-02 Eh
   gradient norm :     0.0174138 Eh/α   predicted    -0.2209415E-02 (  -3.68%)
   displ. norm   :     0.7641432 α      lambda       -0.2524770E-02
   maximum displ.:     0.3123236 α      in ANC's #56, #23, #22, ...

........................................................................
.............................. CYCLE   12 ..............................
........................................................................
   1   -393.4676025 -0.393468E+03  0.109E-01    0.80       0.0  T
   2   -393.4676282 -0.256887E-04  0.599E-02    0.80       1.0  T
   3   -393.4672988  0.329345E-03  0.329E-02    0.80       1.0  T
   4   -393.4676546 -0.355739E-03  0.942E-03    0.81       1.0  T
   5   -393.4676666 -0.120298E-04  0.504E-03    0.80       1.3  T
   6   -393.4676704 -0.378449E-05  0.167E-03    0.80       3.9  T
   7   -393.4676709 -0.575285E-06  0.563E-04    0.80      11.5  T
   8   -393.4676710 -0.644313E-07  0.247E-04    0.80      26.2  T
     SCC iter.                  ...        0 min,  0.395 sec
     gradient                   ...        0 min,  0.185 sec
 * total energy  :  -387.3718460 Eh     change       -0.2253567E-02 Eh
   gradient norm :     0.0163698 Eh/α   predicted    -0.1999513E-02 ( -11.27%)
   displ. norm   :     0.7938398 α      lambda       -0.2769912E-02
   maximum displ.:     0.3296672 α      in ANC's #56, #23, #22, ...

........................................................................
.............................. CYCLE   13 ..............................
........................................................................
   1   -393.4794033 -0.393479E+03  0.113E-01    0.81       0.0  T
   2   -393.4794365 -0.332366E-04  0.613E-02    0.81       1.0  T
   3   -393.4793071  0.129469E-03  0.235E-02    0.80       1.0  T
   4   -393.4794431 -0.136046E-03  0.928E-03    0.81       1.0  T
   5   -393.4794522 -0.908802E-05  0.511E-03    0.80       1.3  T
   6   -393.4794576 -0.541502E-05  0.152E-03    0.81       4.3  T
   7   -393.4794582 -0.564277E-06  0.529E-04    0.80      12.3  T
   8   -393.4794582 -0.514230E-07  0.243E-04    0.80      26.7  T
     SCC iter.                  ...        0 min,  0.392 sec
     gradient                   ...        0 min,  0.185 sec
 * total energy  :  -387.3742098 Eh     change       -0.2363810E-02 Eh
   gradient norm :     0.0150949 Eh/α   predicted    -0.2257746E-02 (  -4.49%)
   displ. norm   :     0.8610878 α      lambda       -0.2473888E-02
   maximum displ.:     0.3632579 α      in ANC's #56, #23, #22, ...

........................................................................
.............................. CYCLE   14 ..............................
........................................................................
   1   -393.4746728 -0.393475E+03  0.121E-01    0.80       0.0  T
   2   -393.4747084 -0.355814E-04  0.653E-02    0.80       1.0  T
   3   -393.4745641  0.144286E-03  0.247E-02    0.80       1.0  T
   4   -393.4747111 -0.146963E-03  0.100E-02    0.81       1.0  T
   5   -393.4747245 -0.134821E-04  0.516E-03    0.80       1.3  T
   6   -393.4747299 -0.535389E-05  0.161E-03    0.80       4.0  T
   7   -393.4747305 -0.566550E-06  0.587E-04    0.80      11.0  T
   8   -393.4747305 -0.727113E-07  0.265E-04    0.80      24.5  T
     SCC iter.                  ...        0 min,  0.402 sec
     gradient                   ...        0 min,  0.185 sec
 * total energy  :  -387.3763974 Eh     change       -0.2187591E-02 Eh
   gradient norm :     0.0136428 Eh/α   predicted    -0.2154093E-02 (  -1.53%)
   displ. norm   :     0.8266841 α      lambda       -0.2395112E-02
   maximum displ.:     0.3393633 α      in ANC's #56, #22, #23, ...

........................................................................
.............................. CYCLE   15 ..............................
........................................................................
   1   -393.4859501 -0.393486E+03  0.114E-01    0.80       0.0  T
   2   -393.4859799 -0.298011E-04  0.604E-02    0.80       1.0  T
   3   -393.4859485  0.313698E-04  0.154E-02    0.80       1.0  T
   4   -393.4859762 -0.276699E-04  0.882E-03    0.80       1.0  T
   5   -393.4859858 -0.967201E-05  0.375E-03    0.80       1.7  T
   6   -393.4859893 -0.342626E-05  0.122E-03    0.80       5.3  T
   7   -393.4859896 -0.337220E-06  0.503E-04    0.80      12.9  T
   8   -393.4859896 -0.477934E-07  0.246E-04    0.80      26.4  T
     SCC iter.                  ...        0 min,  0.394 sec
     gradient                   ...        0 min,  0.192 sec
 * total energy  :  -387.3785171 Eh     change       -0.2119720E-02 Eh
   gradient norm :     0.0133929 Eh/α   predicted    -0.2015976E-02 (  -4.89%)
   displ. norm   :     0.8581611 α      lambda       -0.2263740E-02
   maximum displ.:     0.3493360 α      in ANC's #56, #22, #23, ...

........................................................................
.............................. CYCLE   16 ..............................
........................................................................
   1   -393.4853455 -0.393485E+03  0.116E-01    0.80       0.0  T
   2   -393.4853817 -0.362030E-04  0.615E-02    0.80       1.0  T
   3   -393.4853492  0.324285E-04  0.156E-02    0.80       1.0  T
   4   -393.4853770 -0.277986E-04  0.897E-03    0.80       1.0  T
   5   -393.4853893 -0.122363E-04  0.356E-03    0.80       1.8  T
   6   -393.4853918 -0.252664E-05  0.117E-03    0.80       5.5  T
   7   -393.4853921 -0.322291E-06  0.487E-04    0.80      13.3  T
   8   -393.4853922 -0.533472E-07  0.237E-04    0.80      27.3  T
     SCC iter.                  ...        0 min,  0.402 sec
     gradient                   ...        0 min,  0.185 sec
 * total energy  :  -387.3805766 Eh     change       -0.2059522E-02 Eh
   gradient norm :     0.0120971 Eh/α   predicted    -0.1965427E-02 (  -4.57%)
   displ. norm   :     0.8524057 α      lambda       -0.2359813E-02
   maximum displ.:     0.3171444 α      in ANC's #56, #22, #23, ...

........................................................................
.............................. CYCLE   17 ..............................
........................................................................
   1   -393.4974519 -0.393497E+03  0.114E-01    0.80       0.0  T
   2   -393.4974917 -0.398124E-04  0.596E-02    0.80       1.0  T
   3   -393.4974571  0.346178E-04  0.158E-02    0.81       1.0  T
   4   -393.4974880 -0.309533E-04  0.903E-03    0.80       1.0  T
   5   -393.4974990 -0.110183E-04  0.418E-03    0.81       1.6  T
   6   -393.4975027 -0.362602E-05  0.145E-03    0.81       4.5  T
   7   -393.4975032 -0.522892E-06  0.554E-04    0.81      11.7  T
   8   -393.4975033 -0.687457E-07  0.246E-04    0.81      26.4  T
     SCC iter.                  ...        0 min,  0.400 sec
     gradient                   ...        0 min,  0.185 sec
 * total energy  :  -387.3826067 Eh     change       -0.2030138E-02 Eh
   gradient norm :     0.0120844 Eh/α   predicted    -0.2037229E-02 (   0.35%)
   displ. norm   :     0.8860514 α      lambda       -0.2218707E-02
   maximum displ.:     0.3450681 α      in ANC's #56, #22, #23, ...

........................................................................
.............................. CYCLE   18 ..............................
........................................................................
   1   -393.4878310 -0.393488E+03  0.118E-01    0.80       0.0  T
   2   -393.4878722 -0.412330E-04  0.623E-02    0.81       1.0  T
   3   -393.4878240  0.482562E-04  0.168E-02    0.80       1.0  T
   4   -393.4878608 -0.367900E-04  0.999E-03    0.81       1.0  T
   5   -393.4878797 -0.189369E-04  0.453E-03    0.81       1.4  T
   6   -393.4878841 -0.441915E-05  0.151E-03    0.81       4.3  T
   7   -393.4878846 -0.499306E-06  0.540E-04    0.81      12.0  T
   8   -393.4878847 -0.590135E-07  0.224E-04    0.81      29.0  T
     SCC iter.                  ...        0 min,  0.392 sec
     gradient                   ...        0 min,  0.185 sec
 * total energy  :  -387.3845691 Eh     change       -0.1962397E-02 Eh
   gradient norm :     0.0110336 Eh/α   predicted    -0.1980297E-02 (   0.91%)
   displ. norm   :     0.8514005 α      lambda       -0.2157831E-02
   maximum displ.:     0.2794672 α      in ANC's #56, #22, #24, ...

........................................................................
.............................. CYCLE   19 ..............................
........................................................................
   1   -393.4950133 -0.393495E+03  0.109E-01    0.81       0.0  T
   2   -393.4950519 -0.386316E-04  0.573E-02    0.81       1.0  T
   3   -393.4950207  0.311770E-04  0.160E-02    0.81       1.0  T
   4   -393.4950544 -0.337236E-04  0.807E-03    0.81       1.0  T
   5   -393.4950608 -0.634441E-05  0.335E-03    0.81       1.9  T
   6   -393.4950624 -0.165750E-05  0.138E-03    0.81       4.7  T
   7   -393.4950629 -0.494511E-06  0.522E-04    0.81      12.4  T
   8   -393.4950630 -0.646711E-07  0.223E-04    0.81      29.1  T
     SCC iter.                  ...        0 min,  0.389 sec
     gradient                   ...        0 min,  0.185 sec
 * total energy  :  -387.3864064 Eh     change       -0.1837289E-02 Eh
   gradient norm :     0.0159293 Eh/α   predicted    -0.1861010E-02 (   1.29%)
   displ. norm   :     0.8638491 α      lambda       -0.2147055E-02
   maximum displ.:     0.2975356 α      in ANC's #56, #22, #24, ...

........................................................................
.............................. CYCLE   20 ..............................
........................................................................
   1   -393.4836516 -0.393484E+03  0.111E-01    0.81       0.0  T
   2   -393.4836949 -0.433119E-04  0.582E-02    0.81       1.0  T
   3   -393.4836594  0.355614E-04  0.162E-02    0.81       1.0  T
   4   -393.4836896 -0.301973E-04  0.925E-03    0.81       1.0  T
   5   -393.4837016 -0.120657E-04  0.448E-03    0.81       1.4  T
   6   -393.4837058 -0.414136E-05  0.153E-03    0.81       4.2  T
   7   -393.4837063 -0.543436E-06  0.503E-04    0.81      12.9  T
   8   -393.4837064 -0.482611E-07  0.221E-04    0.81      29.3  T
     SCC iter.                  ...        0 min,  0.402 sec
     gradient                   ...        0 min,  0.185 sec
 * total energy  :  -387.3882756 Eh     change       -0.1869180E-02 Eh
   gradient norm :     0.0121669 Eh/α   predicted    -0.1874638E-02 (   0.29%)
   displ. norm   :     0.8204085 α      lambda       -0.2074543E-02
   maximum displ.:     0.2325658 α      in ANC's #24, #22, #56, ...
 * RMSD in coord.:     0.7644942 α      energy gain  -0.1813332E+00 Eh

generating ANC from model Hessian ...
Using Lindh-Hessian (1995)
 Shifting diagonal of input Hessian by   1.003200349923636E-002
 Lowest  eigenvalues of input Hessian
    0.010000    0.010021    0.000000    0.000000    0.000000    0.000000
    0.000000    0.000000    0.010045    0.010049    0.010071    0.010082
    0.010106    0.010118    0.010142    0.010153    0.010177    0.010188
 Highest eigenvalues
    2.174454    2.285117    2.319491    2.445922    2.604547    2.646883
 

........................................................................
.............................. CYCLE   21 ..............................
........................................................................
   1   -393.4934621 -0.393493E+03  0.101E-01    0.80       0.0  T
   2   -393.4934970 -0.348973E-04  0.531E-02    0.81       1.0  T
   3   -393.4934706  0.264589E-04  0.152E-02    0.80       1.0  T
   4   -393.4935026 -0.320091E-04  0.687E-03    0.81       1.0  T
   5   -393.4935062 -0.364324E-05  0.273E-03    0.81       2.4  T
   6   -393.4935073 -0.103586E-05  0.113E-03    0.81       5.7  T
   7   -393.4935076 -0.349481E-06  0.443E-04    0.81      14.6  T
   8   -393.4935077 -0.437773E-07  0.218E-04    0.81      29.7  T
     SCC iter.                  ...        0 min,  0.393 sec
     gradient                   ...        0 min,  0.184 sec
 * total energy  :  -387.3900321 Eh     change       -0.1756521E-02 Eh
   gradient norm :     0.0143486 Eh/α   predicted     0.0000000E+00 (-100.00%)
   displ. norm   :     0.2077937 α      lambda       -0.8122765E-03
   maximum displ.:     0.0634905 α      in ANC's #43, #25, #8, ...

........................................................................
.............................. CYCLE   22 ..............................
........................................................................
   1   -393.4980331 -0.393498E+03  0.335E-02    0.80       0.0  T
   2   -393.4980391 -0.601805E-05  0.185E-02    0.80       1.0  T
   3   -393.4980270  0.121053E-04  0.762E-03    0.80       1.0  T
   4   -393.4980402 -0.131770E-04  0.286E-03    0.80       2.3  T
   5   -393.4980415 -0.123846E-05  0.131E-03    0.80       4.9  T
   6   -393.4980417 -0.197369E-06  0.647E-04    0.80      10.0  T
   7   -393.4980417 -0.916787E-07  0.222E-04    0.80      29.1  T
     SCC iter.                  ...        0 min,  0.348 sec
     gradient                   ...        0 min,  0.184 sec
 * total energy  :  -387.3907128 Eh     change       -0.6806811E-03 Eh
   gradient norm :     0.0054380 Eh/α   predicted    -0.4236900E-03 ( -37.76%)
   displ. norm   :     0.6219003 α      lambda       -0.1712602E-02
   maximum displ.:     0.1975403 α      in ANC's #43, #25, #8, ...

........................................................................
.............................. CYCLE   23 ..............................
........................................................................
   1   -393.5022815 -0.393502E+03  0.897E-02    0.80       0.0  T
   2   -393.5023104 -0.288746E-04  0.483E-02    0.80       1.0  T
   3   -393.5022328  0.775573E-04  0.186E-02    0.81       1.0  T
   4   -393.5023143 -0.815020E-04  0.757E-03    0.80       1.0  T
   5   -393.5023220 -0.769587E-05  0.367E-03    0.80       1.8  T
   6   -393.5023242 -0.220637E-05  0.144E-03    0.80       4.5  T
   7   -393.5023247 -0.498658E-06  0.517E-04    0.80      12.5  T
   8   -393.5023248 -0.564003E-07  0.254E-04    0.80      25.5  T
     SCC iter.                  ...        0 min,  0.417 sec
     gradient                   ...        0 min,  0.184 sec
 * total energy  :  -387.3919507 Eh     change       -0.1237870E-02 Eh
   gradient norm :     0.0157084 Eh/α   predicted    -0.1187830E-02 (  -4.04%)
   displ. norm   :     0.7116726 α      lambda       -0.1773749E-02
   maximum displ.:     0.2271165 α      in ANC's #43, #25, #8, ...

........................................................................
.............................. CYCLE   24 ..............................
........................................................................
   1   -393.4990468 -0.393499E+03  0.108E-01    0.79       0.0  T
   2   -393.4990829 -0.360860E-04  0.576E-02    0.80       1.0  T
   3   -393.4990385  0.444241E-04  0.161E-02    0.79       1.0  T
   4   -393.4990894 -0.508904E-04  0.716E-03    0.80       1.0  T
   5   -393.4990946 -0.525760E-05  0.343E-03    0.79       1.9  T
   6   -393.4990970 -0.235862E-05  0.121E-03    0.80       5.3  T
   7   -393.4990973 -0.348963E-06  0.520E-04    0.80      12.5  T
   8   -393.4990974 -0.509225E-07  0.275E-04    0.80      23.6  T
     SCC iter.                  ...        0 min,  0.392 sec
     gradient                   ...        0 min,  0.184 sec
 * total energy  :  -387.3932564 Eh     change       -0.1305694E-02 Eh
   gradient norm :     0.0237532 Eh/α   predicted    -0.1336088E-02 (   2.33%)
   displ. norm   :     0.6759851 α      lambda       -0.1777281E-02
   maximum displ.:     0.2143403 α      in ANC's #43, #25, #8, ...

........................................................................
.............................. CYCLE   25 ..............................
........................................................................
   1   -393.4953397 -0.393495E+03  0.975E-02    0.79       0.0  T
   2   -393.4953693 -0.296670E-04  0.519E-02    0.79       1.0  T
   3   -393.4953403  0.290485E-04  0.136E-02    0.79       1.0  T
   4   -393.4953706 -0.303294E-04  0.690E-03    0.79       1.0  T
   5   -393.4953763 -0.567084E-05  0.344E-03    0.79       1.9  T
   6   -393.4953789 -0.262477E-05  0.124E-03    0.79       5.2  T
   7   -393.4953793 -0.413017E-06  0.430E-04    0.79      15.1  T
   8   -393.4953794 -0.350843E-07  0.207E-04    0.79      31.3  T
     SCC iter.                  ...        0 min,  0.392 sec
     gradient                   ...        0 min,  0.183 sec
 * total energy  :  -387.3948418 Eh     change       -0.1585474E-02 Eh
   gradient norm :     0.0218661 Eh/α   predicted    -0.1294713E-02 ( -18.34%)
   displ. norm   :     0.6683864 α      lambda       -0.2769153E-02
   maximum displ.:     0.1992107 α      in ANC's #43, #25, #8, ...

........................................................................
.............................. CYCLE   26 ..............................
........................................................................
   1   -393.5021922 -0.393502E+03  0.962E-02    0.80       0.0  T
   2   -393.5022425 -0.502663E-04  0.521E-02    0.80       1.0  T
   3   -393.5021787  0.638283E-04  0.190E-02    0.79       1.0  T
   4   -393.5022438 -0.650963E-04  0.853E-03    0.80       1.0  T
   5   -393.5022553 -0.115403E-04  0.396E-03    0.80       1.6  T
   6   -393.5022575 -0.220754E-05  0.181E-03    0.80       3.6  T
   7   -393.5022583 -0.764370E-06  0.596E-04    0.80      10.9  T
   8   -393.5022584 -0.825220E-07  0.253E-04    0.80      25.6  T
     SCC iter.                  ...        0 min,  0.385 sec
     gradient                   ...        0 min,  0.183 sec
 * total energy  :  -387.3968251 Eh     change       -0.1983246E-02 Eh
   gradient norm :     0.0127733 Eh/α   predicted    -0.2003127E-02 (   1.00%)
   displ. norm   :     0.8672146 α      lambda       -0.1990064E-02
   maximum displ.:     0.2671778 α      in ANC's #43, #25, #8, ...

........................................................................
.............................. CYCLE   27 ..............................
........................................................................
   1   -393.4894103 -0.393489E+03  0.112E-01    0.80       0.0  T
   2   -393.4894486 -0.382743E-04  0.593E-02    0.80       1.0  T
   3   -393.4894203  0.282942E-04  0.149E-02    0.79       1.0  T
   4   -393.4894465 -0.262136E-04  0.832E-03    0.80       1.0  T
   5   -393.4894548 -0.825590E-05  0.402E-03    0.80       1.6  T
   6   -393.4894584 -0.359508E-05  0.153E-03    0.80       4.2  T
   7   -393.4894591 -0.697251E-06  0.454E-04    0.80      14.3  T
   8   -393.4894591 -0.369196E-07  0.240E-04    0.80      27.0  T
     SCC iter.                  ...        0 min,  0.394 sec
     gradient                   ...        0 min,  0.183 sec
 * total energy  :  -387.3984758 Eh     change       -0.1650759E-02 Eh
   gradient norm :     0.0188619 Eh/α   predicted    -0.1743382E-02 (   5.61%)
   displ. norm   :     0.7005133 α      lambda       -0.2051500E-02
   maximum displ.:     0.2181638 α      in ANC's #8, #25, #43, ...

........................................................................
.............................. CYCLE   28 ..............................
........................................................................
   1   -393.4928526 -0.393493E+03  0.923E-02    0.79       0.0  T
   2   -393.4928755 -0.228742E-04  0.496E-02    0.79       1.0  T
   3   -393.4928242  0.513120E-04  0.157E-02    0.79       1.0  T
   4   -393.4928739 -0.497400E-04  0.744E-03    0.79       1.0  T
   5   -393.4928812 -0.732612E-05  0.394E-03    0.79       1.6  T
   6   -393.4928851 -0.391993E-05  0.106E-03    0.79       6.1  T
   7   -393.4928854 -0.225030E-06  0.431E-04    0.79      15.0  T
   8   -393.4928854 -0.324818E-07  0.196E-04    0.79      33.0  T
     SCC iter.                  ...        0 min,  0.393 sec
     gradient                   ...        0 min,  0.184 sec
 * total energy  :  -387.4001906 Eh     change       -0.1714757E-02 Eh
   gradient norm :     0.0185879 Eh/α   predicted    -0.1529117E-02 ( -10.83%)
   displ. norm   :     0.7206661 α      lambda       -0.2041656E-02
   maximum displ.:     0.2326388 α      in ANC's #8, #25, #43, ...

........................................................................
.............................. CYCLE   29 ..............................
........................................................................
   1   -393.5052744 -0.393505E+03  0.928E-02    0.79       0.0  T
   2   -393.5052980 -0.235452E-04  0.496E-02    0.80       1.0  T
   3   -393.5052650  0.329559E-04  0.141E-02    0.79       1.0  T
   4   -393.5052996 -0.345849E-04  0.680E-03    0.79       1.0  T
   5   -393.5053048 -0.513090E-05  0.298E-03    0.80       2.2  T
   6   -393.5053063 -0.157451E-05  0.110E-03    0.79       5.9  T
   7   -393.5053066 -0.282616E-06  0.441E-04    0.79      14.7  T
   8   -393.5053067 -0.445156E-07  0.206E-04    0.79      31.5  T
     SCC iter.                  ...        0 min,  0.391 sec
     gradient                   ...        0 min,  0.185 sec
 * total energy  :  -387.4018823 Eh     change       -0.1691675E-02 Eh
   gradient norm :     0.0115773 Eh/α   predicted    -0.1551006E-02 (  -8.32%)
   displ. norm   :     0.8382744 α      lambda       -0.1840961E-02
   maximum displ.:     0.2668203 α      in ANC's #8, #25, #43, ...

........................................................................
.............................. CYCLE   30 ..............................
........................................................................
   1   -393.5032051 -0.393503E+03  0.108E-01    0.79       0.0  T
   2   -393.5032356 -0.305081E-04  0.571E-02    0.79       1.0  T
   3   -393.5032034  0.321462E-04  0.145E-02    0.79       1.0  T
   4   -393.5032348 -0.313527E-04  0.786E-03    0.79       1.0  T
   5   -393.5032432 -0.841918E-05  0.323E-03    0.79       2.0  T
   6   -393.5032452 -0.201747E-05  0.122E-03    0.79       5.3  T
   7   -393.5032456 -0.373631E-06  0.430E-04    0.79      15.1  T
   8   -393.5032456 -0.338796E-07  0.236E-04    0.79      27.5  T
     SCC iter.                  ...        0 min,  0.393 sec
     gradient                   ...        0 min,  0.185 sec
 * total energy  :  -387.4034161 Eh     change       -0.1533860E-02 Eh
   gradient norm :     0.0138552 Eh/α   predicted    -0.1567307E-02 (   2.18%)
   displ. norm   :     0.7566610 α      lambda       -0.1793393E-02
   maximum displ.:     0.2550532 α      in ANC's #8, #25, #55, ...

........................................................................
.............................. CYCLE   31 ..............................
........................................................................
   1   -393.5091786 -0.393509E+03  0.100E-01    0.78       0.0  T
   2   -393.5092026 -0.239524E-04  0.532E-02    0.78       1.0  T
   3   -393.5091670  0.355650E-04  0.144E-02    0.78       1.0  T
   4   -393.5092039 -0.368624E-04  0.718E-03    0.78       1.0  T
   5   -393.5092101 -0.620372E-05  0.305E-03    0.78       2.1  T
   6   -393.5092120 -0.193514E-05  0.989E-04    0.78       6.6  T
   7   -393.5092122 -0.215511E-06  0.429E-04    0.78      15.1  T
   8   -393.5092123 -0.340603E-07  0.225E-04    0.78      28.8  T
     SCC iter.                  ...        0 min,  0.412 sec
     gradient                   ...        0 min,  0.191 sec
 * total energy  :  -387.4048548 Eh     change       -0.1438621E-02 Eh
   gradient norm :     0.0130311 Eh/α   predicted    -0.1410090E-02 (  -1.98%)
   displ. norm   :     0.8354618 α      lambda       -0.1505519E-02
   maximum displ.:     0.2746900 α      in ANC's #8, #25, #43, ...

........................................................................
.............................. CYCLE   32 ..............................
........................................................................
   1   -393.5000931 -0.393500E+03  0.109E-01    0.78       0.0  T
   2   -393.5001234 -0.302926E-04  0.576E-02    0.78       1.0  T
   3   -393.5000915  0.319446E-04  0.149E-02    0.78       1.0  T
   4   -393.5001241 -0.325670E-04  0.781E-03    0.78       1.0  T
   5   -393.5001316 -0.749933E-05  0.304E-03    0.78       2.1  T
   6   -393.5001334 -0.181236E-05  0.106E-03    0.78       6.1  T
   7   -393.5001336 -0.264320E-06  0.375E-04    0.78      17.3  T
   8   -393.5001337 -0.173953E-07  0.223E-04    0.78      29.1  T
     SCC iter.                  ...        0 min,  0.403 sec
     gradient                   ...        0 min,  0.185 sec
 * total energy  :  -387.4060655 Eh     change       -0.1210785E-02 Eh
   gradient norm :     0.0107418 Eh/α   predicted    -0.1278184E-02 (   5.57%)
   displ. norm   :     0.7225829 α      lambda       -0.1626935E-02
   maximum displ.:     0.2424087 α      in ANC's #8, #6, #3, ...

........................................................................
.............................. CYCLE   33 ..............................
........................................................................
   1   -393.5219195 -0.393522E+03  0.994E-02    0.78       0.0  T
   2   -393.5219499 -0.303467E-04  0.525E-02    0.78       1.0  T
   3   -393.5219110  0.388304E-04  0.158E-02    0.78       1.0  T
   4   -393.5219537 -0.427057E-04  0.737E-03    0.78       1.0  T
   5   -393.5219590 -0.524503E-05  0.338E-03    0.78       1.9  T
   6   -393.5219612 -0.224810E-05  0.105E-03    0.78       6.2  T
   7   -393.5219615 -0.225121E-06  0.419E-04    0.78      15.5  T
   8   -393.5219615 -0.121952E-07  0.245E-04    0.78      26.4  T
     SCC iter.                  ...        0 min,  0.392 sec
     gradient                   ...        0 min,  0.184 sec
 * total energy  :  -387.4067110 Eh     change       -0.6454429E-03 Eh
   gradient norm :     0.0270297 Eh/α   predicted    -0.1238201E-02 (  91.84%)
   displ. norm   :     0.5612760 α      lambda       -0.1645685E-02
   maximum displ.:     0.1911475 α      in ANC's #8, #55, #6, ...

........................................................................
.............................. CYCLE   34 ..............................
........................................................................
   1   -393.5083492 -0.393508E+03  0.824E-02    0.78       0.0  T
   2   -393.5083684 -0.192014E-04  0.441E-02    0.78       1.0  T
   3   -393.5083507  0.176216E-04  0.111E-02    0.78       1.0  T
   4   -393.5083678 -0.170243E-04  0.590E-03    0.78       1.1  T
   5   -393.5083722 -0.446299E-05  0.305E-03    0.78       2.1  T
   6   -393.5083746 -0.235973E-05  0.104E-03    0.78       6.2  T
   7   -393.5083749 -0.283652E-06  0.388E-04    0.78      16.7  T
   8   -393.5083749 -0.182679E-07  0.215E-04    0.78      30.2  T
     SCC iter.                  ...        0 min,  0.388 sec
     gradient                   ...        0 min,  0.183 sec
 * total energy  :  -387.4078367 Eh     change       -0.1125734E-02 Eh
   gradient norm :     0.0110217 Eh/α   predicted    -0.1082066E-02 (  -3.88%)
   displ. norm   :     0.6332296 α      lambda       -0.9968546E-03
   maximum displ.:     0.2289249 α      in ANC's #8, #6, #3, ...

........................................................................
.............................. CYCLE   35 ..............................
........................................................................
   1   -393.5052848 -0.393505E+03  0.845E-02    0.77       0.0  T
   2   -393.5053050 -0.201930E-04  0.440E-02    0.77       1.0  T
   3   -393.5052905  0.145596E-04  0.110E-02    0.77       1.0  T
   4   -393.5053027 -0.121790E-04  0.649E-03    0.77       1.0  T
   5   -393.5053080 -0.534526E-05  0.326E-03    0.77       2.0  T
   6   -393.5053109 -0.293776E-05  0.102E-03    0.77       6.3  T
   7   -393.5053112 -0.275403E-06  0.360E-04    0.77      18.0  T
   8   -393.5053112 -0.162066E-07  0.206E-04    0.77      31.5  T
     SCC iter.                  ...        0 min,  0.405 sec
     gradient                   ...        0 min,  0.183 sec
 * total energy  :  -387.4084203 Eh     change       -0.5836007E-03 Eh
   gradient norm :     0.0150379 Eh/α   predicted    -0.6982908E-03 (  19.65%)
   displ. norm   :     0.6119611 α      lambda       -0.1287676E-02
   maximum displ.:     0.2201990 α      in ANC's #8, #6, #3, ...

........................................................................
.............................. CYCLE   36 ..............................
........................................................................
   1   -393.5007476 -0.393501E+03  0.790E-02    0.77       0.0  T
   2   -393.5007676 -0.200132E-04  0.413E-02    0.76       1.0  T
   3   -393.5007549  0.127851E-04  0.110E-02    0.76       1.0  T
   4   -393.5007673 -0.124858E-04  0.591E-03    0.76       1.1  T
   5   -393.5007707 -0.332824E-05  0.321E-03    0.76       2.0  T
   6   -393.5007733 -0.262787E-05  0.116E-03    0.76       5.6  T
   7   -393.5007737 -0.388520E-06  0.355E-04    0.76      18.3  T
   8   -393.5007737 -0.116574E-07  0.215E-04    0.76      30.1  T
     SCC iter.                  ...        0 min,  0.404 sec
     gradient                   ...        0 min,  0.183 sec
 * total energy  :  -387.4090885 Eh     change       -0.6681816E-03 Eh
   gradient norm :     0.0181646 Eh/α   predicted    -0.8849602E-03 (  32.44%)
   displ. norm   :     0.4505950 α      lambda       -0.1430257E-02
   maximum displ.:     0.1498088 α      in ANC's #8, #6, #3, ...

........................................................................
.............................. CYCLE   37 ..............................
........................................................................
   1   -393.5161524 -0.393516E+03  0.624E-02    0.76       0.0  T
   2   -393.5161640 -0.116231E-04  0.334E-02    0.76       1.0  T
   3   -393.5161532  0.107663E-04  0.945E-03    0.76       1.0  T
   4   -393.5161631 -0.993400E-05  0.506E-03    0.76       1.3  T
   5   -393.5161659 -0.272738E-05  0.274E-03    0.76       2.4  T
   6   -393.5161676 -0.172694E-05  0.940E-04    0.76       6.9  T
   7   -393.5161678 -0.215562E-06  0.342E-04    0.76      19.0  T
   8   -393.5161678 -0.639795E-08  0.211E-04    0.76      30.7  T
     SCC iter.                  ...        0 min,  0.401 sec
     gradient                   ...        0 min,  0.183 sec
 * total energy  :  -387.4095943 Eh     change       -0.5058464E-03 Eh
   gradient norm :     0.0205372 Eh/α   predicted    -0.8603271E-03 (  70.08%)
   displ. norm   :     0.4819062 α      lambda       -0.1373069E-02
   maximum displ.:     0.1690404 α      in ANC's #8, #6, #3, ...

........................................................................
.............................. CYCLE   38 ..............................
........................................................................
   1   -393.5134869 -0.393513E+03  0.669E-02    0.76       0.0  T
   2   -393.5135027 -0.157778E-04  0.345E-02    0.76       1.0  T
   3   -393.5134887  0.139982E-04  0.998E-03    0.76       1.0  T
   4   -393.5135007 -0.120585E-04  0.580E-03    0.76       1.1  T
   5   -393.5135055 -0.476457E-05  0.290E-03    0.76       2.2  T
   6   -393.5135075 -0.196734E-05  0.857E-04    0.76       7.6  T
   7   -393.5135076 -0.145577E-06  0.303E-04    0.76      21.4  T
   8   -393.5135076 -0.514524E-08  0.181E-04    0.76      35.7  T
     SCC iter.                  ...        0 min,  0.398 sec
     gradient                   ...        0 min,  0.183 sec
 * total energy  :  -387.4104093 Eh     change       -0.8149472E-03 Eh
   gradient norm :     0.0145080 Eh/α   predicted    -0.8459778E-03 (   3.81%)
   displ. norm   :     0.4550705 α      lambda       -0.1249221E-02
   maximum displ.:     0.1565908 α      in ANC's #6, #8, #3, ...

........................................................................
.............................. CYCLE   39 ..............................
........................................................................
   1   -393.5243493 -0.393524E+03  0.609E-02    0.76       0.0  T
   2   -393.5243630 -0.136439E-04  0.325E-02    0.76       1.0  T
   3   -393.5243535  0.951148E-05  0.954E-03    0.76       1.0  T
   4   -393.5243642 -0.107144E-04  0.460E-03    0.76       1.4  T
   5   -393.5243656 -0.144984E-05  0.242E-03    0.76       2.7  T
   6   -393.5243668 -0.119247E-05  0.101E-03    0.76       6.4  T
   7   -393.5243671 -0.280895E-06  0.338E-04    0.76      19.2  T
   8   -393.5243671 -0.115268E-07  0.203E-04    0.76      31.9  T
     SCC iter.                  ...        0 min,  0.400 sec
     gradient                   ...        0 min,  0.183 sec
 * total energy  :  -387.4107006 Eh     change       -0.2913015E-03 Eh
   gradient norm :     0.0236440 Eh/α   predicted    -0.7539616E-03 ( 158.83%)
   displ. norm   :     0.5228822 α      lambda       -0.1353021E-02
   maximum displ.:     0.1869885 α      in ANC's #8, #6, #3, ...

........................................................................
.............................. CYCLE   40 ..............................
........................................................................
   1   -393.5108173 -0.393511E+03  0.717E-02    0.75       0.0  T
   2   -393.5108321 -0.147558E-04  0.375E-02    0.75       1.0  T
   3   -393.5108208  0.112866E-04  0.104E-02    0.75       1.0  T
   4   -393.5108337 -0.129513E-04  0.518E-03    0.75       1.3  T
   5   -393.5108355 -0.173934E-05  0.252E-03    0.75       2.6  T
   6   -393.5108370 -0.155363E-05  0.919E-04    0.75       7.1  T
   7   -393.5108372 -0.219383E-06  0.334E-04    0.75      19.4  T
   8   -393.5108372 -0.857165E-08  0.194E-04    0.75      33.4  T
     SCC iter.                  ...        0 min,  0.399 sec
     gradient                   ...        0 min,  0.183 sec
 * total energy  :  -387.4116212 Eh     change       -0.9206536E-03 Eh
   gradient norm :     0.0125418 Eh/α   predicted    -0.8614779E-03 (  -6.43%)
   displ. norm   :     0.5297459 α      lambda       -0.1020312E-02
   maximum displ.:     0.1901997 α      in ANC's #6, #8, #3, ...

........................................................................
.............................. CYCLE   41 ..............................
........................................................................
   1   -393.5133034 -0.393513E+03  0.648E-02    0.75       0.0  T
   2   -393.5133165 -0.131226E-04  0.338E-02    0.75       1.0  T
   3   -393.5133088  0.771371E-05  0.889E-03    0.75       1.0  T
   4   -393.5133174 -0.857944E-05  0.472E-03    0.75       1.4  T
   5   -393.5133194 -0.201483E-05  0.209E-03    0.75       3.1  T
   6   -393.5133204 -0.100698E-05  0.600E-04    0.75      10.8  T
   7   -393.5133205 -0.799603E-07  0.246E-04    0.75      26.4  T
   8   -393.5133205 -0.275588E-08  0.166E-04    0.75      39.0  T
     SCC iter.                  ...        0 min,  0.397 sec
     gradient                   ...        0 min,  0.183 sec
 * total energy  :  -387.4122023 Eh     change       -0.5810414E-03 Eh
   gradient norm :     0.0156046 Eh/α   predicted    -0.6533227E-03 (  12.44%)
   displ. norm   :     0.6205250 α      lambda       -0.1110990E-02
   maximum displ.:     0.2209651 α      in ANC's #6, #8, #3, ...

........................................................................
.............................. CYCLE   42 ..............................
........................................................................
   1   -393.5092193 -0.393509E+03  0.738E-02    0.75       0.0  T
   2   -393.5092370 -0.176829E-04  0.379E-02    0.75       1.0  T
   3   -393.5092247  0.122577E-04  0.103E-02    0.75       1.0  T
   4   -393.5092377 -0.130213E-04  0.567E-03    0.75       1.1  T
   5   -393.5092406 -0.282537E-05  0.284E-03    0.75       2.3  T
   6   -393.5092423 -0.176674E-05  0.924E-04    0.75       7.0  T
   7   -393.5092425 -0.198349E-06  0.342E-04    0.75      18.9  T
   8   -393.5092425 -0.149528E-07  0.206E-04    0.75      31.5  T
     SCC iter.                  ...        0 min,  0.399 sec
     gradient                   ...        0 min,  0.183 sec
 * total energy  :  -387.4129842 Eh     change       -0.7819332E-03 Eh
   gradient norm :     0.0159562 Eh/α   predicted    -0.7694030E-03 (  -1.60%)
   displ. norm   :     0.5894753 α      lambda       -0.1366951E-02
   maximum displ.:     0.2100674 α      in ANC's #6, #3, #31, ...
 * RMSD in coord.:     0.7933494 α      energy gain  -0.2470863E-01 Eh

generating ANC from model Hessian ...
Using Lindh-Hessian (1995)
 Shifting diagonal of input Hessian by   1.004253534803000E-002
 Lowest  eigenvalues of input Hessian
    0.010000    0.010008    0.010035    0.000000    0.000000    0.000000
    0.000000    0.000000    0.000000    0.010057    0.010069    0.010085
    0.010090    0.010120    0.010130    0.010150    0.010163    0.010192
 Highest eigenvalues
    2.176384    2.281020    2.331154    2.449524    2.611251    2.655557
 

........................................................................
.............................. CYCLE   43 ..............................
........................................................................
   1   -393.5252112 -0.393525E+03  0.749E-02    0.74       0.0  T
   2   -393.5252293 -0.181752E-04  0.399E-02    0.75       1.0  T
   3   -393.5252171  0.122802E-04  0.113E-02    0.74       1.0  T
   4   -393.5252338 -0.167530E-04  0.481E-03    0.75       1.3  T
   5   -393.5252347 -0.845142E-06  0.220E-03    0.74       2.9  T
   6   -393.5252355 -0.803221E-06  0.947E-04    0.74       6.8  T
   7   -393.5252357 -0.238302E-06  0.380E-04    0.75      17.1  T
     SCC iter.                  ...        0 min,  0.354 sec
     gradient                   ...        0 min,  0.182 sec
 * total energy  :  -387.4135165 Eh     change       -0.5322911E-03 Eh
   gradient norm :     0.0218634 Eh/α   predicted     0.0000000E+00 (-100.00%)
   displ. norm   :     0.1550291 α      lambda       -0.1029663E-02
   maximum displ.:     0.0365525 α      in ANC's #7, #64, #52, ...

........................................................................
.............................. CYCLE   44 ..............................
........................................................................
   1   -393.5190059 -0.393519E+03  0.368E-02    0.75       0.0  T
   2   -393.5190109 -0.505332E-05  0.195E-02    0.75       1.0  T
   3   -393.5190040  0.692177E-05  0.629E-03    0.74       1.0  T
   4   -393.5190115 -0.746348E-05  0.292E-03    0.74       2.2  T
   5   -393.5190123 -0.882290E-06  0.157E-03    0.74       4.1  T
   6   -393.5190129 -0.511164E-06  0.632E-04    0.74      10.3  T
   7   -393.5190130 -0.967566E-07  0.231E-04    0.74      28.0  T
     SCC iter.                  ...        0 min,  0.351 sec
     gradient                   ...        0 min,  0.182 sec
 * total energy  :  -387.4142237 Eh     change       -0.7072233E-03 Eh
   gradient norm :     0.0065720 Eh/α   predicted    -0.5272202E-03 ( -25.45%)
   displ. norm   :     0.2744398 α      lambda       -0.6755404E-03
   maximum displ.:     0.0817170 α      in ANC's #63, #7, #42, ...

........................................................................
.............................. CYCLE   45 ..............................
........................................................................
   1   -393.5141947 -0.393514E+03  0.599E-02    0.75       0.0  T
   2   -393.5142067 -0.120016E-04  0.311E-02    0.74       1.0  T
   3   -393.5141855  0.212170E-04  0.101E-02    0.74       1.0  T
   4   -393.5142105 -0.249950E-04  0.404E-03    0.74       1.6  T
   5   -393.5142117 -0.127304E-05  0.208E-03    0.74       3.1  T
   6   -393.5142126 -0.856868E-06  0.752E-04    0.74       8.6  T
   7   -393.5142127 -0.133459E-06  0.318E-04    0.74      20.4  T
     SCC iter.                  ...        0 min,  0.351 sec
     gradient                   ...        0 min,  0.182 sec
 * total energy  :  -387.4145246 Eh     change       -0.3009099E-03 Eh
   gradient norm :     0.0095479 Eh/α   predicted    -0.3633686E-03 (  20.76%)
   displ. norm   :     0.3695495 α      lambda       -0.8076670E-03
   maximum displ.:     0.0988422 α      in ANC's #7, #40, #64, ...

........................................................................
.............................. CYCLE   46 ..............................
........................................................................
   1   -393.5101113 -0.393510E+03  0.837E-02    0.75       0.0  T
   2   -393.5101348 -0.234668E-04  0.436E-02    0.75       1.0  T
   3   -393.5101160  0.188097E-04  0.113E-02    0.75       1.0  T
   4   -393.5101417 -0.257601E-04  0.489E-03    0.74       1.3  T
   5   -393.5101433 -0.162986E-05  0.234E-03    0.75       2.8  T
   6   -393.5101446 -0.128020E-05  0.636E-04    0.74      10.2  T
   7   -393.5101447 -0.595073E-07  0.365E-04    0.75      17.7  T
   8   -393.5101447 -0.198863E-07  0.195E-04    0.74      33.2  T
     SCC iter.                  ...        0 min,  0.418 sec
     gradient                   ...        0 min,  0.190 sec
 * total energy  :  -387.4148825 Eh     change       -0.3578577E-03 Eh
   gradient norm :     0.0162023 Eh/α   predicted    -0.4589921E-03 (  28.26%)
   displ. norm   :     0.2051975 α      lambda       -0.5258145E-03
   maximum displ.:     0.0650239 α      in ANC's #7, #40, #63, ...

........................................................................
.............................. CYCLE   47 ..............................
........................................................................
   1   -393.5132721 -0.393513E+03  0.396E-02    0.74       0.0  T
   2   -393.5132775 -0.537657E-05  0.205E-02    0.74       1.0  T
   3   -393.5132738  0.368866E-05  0.537E-03    0.74       1.2  T
   4   -393.5132788 -0.499998E-05  0.246E-03    0.74       2.6  T
   5   -393.5132792 -0.354551E-06  0.117E-03    0.74       5.6  T
   6   -393.5132795 -0.344828E-06  0.397E-04    0.74      16.3  T
   7   -393.5132796 -0.418157E-07  0.173E-04    0.74      37.5  T
     SCC iter.                  ...        0 min,  0.354 sec
     gradient                   ...        0 min,  0.182 sec
 * total energy  :  -387.4153029 Eh     change       -0.4203694E-03 Eh
   gradient norm :     0.0116825 Eh/α   predicted    -0.2739785E-03 ( -34.82%)
   displ. norm   :     0.5099539 α      lambda       -0.1098497E-02
   maximum displ.:     0.1692746 α      in ANC's #7, #40, #63, ...

........................................................................
.............................. CYCLE   48 ..............................
........................................................................
   1   -393.5207359 -0.393521E+03  0.817E-02    0.74       0.0  T
   2   -393.5207585 -0.226251E-04  0.410E-02    0.74       1.0  T
   3   -393.5207153  0.431877E-04  0.141E-02    0.75       1.0  T
   4   -393.5207635 -0.481740E-04  0.619E-03    0.74       1.0  T
   5   -393.5207665 -0.297316E-05  0.348E-03    0.74       1.9  T
   6   -393.5207694 -0.292047E-05  0.915E-04    0.74       7.1  T
   7   -393.5207696 -0.171137E-06  0.447E-04    0.74      14.5  T
   8   -393.5207696 -0.367729E-07  0.201E-04    0.74      32.3  T
     SCC iter.                  ...        0 min,  0.397 sec
     gradient                   ...        0 min,  0.182 sec
 * total energy  :  -387.4159492 Eh     change       -0.6463558E-03 Eh
   gradient norm :     0.0076434 Eh/α   predicted    -0.6920888E-03 (   7.08%)
   displ. norm   :     0.5703203 α      lambda       -0.6279783E-03
   maximum displ.:     0.1869849 α      in ANC's #7, #40, #39, ...

........................................................................
.............................. CYCLE   49 ..............................
........................................................................
   1   -393.5150952 -0.393515E+03  0.845E-02    0.74       0.0  T
   2   -393.5151218 -0.266631E-04  0.411E-02    0.74       1.0  T
   3   -393.5151091  0.127538E-04  0.108E-02    0.74       1.0  T
   4   -393.5151271 -0.180036E-04  0.549E-03    0.74       1.2  T
   5   -393.5151287 -0.164850E-05  0.240E-03    0.74       2.7  T
   6   -393.5151302 -0.142834E-05  0.808E-04    0.74       8.0  T
   7   -393.5151303 -0.159593E-06  0.330E-04    0.74      19.7  T
   8   -393.5151303 -0.153788E-07  0.190E-04    0.74      34.1  T
     SCC iter.                  ...        0 min,  0.395 sec
     gradient                   ...        0 min,  0.182 sec
 * total energy  :  -387.4163872 Eh     change       -0.4379980E-03 Eh
   gradient norm :     0.0107117 Eh/α   predicted    -0.4161215E-03 (  -4.99%)
   displ. norm   :     0.4577590 α      lambda       -0.6107666E-03
   maximum displ.:     0.1775847 α      in ANC's #7, #4, #5, ...

........................................................................
.............................. CYCLE   50 ..............................
........................................................................
   1   -393.5177988 -0.393518E+03  0.599E-02    0.74       0.0  T
   2   -393.5178132 -0.143279E-04  0.294E-02    0.74       1.0  T
   3   -393.5178055  0.765774E-05  0.829E-03    0.74       1.0  T
   4   -393.5178165 -0.109928E-04  0.390E-03    0.74       1.7  T
   5   -393.5178171 -0.569325E-06  0.171E-03    0.74       3.8  T
   6   -393.5178177 -0.665676E-06  0.664E-04    0.74       9.8  T
   7   -393.5178179 -0.128134E-06  0.251E-04    0.74      25.8  T
     SCC iter.                  ...        0 min,  0.349 sec
     gradient                   ...        0 min,  0.181 sec
 * total energy  :  -387.4168518 Eh     change       -0.4645778E-03 Eh
   gradient norm :     0.0090591 Eh/α   predicted    -0.3693747E-03 ( -20.49%)
   displ. norm   :     0.5510778 α      lambda       -0.6910992E-03
   maximum displ.:     0.2270799 α      in ANC's #7, #4, #5, ...

........................................................................
.............................. CYCLE   51 ..............................
........................................................................
   1   -393.5208275 -0.393521E+03  0.672E-02    0.74       0.0  T
   2   -393.5208448 -0.172818E-04  0.330E-02    0.74       1.0  T
   3   -393.5208362  0.855305E-05  0.899E-03    0.74       1.0  T
   4   -393.5208480 -0.117858E-04  0.448E-03    0.74       1.4  T
   5   -393.5208487 -0.742226E-06  0.230E-03    0.74       2.8  T
   6   -393.5208500 -0.129487E-05  0.748E-04    0.74       8.7  T
   7   -393.5208502 -0.144065E-06  0.279E-04    0.74      23.2  T
   8   -393.5208502 -0.165147E-07  0.137E-04    0.74      47.3  T
     SCC iter.                  ...        0 min,  0.398 sec
     gradient                   ...        0 min,  0.182 sec
 * total energy  :  -387.4174034 Eh     change       -0.5515885E-03 Eh
   gradient norm :     0.0055381 Eh/α   predicted    -0.4504945E-03 ( -18.33%)
   displ. norm   :     0.6986226 α      lambda       -0.6310843E-03
   maximum displ.:     0.2903250 α      in ANC's #7, #4, #5, ...

........................................................................
.............................. CYCLE   52 ..............................
........................................................................
   1   -393.5194703 -0.393519E+03  0.851E-02    0.74       0.0  T
   2   -393.5194982 -0.278444E-04  0.415E-02    0.74       1.0  T
   3   -393.5194877  0.105214E-04  0.106E-02    0.74       1.0  T
   4   -393.5195026 -0.149142E-04  0.556E-03    0.74       1.2  T
   5   -393.5195045 -0.187462E-05  0.252E-03    0.74       2.6  T
   6   -393.5195060 -0.155787E-05  0.915E-04    0.74       7.1  T
   7   -393.5195062 -0.226297E-06  0.336E-04    0.74      19.3  T
   8   -393.5195063 -0.226240E-07  0.171E-04    0.74      38.0  T
     SCC iter.                  ...        0 min,  0.392 sec
     gradient                   ...        0 min,  0.182 sec
 * total energy  :  -387.4179291 Eh     change       -0.5257036E-03 Eh
   gradient norm :     0.0064696 Eh/α   predicted    -0.4695521E-03 ( -10.68%)
   displ. norm   :     0.6544979 α      lambda       -0.6901156E-03
   maximum displ.:     0.2963118 α      in ANC's #7, #4, #5, ...

........................................................................
.............................. CYCLE   53 ..............................
........................................................................
   1   -393.5265730 -0.393527E+03  0.720E-02    0.74       0.0  T
   2   -393.5265917 -0.187335E-04  0.366E-02    0.74       1.0  T
   3   -393.5265812  0.105695E-04  0.965E-03    0.74       1.0  T
   4   -393.5265933 -0.121021E-04  0.524E-03    0.74       1.2  T
   5   -393.5265962 -0.291733E-05  0.219E-03    0.74       3.0  T
   6   -393.5265972 -0.989773E-06  0.767E-04    0.74       8.4  T
   7   -393.5265973 -0.135959E-06  0.265E-04    0.74      24.5  T
     SCC iter.                  ...        0 min,  0.347 sec
     gradient                   ...        0 min,  0.182 sec
 * total energy  :  -387.4183867 Eh     change       -0.4575850E-03 Eh
   gradient norm :     0.0089604 Eh/α   predicted    -0.4928715E-03 (   7.71%)
   displ. norm   :     0.7542643 α      lambda       -0.6487524E-03
   maximum displ.:     0.3254396 α      in ANC's #7, #4, #5, ...

........................................................................
.............................. CYCLE   54 ..............................
........................................................................
   1   -393.5183341 -0.393518E+03  0.921E-02    0.74       0.0  T
   2   -393.5183663 -0.321554E-04  0.451E-02    0.74       1.0  T
   3   -393.5183552  0.110627E-04  0.115E-02    0.74       1.0  T
   4   -393.5183724 -0.172025E-04  0.586E-03    0.74       1.1  T
   5   -393.5183746 -0.214121E-05  0.217E-03    0.74       3.0  T
   6   -393.5183756 -0.997036E-06  0.820E-04    0.74       7.9  T
   7   -393.5183757 -0.161898E-06  0.286E-04    0.74      22.7  T
     SCC iter.                  ...        0 min,  0.347 sec
     gradient                   ...        0 min,  0.182 sec
 * total energy  :  -387.4188552 Eh     change       -0.4685450E-03 Eh
   gradient norm :     0.0073584 Eh/α   predicted    -0.5089211E-03 (   8.62%)
   displ. norm   :     0.5634375 α      lambda       -0.4300393E-03
   maximum displ.:     0.2661250 α      in ANC's #7, #4, #8, ...

........................................................................
.............................. CYCLE   55 ..............................
........................................................................
   1   -393.5192390 -0.393519E+03  0.614E-02    0.74       0.0  T
   2   -393.5192529 -0.139253E-04  0.307E-02    0.74       1.0  T
   3   -393.5192452  0.772231E-05  0.830E-03    0.73       1.0  T
   4   -393.5192554 -0.101616E-04  0.413E-03    0.74       1.6  T
   5   -393.5192566 -0.119861E-05  0.173E-03    0.73       3.7  T
   6   -393.5192572 -0.621082E-06  0.650E-04    0.73      10.0  T
   7   -393.5192573 -0.105320E-06  0.252E-04    0.73      25.7  T
     SCC iter.                  ...        0 min,  0.345 sec
     gradient                   ...        0 min,  0.181 sec
 * total energy  :  -387.4192216 Eh     change       -0.3664148E-03 Eh
   gradient norm :     0.0074715 Eh/α   predicted    -0.2832808E-03 ( -22.69%)
   displ. norm   :     0.5735344 α      lambda       -0.6780593E-03
   maximum displ.:     0.2836233 α      in ANC's #7, #4, #8, ...

........................................................................
.............................. CYCLE   56 ..............................
........................................................................
   1   -393.5274811 -0.393527E+03  0.577E-02    0.73       0.0  T
   2   -393.5274931 -0.119628E-04  0.308E-02    0.73       1.0  T
   3   -393.5274767  0.163705E-04  0.970E-03    0.73       1.0  T
   4   -393.5274944 -0.176843E-04  0.442E-03    0.73       1.5  T
   5   -393.5274963 -0.190311E-05  0.246E-03    0.73       2.6  T
   6   -393.5274976 -0.129695E-05  0.872E-04    0.73       7.4  T
   7   -393.5274978 -0.185294E-06  0.328E-04    0.73      19.7  T
   8   -393.5274978 -0.175993E-07  0.174E-04    0.73      37.3  T
     SCC iter.                  ...        0 min,  0.390 sec
     gradient                   ...        0 min,  0.182 sec
 * total energy  :  -387.4196780 Eh     change       -0.4563714E-03 Eh
   gradient norm :     0.0075444 Eh/α   predicted    -0.4505588E-03 (  -1.27%)
   displ. norm   :     0.7075416 α      lambda       -0.5548268E-03
   maximum displ.:     0.3434389 α      in ANC's #7, #4, #8, ...

........................................................................
.............................. CYCLE   57 ..............................
........................................................................
   1   -393.5254460 -0.393525E+03  0.728E-02    0.73       0.0  T
   2   -393.5254647 -0.186558E-04  0.367E-02    0.73       1.0  T
   3   -393.5254404  0.242729E-04  0.114E-02    0.73       1.0  T
   4   -393.5254651 -0.246735E-04  0.597E-03    0.73       1.1  T
   5   -393.5254692 -0.410688E-05  0.319E-03    0.73       2.0  T
   6   -393.5254715 -0.229427E-05  0.911E-04    0.73       7.1  T
   7   -393.5254717 -0.196670E-06  0.323E-04    0.73      20.1  T
   8   -393.5254717 -0.155081E-07  0.174E-04    0.73      37.3  T
     SCC iter.                  ...        0 min,  0.391 sec
     gradient                   ...        0 min,  0.182 sec
 * total energy  :  -387.4200964 Eh     change       -0.4183761E-03 Eh
   gradient norm :     0.0099011 Eh/α   predicted    -0.4162976E-03 (  -0.50%)
   displ. norm   :     0.6760890 α      lambda       -0.5593090E-03
   maximum displ.:     0.3353753 α      in ANC's #7, #4, #5, ...

........................................................................
[...]
   237   1 H    0.996 --   143 C    0.982
   238   1 H    0.997 --   143 C    0.986
 ---------------------------------------------------------------------------

Topologies differ in bond orders
Writing corrected topology to xtbtopo.mol

molecular dipole:
                 x           y           z       tot (Debye)
 q only:        1.231      -1.831       2.415
   full:        2.311      -2.014       3.245      11.347
molecular quadrupole (traceless):
                xx          xy          yy          xz          yz          zz
 q only:       18.072      35.783      47.289      48.071      16.118     -65.360
  q+dip:       15.837      44.827      26.954      55.383      -7.731     -42.791
   full:       19.917      37.642      22.804      55.659     -12.530     -42.721

           -------------------------------------------------
          |                Geometry Summary                 |
           -------------------------------------------------

      molecular mass/u    :     2129.9129812
   center of mass at/Å    :       -0.0885341       0.1104624       0.2343011
  moments of inertia/u·Å² :        0.4427289E+05   0.1327787E+06   0.1537606E+06
rotational constants/cm⁻¹ :        0.3807665E-03   0.1269603E-03   0.1096355E-03

 * 226 selected distances

     #   Z          #   Z                                           value/Å
     1   6 C        2   6 C                                       1.3620124
     3   6 C        4   8 O                                       1.2154582
     5   6 C        6   6 C                                       1.3930696
     6   6 C        7   6 C                                       1.3745983
     7   6 C        8   6 C                                       1.4013859
     8   6 C        9   6 C                                       1.3749403
     5   6 C       10   6 C                                       1.4108783
     9   6 C       10   6 C                                       1.3955277
    11   6 C       12   6 C                                       1.3712336
    13   6 C       14   7 N                                       1.1481587
    15   6 C       16   7 N                                       1.1496750
     8   6 C       17   6 C                                       1.5079066
    17   6 C       18   6 C                                       1.5482526
    19   6 C       20   6 C                                       1.3263253
    18   6 C       22   6 C                                       1.5369032
    21   6 C       22   6 C                                       1.5370370
     7   6 C       23   6 C                                       1.5084364
    17   6 C       23   6 C                                       1.5612636
    21   6 C       23   6 C                                       1.5494130
     1   6 C       24   6 C                                       1.4102143
    24   6 C       25   6 C                                       1.4004252
    25   6 C       26   7 N                                       1.3727436
    26   7 N       27   6 C                                       1.4135934
    27   6 C       28   6 C                                       1.3925584
    28   6 C       29   6 C                                       1.3783247
    29   6 C       30   6 C                                       1.3904718
    30   6 C       33   6 C                                       1.3892865
    27   6 C       34   6 C                                       1.3913499
    33   6 C       34   6 C                                       1.3800871
    26   7 N       35   6 C                                       1.3987947
    35   6 C       36   6 C                                       1.3935484
    36   6 C       37   6 C                                       1.3804099
    37   6 C       38   6 C                                       1.3884448
    38   6 C       41   6 C                                       1.3925504
    35   6 C       42   6 C                                       1.3950147
    41   6 C       42   6 C                                       1.3764212
    25   6 C       43   6 C                                       1.4105028
    43   6 C       44  16 S                                       1.7327185
    44  16 S       45   6 C                                       1.7594153 (max)
    45   6 C       46   6 C                                       1.3941544
    46   6 C       47   7 N                                       1.3900974
    47   7 N       48   6 C                                       1.3976894
    48   6 C       49   6 C                                       1.3922950
    49   6 C       50   6 C                                       1.3820695
    50   6 C       51   6 C                                       1.3869707
    51   6 C       54   6 C                                       1.3942332
    48   6 C       55   6 C                                       1.3980247
    54   6 C       55   6 C                                       1.3747107
    47   7 N       56   6 C                                       1.4024481
    56   6 C       57   6 C                                       1.3949674
    57   6 C       58   6 C                                       1.3774573
    58   6 C       59   6 C                                       1.3920763
    59   6 C       62   6 C                                       1.3882888
    56   6 C       63   6 C                                       1.3916114
    62   6 C       63   6 C                                       1.3792660
    43   6 C       64   6 C                                       1.3886836
    46   6 C       64   6 C                                       1.4076329
    64   6 C       65  16 S                                       1.7251666
    45   6 C       66   6 C                                       1.4142765
    66   6 C       67   6 C                                       1.3911043
    67   6 C       68   7 N                                       1.3888723
    68   7 N       69   6 C                                       1.3903645
    69   6 C       70   6 C                                       1.3971055
    70   6 C       71   6 C                                       1.3756897
    71   6 C       72   6 C                                       1.3922518
    72   6 C       75   6 C                                       1.3864657
    69   6 C       76   6 C                                       1.3949135
    75   6 C       76   6 C                                       1.3801038
    68   7 N       77   6 C                                       1.4108981
    77   6 C       78   6 C                                       1.3901009
    78   6 C       79   6 C                                       1.3819415
    79   6 C       80   6 C                                       1.3887497
    80   6 C       83   6 C                                       1.3940673
    77   6 C       84   6 C                                       1.3943270
    83   6 C       84   6 C                                       1.3754778
    67   6 C       85   6 C                                       1.4109993
    85   6 C       86  16 S                                       1.7243277
    87   6 C       88   6 C                                       1.3923960
    88   6 C       89   7 N                                       1.3808264
    89   7 N       90   6 C                                       1.3999699
    90   6 C       91   6 C                                       1.3975106
    91   6 C       92   6 C                                       1.3761717
    92   6 C       93   6 C                                       1.3933200
    93   6 C       96   6 C                                       1.3874375
    90   6 C       97   6 C                                       1.3918363
    96   6 C       97   6 C                                       1.3815141
    89   7 N       98   6 C                                       1.4082095
    98   6 C       99   6 C                                       1.3922087
    99   6 C      100   6 C                                       1.3821458
   100   6 C      101   6 C                                       1.3877098
   101   6 C      104   6 C                                       1.3941363
    98   6 C      105   6 C                                       1.3947158
   104   6 C      105   6 C                                       1.3764217
    85   6 C      106   6 C                                       1.3854678
    88   6 C      106   6 C                                       1.4173223
   106   6 C      107  16 S                                       1.7279460
    87   6 C      108   6 C                                       1.4225866
   108   6 C      109   6 C                                       1.3715992
   109   6 C      110   6 C                                       1.4189522
   110   6 C      111   6 C                                       1.4039495
   112   6 C      113   6 C                                       1.3931508
   113   6 C      114   6 C                                       1.3807807
   114   6 C      115   6 C                                       1.3884769
   116   6 C      117   6 C                                       1.5297361
   115   6 C      118   6 C                                       1.3898325
   112   6 C      119   6 C                                       1.3935221
   118   6 C      119   6 C                                       1.3800813
   111   6 C      120   6 C                                       1.3896374
   120   6 C      121   6 C                                       1.4243105
   121   6 C      122   6 C                                       1.4096338
   123   6 C      124   6 C                                       1.3946238
   124   6 C      125   6 C                                       1.3804041
   125   6 C      126   6 C                                       1.3902954
   127   6 C      128   6 C                                       1.5301916
   126   6 C      129   6 C                                       1.3897172
   123   6 C      130   6 C                                       1.3944928
   129   6 C      130   6 C                                       1.3806405
   110   6 C      131   6 C                                       1.4215215
   122   6 C      131   6 C                                       1.3855232
   108   6 C      132   8 O                                       1.3659055
   131   6 C      132   8 O                                       1.3534545
   121   6 C      133   6 C                                       1.4128087
   133   6 C      134   6 C                                       1.3779023
   120   6 C      135   8 O                                       1.3506312
   134   6 C      135   8 O                                       1.3722710
   134   6 C      136   6 C                                       1.4158698
   136   6 C      137   6 C                                       1.3586339
   139   6 C      140   8 O                                       1.1969369
   139   6 C      141   7 N                                       1.3647155
   141   7 N      142   6 C                                       1.4538551
   142   6 C      143   6 C                                       1.5229893
   141   7 N      144   6 C                                       1.3867482
   144   6 C      145   8 O                                       1.2121200
     1   6 C      146   1 H                                       1.0844658
     6   6 C      147   1 H                                       1.0789561
     9   6 C      148   1 H                                       1.0782523
    17   6 C      149   1 H                                       1.0883219
    18   6 C      150   1 H                                       1.0866100
    19   6 C      151   1 H                                       1.0741147
    20   6 C      152   1 H                                       1.0743147
    21   6 C      153   1 H                                       1.0870572
    22   6 C      154   1 H                                       1.0893717
    22   6 C      155   1 H                                       1.0889588
    23   6 C      156   1 H                                       1.0885952
    28   6 C      157   1 H                                       1.0794575
    29   6 C      158   1 H                                       1.0789963
    32   6 C      159   1 H                                       1.0853369
    32   6 C      160   1 H                                       1.0859413
    32   6 C      161   1 H                                       1.0865878
    33   6 C      162   1 H                                       1.0783068
    34   6 C      163   1 H                                       1.0804070
    36   6 C      164   1 H                                       1.0801347
    37   6 C      165   1 H                                       1.0781259
    40   6 C      166   1 H                                       1.0853760
    40   6 C      167   1 H                                       1.0861887
    40   6 C      168   1 H                                       1.0854007
    41   6 C      169   1 H                                       1.0789892
    42   6 C      170   1 H                                       1.0795189
    49   6 C      171   1 H                                       1.0804269
    50   6 C      172   1 H                                       1.0783857
    53   6 C      173   1 H                                       1.0855247
    53   6 C      174   1 H                                       1.0861000
    53   6 C      175   1 H                                       1.0863779
    54   6 C      176   1 H                                       1.0789984
    55   6 C      177   1 H                                       1.0786021
    57   6 C      178   1 H                                       1.0800978
    58   6 C      179   1 H                                       1.0800315
    61   6 C      180   1 H                                       1.0861275
    61   6 C      181   1 H                                       1.0859445
    61   6 C      182   1 H                                       1.0854551
    62   6 C      183   1 H                                       1.0778385
    63   6 C      184   1 H                                       1.0796147
    70   6 C      185   1 H                                       1.0787619
    71   6 C      186   1 H                                       1.0781214
    74   6 C      187   1 H                                       1.0865479
    74   6 C      188   1 H                                       1.0856682
    74   6 C      189   1 H                                       1.0859288
    75   6 C      190   1 H                                       1.0788906
    76   6 C      191   1 H                                       1.0799788
    78   6 C      192   1 H                                       1.0799787
    79   6 C      193   1 H                                       1.0777856
    82   6 C      194   1 H                                       1.0861252
    82   6 C      195   1 H                                       1.0855382
    82   6 C      196   1 H                                       1.0862032
    83   6 C      197   1 H                                       1.0790496
    84   6 C      198   1 H                                       1.0798768
    91   6 C      199   1 H                                       1.0798460
    92   6 C      200   1 H                                       1.0783451
    95   6 C      201   1 H                                       1.0853241
    95   6 C      202   1 H                                       1.0864444
    95   6 C      203   1 H                                       1.0858329
    96   6 C      204   1 H                                       1.0780846
    97   6 C      205   1 H                                       1.0793144
    99   6 C      206   1 H                                       1.0801354
   100   6 C      207   1 H                                       1.0778936
   103   6 C      208   1 H                                       1.0853669
   103   6 C      209   1 H                                       1.0857666
   103   6 C      210   1 H                                       1.0854109
   104   6 C      211   1 H                                       1.0793510
   105   6 C      212   1 H                                       1.0795887
   109   6 C      213   1 H                                       1.0671203 (min)
   113   6 C      214   1 H                                       1.0798109
   114   6 C      215   1 H                                       1.0807755
   116   6 C      216   1 H                                       1.0914344
   116   6 C      217   1 H                                       1.0928561
   117   6 C      218   1 H                                       1.0877314
   117   6 C      219   1 H                                       1.0876855
   117   6 C      220   1 H                                       1.0875405
   118   6 C      221   1 H                                       1.0810705
   119   6 C      222   1 H                                       1.0795678
   124   6 C      223   1 H                                       1.0786941
   125   6 C      224   1 H                                       1.0806774
   127   6 C      225   1 H                                       1.0923113
   127   6 C      226   1 H                                       1.0922086
   128   6 C      227   1 H                                       1.0875796
   128   6 C      228   1 H                                       1.0874668
   128   6 C      229   1 H                                       1.0877738
   129   6 C      230   1 H                                       1.0813344
   130   6 C      231   1 H                                       1.0785194
   133   6 C      232   1 H                                       1.0687510
   136   6 C      233   1 H                                       1.0839719
   142   6 C      234   1 H                                       1.0924398
   142   6 C      235   1 H                                       1.0922677
   143   6 C      236   1 H                                       1.0877092
   143   6 C      237   1 H                                       1.0862187
   143   6 C      238   1 H                                       1.0874346

 * 5 distinct bonds (by element types)

   Z      Z             #   av. dist./Å        max./Å        min./Å
   1 H    6 C          93     1.0829400     1.0928561     1.0671203
   6 C    6 C         104     1.4042403     1.5612636     1.3263253
   6 C    7 N          17     1.3680976     1.4538551     1.1481587
   6 C    8 O           7     1.2952539     1.3722710     1.1969369
   6 C   16 S           5     1.7339148     1.7594153     1.7243277


optimized geometry written to: xtbopt.mol


           -------------------------------------------------
          | TOTAL ENERGY             -387.460920755673 Eh   |
          | GRADIENT NORM               0.000581697453 Eh/α |
          | HOMO-LUMO GAP               0.739270431570 eV   |
           -------------------------------------------------

------------------------------------------------------------------------
 * finished run on 2022/02/09 at 01:37:13.544     
------------------------------------------------------------------------
 total:
 * wall-time:     0 d,  0 h,  3 min, 25.510 sec
 *  cpu-time:     0 d,  0 h, 27 min, 23.845 sec
 * ratio c/w:     7.999 speedup
 SCF:
 * wall-time:     0 d,  0 h,  0 min,  0.962 sec
 *  cpu-time:     0 d,  0 h,  0 min,  7.674 sec
 * ratio c/w:     7.981 speedup
 ANC optimizer:
 * wall-time:     0 d,  0 h,  3 min, 24.420 sec
 *  cpu-time:     0 d,  0 h, 27 min, 15.243 sec
 * ratio c/w:     7.999 speedup

