      -----------------------------------------------------------      
     |                   =====================                   |     
     |                           x T B                           |     
     |                   =====================                   |     
     |                         S. Grimme                         |     
     |          Mulliken Center for Theoretical Chemistry        |     
     |                    University of Bonn                     |     
      -----------------------------------------------------------      

   * xtb version 6.4.1 (unknown) compiled by 'oda6@login1.crc.pitt.edu' on 2021-06-25

   xtb is free software: you can redistribute it and/or modify it under
   the terms of the GNU Lesser General Public License as published by
   the Free Software Foundation, either version 3 of the License, or
   (at your option) any later version.
   
   xtb is distributed in the hope that it will be useful,
   but WITHOUT ANY WARRANTY; without even the implied warranty of
   MERCHANTABILITY or FITNESS FOR A PARTICULAR PURPOSE.  See the
   GNU Lesser General Public License for more details.
   
   Cite this work as:
   * C. Bannwarth, E. Caldeweyher, S. Ehlert, A. Hansen, P. Pracht,
     J. Seibert, S. Spicher, S. Grimme, WIREs Comput. Mol. Sci., 2020, 11,
     e01493. DOI: 10.1002/wcms.1493
   
   for GFN2-xTB:
   * C. Bannwarth, S. Ehlert and S. Grimme., J. Chem. Theory Comput., 2019,
     15, 1652-1671. DOI: 10.1021/acs.jctc.8b01176
   for GFN1-xTB:
   * S. Grimme, C. Bannwarth, P. Shushkov, J. Chem. Theory Comput., 2017,
     13, 1989-2009. DOI: 10.1021/acs.jctc.7b00118
   for GFN0-xTB:
   * P. Pracht, E. Caldeweyher, S. Ehlert, S. Grimme, ChemRxiv, 2019, preprint.
     DOI: 10.26434/chemrxiv.8326202.v1
   for GFN-FF:
   * S. Spicher and S. Grimme, Angew. Chem. Int. Ed., 2020, 59, 15665-15673.
     DOI: 10.1002/anie.202004239
   
   for DFT-D4:
   * E. Caldeweyher, C. Bannwarth and S. Grimme, J. Chem. Phys., 2017,
     147, 034112. DOI: 10.1063/1.4993215
   * E. Caldeweyher, S. Ehlert, A. Hansen, H. Neugebauer, S. Spicher,
     C. Bannwarth and S. Grimme, J. Chem. Phys., 2019, 150, 154122.
     DOI: 10.1063/1.5090222
   * E. Caldeweyher, J.-M. Mewes, S. Ehlert and S. Grimme, Phys. Chem. Chem. Phys.
     2020, 22, 8499-8512. DOI: 10.1039/D0CP00502A
   
   for sTDA-xTB:
   * S. Grimme and C. Bannwarth, J. Chem. Phys., 2016, 145, 054103.
     DOI: 10.1063/1.4959605
   
   in the mass-spec context:
   * V. Asgeirsson, C. Bauer and S. Grimme, Chem. Sci., 2017, 8, 4879.
     DOI: 10.1039/c7sc00601b
   * J. Koopman and S. Grimme, ACS Omega 2019, 4, 12, 15120-15133.
     DOI: 10.1021/acsomega.9b02011
   
   for metadynamics refer to:
   * S. Grimme, J. Chem. Theory Comput., 2019, 155, 2847-2862
     DOI: 10.1021/acs.jctc.9b00143
   
   for SPH calculations refer to:
   * S. Spicher and S. Grimme, J. Chem. Theory Comput., 2021, 17, 1701-1714
     DOI: 10.1021/acs.jctc.0c01306
   
   with help from (in alphabetical order)
   P. Atkinson, C. Bannwarth, F. Bohle, G. Brandenburg, E. Caldeweyher
   M. Checinski, S. Dohm, S. Ehlert, S. Ehrlich, I. Gerasimov, J. Koopman
   C. Lavigne, S. Lehtola, F. März, M. Müller, F. Musil, H. Neugebauer
   J. Pisarek, C. Plett, P. Pracht, J. Seibert, P. Shushkov, S. Spicher
   M. Stahn, M. Steiner, T. Strunk, J. Stückrath, T. Rose, and J. Unsleber
   
 * started run on 2022/02/05 at 14:45:46.595     

           -------------------------------------------------
          |                Calculation Setup                |
           -------------------------------------------------

          program call               : /ihome/ghutchison/oda6/xtb/xtb-641/bin/xtb ../../FF_optimized/39_130_130_143_39.mol -opt
          hostname                   : smp-n57
          coordinate file            : ../../FF_optimized/39_130_130_143_39.mol
          omp threads                :                     8
          number of atoms            :                   236
          number of electrons        :                   714
          charge                     :                     0
          spin                       :                   0.0
          first test random number   :      0.09942043034860

   ID    Z sym.   atoms
    1    6 C      1-3, 5-13, 15, 17-25, 27-30, 32-38, 40-43, 45, 46, 48-51,
                  53-59, 61-64, 66, 67, 69-72, 74-80, 82-85, 87, 88, 90-93,
                  95-101, 103-106, 108-113, 115-118, 120-126, 128-136, 138,
                  140-146
    2    8 O      4, 127
    3    7 N      14, 16, 26, 47, 68, 89, 137, 139
    4   16 S      31, 39, 44, 52, 60, 65, 73, 81, 86, 94, 102, 107, 114, 119
    5    1 H      147-236
########################################################################
[WARNING] Please study the warnings concerning your input carefully
-1- prog_main_parseArguments: the use of '-opt' is discouraged, please use '--opt' next time
########################################################################

           -------------------------------------------------
          |                 G F N 2 - x T B                 |
           -------------------------------------------------

        Reference                      10.1021/acs.jctc.8b01176
      * Hamiltonian:
        H0-scaling (s, p, d)           1.850000    2.230000    2.230000
        zeta-weighting                 0.500000
      * Dispersion:
        s8                             2.700000
        a1                             0.520000
        a2                             5.000000
        s9                             5.000000
      * Repulsion:
        kExp                           1.500000    1.000000
        rExp                           1.000000
      * Coulomb:
        alpha                          2.000000
        third order                    shell-resolved
        anisotropic                    true
        a3                             3.000000
        a5                             4.000000
        cn-shift                       1.200000
        cn-exp                         4.000000
        max-rad                        5.000000


          ...................................................
          :                      SETUP                      :
          :.................................................:
          :  # basis functions                 758          :
          :  # atomic orbitals                 744          :
          :  # shells                          396          :
          :  # electrons                       714          :
          :  max. iterations                   250          :
          :  Hamiltonian                  GFN2-xTB          :
          :  restarted?                      false          :
          :  GBSA solvation                  false          :
          :  PC potential                    false          :
          :  electronic temp.          300.0000000     K    :
          :  accuracy                    1.0000000          :
          :  -> integral cutoff          0.2500000E+02      :
          :  -> integral neglect         0.1000000E-07      :
          :  -> SCF convergence          0.1000000E-05 Eh   :
          :  -> wf. convergence          0.1000000E-03 e    :
          :  Broyden damping             0.4000000          :
          ...................................................

 iter      E             dE          RMSdq      gap      omega  full diag
   1   -389.0438238 -0.389044E+03  0.491E+00    0.72       0.0  T
   2   -389.2837519 -0.239928E+00  0.291E+00    0.56       1.0  T
   3   -387.9006867  0.138307E+01  0.255E+00    0.06       1.0  T
   4   -387.6977142  0.202972E+00  0.155E+00    0.04       1.0  T
   5   -386.0875115  0.161020E+01  0.266E+00    0.09       1.0  T
   6   -389.3395558 -0.325204E+01  0.765E-01    0.17       1.0  T
   7   -389.4416138 -0.102058E+00  0.424E-01    0.36       1.0  T
   8   -389.4449723 -0.335854E-02  0.358E-01    0.43       1.0  T
   9   -389.4535409 -0.856857E-02  0.236E-01    0.44       1.0  T
  10   -389.4551578 -0.161695E-02  0.157E-01    0.43       1.0  T
  11   -389.4560539 -0.896076E-03  0.949E-02    0.25       1.0  T
  12   -389.4566551 -0.601223E-03  0.603E-02    0.28       1.0  T
  13   -389.4573658 -0.710706E-03  0.369E-02    0.30       1.0  T
  14   -389.4576784 -0.312598E-03  0.242E-02    0.26       1.0  T
  15   -389.4577989 -0.120423E-03  0.139E-02    0.23       1.0  T
  16   -389.4578267 -0.278730E-04  0.622E-03    0.23       1.0  T
  17   -389.4578291 -0.233510E-05  0.641E-03    0.22       1.0  T
  18   -389.4578294 -0.279904E-06  0.616E-03    0.24       1.1  T
  19   -389.4578347 -0.536578E-05  0.176E-03    0.23       3.7  T
  20   -389.4578349 -0.170371E-06  0.115E-03    0.23       5.7  T
  21   -389.4578351 -0.187570E-06  0.563E-04    0.23      11.6  T
  22   -389.4578351 -0.754244E-08  0.353E-04    0.23      18.4  T

   *** convergence criteria satisfied after 22 iterations ***

         #    Occupation            Energy/Eh            Energy/eV
      -------------------------------------------------------------
         1        2.0000           -0.7671050             -20.8740
       ...           ...                  ...                  ...
       351        2.0000           -0.3658691              -9.9558
       352        1.9998           -0.3643421              -9.9143
       353        1.9998           -0.3641239              -9.9083
       354        1.9994           -0.3631692              -9.8823
       355        1.9986           -0.3623100              -9.8590
       356        1.9948           -0.3610963              -9.8259
       357        1.9793           -0.3597705              -9.7899 (HOMO)
       358        0.0283           -0.3514049              -9.5622 (LUMO)
       359        0.0000           -0.3436099              -9.3501
       360                         -0.3361041              -9.1459
       361                         -0.3222390              -8.7686
       362                         -0.2994214              -8.1477
       ...                                ...                  ...
       744                          1.0744558              29.2374
      -------------------------------------------------------------
                  HL-Gap            0.0083656 Eh            0.2276 eV
             Fermi-level           -0.3554364 Eh           -9.6719 eV

 SCC (total)                   0 d,  0 h,  0 min,  1.457 sec
 SCC setup                      ...        0 min,  0.004 sec (  0.293%)
 Dispersion                     ...        0 min,  0.013 sec (  0.896%)
 classical contributions        ...        0 min,  0.001 sec (  0.035%)
 integral evaluation            ...        0 min,  0.050 sec (  3.464%)
 iterations                     ...        0 min,  1.185 sec ( 81.316%)
 molecular gradient             ...        0 min,  0.199 sec ( 13.657%)
 printout                       ...        0 min,  0.005 sec (  0.332%)

         :::::::::::::::::::::::::::::::::::::::::::::::::::::
         ::                     SUMMARY                     ::
         :::::::::::::::::::::::::::::::::::::::::::::::::::::
         :: total energy            -383.639664743576 Eh    ::
         :: gradient norm              0.365834067945 Eh/a0 ::
         :: HOMO-LUMO gap              0.227638339521 eV    ::
         ::.................................................::
         :: SCC energy              -389.457835082671 Eh    ::
         :: -> isotropic ES            0.134167042837 Eh    ::
         :: -> anisotropic ES          0.029082550330 Eh    ::
         :: -> anisotropic XC          0.263165826875 Eh    ::
         :: -> dispersion             -0.416284160240 Eh    ::
         :: repulsion energy           5.793573881138 Eh    ::
         :: add. restraining           0.000000000000 Eh    ::
         :: total charge               0.000000000540 e     ::
         :::::::::::::::::::::::::::::::::::::::::::::::::::::

      ----------------------------------------------------------- 
     |                   =====================                   |
     |                        A N C O P T                        |
     |                   =====================                   |
     |               Approximate Normal Coordinate               |
     |                Rational Function Optimizer                |
      ----------------------------------------------------------- 

          ...................................................
          :                      SETUP                      :
          :.................................................:
          :   optimization level            normal          :
          :   max. optcycles                   708          :
          :   ANC micro-cycles                  20          :
          :   degrees of freedom               702          :
          :.................................................:
          :   RF solver                   davidson          :
          :   write xtbopt.log                true          :
          :   linear?                        false          :
          :   energy convergence         0.5000000E-05 Eh   :
          :   grad. convergence          0.1000000E-02 Eh/α :
          :   maximium RF displ.         1.0000000          :
          :   Hlow (freq-cutoff)         0.1000000E-01      :
          :   Hmax (freq-cutoff)         5.0000000          :
          :   S6 in model hess.         20.0000000          :
          ...................................................

generating ANC from model Hessian ...
Using Lindh-Hessian (1995)
 Shifting diagonal of input Hessian by   1.000501485432820E-002
 Lowest  eigenvalues of input Hessian
    0.010000    0.000000    0.000000    0.000000    0.000000    0.000000
    0.000000    0.010005    0.010016    0.010027    0.010031    0.010051
    0.010065    0.010072    0.010098    0.010105    0.010135    0.010148
 Highest eigenvalues
    2.147162    2.152352    2.480848    2.491663    2.542102    2.550298
 

........................................................................
.............................. CYCLE    1 ..............................
........................................................................
   1   -389.4578351 -0.389458E+03  0.304E-04    0.23       0.0  T
   2   -389.4578350  0.463859E-07  0.575E-04    0.23      11.3  T
   3   -389.4578351 -0.608335E-07  0.221E-04    0.23      29.5  T
     SCC iter.                  ...        0 min,  0.167 sec
     gradient                   ...        0 min,  0.198 sec
 * total energy  :  -383.6396648 Eh     change       -0.1417550E-07 Eh
   gradient norm :     0.3658313 Eh/α   predicted     0.0000000E+00 (-100.00%)
   displ. norm   :     0.5335205 α      lambda       -0.1426373E+00
   maximum displ.:     0.0711729 α      in ANC's #370, #170, #439, ...

........................................................................
.............................. CYCLE    2 ..............................
........................................................................
   1   -389.7277996 -0.389728E+03  0.254E-01    0.29       0.0  T
   2   -389.7285320 -0.732441E-03  0.165E-01    0.18       1.0  T
   3   -389.7275243  0.100771E-02  0.116E-01    0.41       1.0  T
   4   -389.7289829 -0.145863E-02  0.658E-02    0.25       1.0  T
   5   -389.7298586 -0.875639E-03  0.329E-02    0.31       1.0  T
   6   -389.7299304 -0.718059E-04  0.205E-02    0.22       1.0  T
   7   -389.7300428 -0.112481E-03  0.689E-03    0.25       1.0  T
   8   -389.7300443 -0.150459E-05  0.507E-03    0.23       1.3  T
   9   -389.7300485 -0.420191E-05  0.203E-03    0.24       3.2  T
  10   -389.7300492 -0.672468E-06  0.103E-03    0.24       6.3  T
  11   -389.7300493 -0.921802E-07  0.727E-04    0.24       9.0  T
  12   -389.7300494 -0.706861E-07  0.302E-04    0.24      21.6  T
     SCC iter.                  ...        0 min,  0.632 sec
     gradient                   ...        0 min,  0.196 sec
 * total energy  :  -383.7456851 Eh     change       -0.1060203E+00 Eh
   gradient norm :     0.1764908 Eh/α   predicted    -0.9167651E-01 ( -13.53%)
   displ. norm   :     0.5292302 α      lambda       -0.6516802E-01
   maximum displ.:     0.0936199 α      in ANC's #46, #137, #200, ...

........................................................................
.............................. CYCLE    3 ..............................
........................................................................
   1   -389.9187364 -0.389919E+03  0.208E-01    0.28       0.0  T
   2   -389.9197382 -0.100181E-02  0.133E-01    0.21       1.0  T
   3   -389.9191008  0.637451E-03  0.936E-02    0.34       1.0  T
   4   -389.9198286 -0.727831E-03  0.553E-02    0.23       1.0  T
   5   -389.9204631 -0.634503E-03  0.220E-02    0.27       1.0  T
   6   -389.9205520 -0.888565E-04  0.720E-03    0.25       1.0  T
   7   -389.9205572 -0.523911E-05  0.431E-03    0.24       1.5  T
   8   -389.9205603 -0.303537E-05  0.232E-03    0.25       2.8  T
   9   -389.9205610 -0.694689E-06  0.146E-03    0.25       4.5  T
  10   -389.9205613 -0.383193E-06  0.602E-04    0.25      10.8  T
  11   -389.9205614 -0.267399E-07  0.360E-04    0.25      18.1  T
     SCC iter.                  ...        0 min,  0.570 sec
     gradient                   ...        0 min,  0.196 sec
 * total energy  :  -383.7884033 Eh     change       -0.4271827E-01 Eh
   gradient norm :     0.0562312 Eh/α   predicted    -0.4171034E-01 (  -2.36%)
   displ. norm   :     0.5872502 α      lambda       -0.2086473E-01
   maximum displ.:     0.1777738 α      in ANC's #46, #137, #100, ...

........................................................................
.............................. CYCLE    4 ..............................
........................................................................
   1   -389.9674493 -0.389967E+03  0.169E-01    0.35       0.0  T
   2   -389.9672889  0.160416E-03  0.105E-01    0.26       1.0  T
   3   -389.9658347  0.145415E-02  0.107E-01    0.29       1.0  T
   4   -389.9679124 -0.207772E-02  0.262E-02    0.29       1.0  T
   5   -389.9680844 -0.171918E-03  0.836E-03    0.27       1.0  T
   6   -389.9680963 -0.119831E-04  0.328E-03    0.28       2.0  T
   7   -389.9680971 -0.720943E-06  0.175E-03    0.28       3.7  T
   8   -389.9680973 -0.269482E-06  0.108E-03    0.28       6.0  T
   9   -389.9680976 -0.236906E-06  0.489E-04    0.28      13.3  T
  10   -389.9680976 -0.195907E-07  0.251E-04    0.28      25.9  T
     SCC iter.                  ...        0 min,  0.533 sec
     gradient                   ...        0 min,  0.197 sec
 * total energy  :  -383.8027664 Eh     change       -0.1436304E-01 Eh
   gradient norm :     0.0427118 Eh/α   predicted    -0.1403010E-01 (  -2.32%)
   displ. norm   :     0.7452262 α      lambda       -0.1674606E-01
   maximum displ.:     0.3714715 α      in ANC's #46, #82, #137, ...

........................................................................
.............................. CYCLE    5 ..............................
........................................................................
   1   -390.0272531 -0.390027E+03  0.317E-01    0.29       0.0  T
   2   -390.0275062 -0.253160E-03  0.178E-01    0.31       1.0  T
   3   -390.0251076  0.239866E-02  0.915E-02    0.23       1.0  T
   4   -390.0277254 -0.261785E-02  0.177E-02    0.31       1.0  T
   5   -390.0277967 -0.712662E-04  0.873E-03    0.29       1.0  T
   6   -390.0278076 -0.109144E-04  0.413E-03    0.29       1.6  T
   7   -390.0278089 -0.124992E-05  0.216E-03    0.29       3.0  T
   8   -390.0278097 -0.874905E-06  0.921E-04    0.29       7.1  T
   9   -390.0278098 -0.850692E-07  0.545E-04    0.29      11.9  T
     SCC iter.                  ...        0 min,  0.474 sec
     gradient                   ...        0 min,  0.196 sec
 * total energy  :  -383.8112637 Eh     change       -0.8497367E-02 Eh
   gradient norm :     0.0442143 Eh/α   predicted    -0.1302309E-01 (  53.26%)
   displ. norm   :     0.6191317 α      lambda       -0.9522632E-02
   maximum displ.:     0.3476341 α      in ANC's #46, #100, #43, ...

........................................................................
.............................. CYCLE    6 ..............................
........................................................................
   1   -390.0212682 -0.390021E+03  0.150E-01    0.36       0.0  T
   2   -390.0212480  0.202081E-04  0.894E-02    0.35       1.0  T
   3   -390.0202982  0.949814E-03  0.816E-02    0.31       1.0  T
   4   -390.0215182 -0.122004E-02  0.112E-02    0.33       1.0  T
   5   -390.0215438 -0.255468E-04  0.551E-03    0.33       1.2  T
   6   -390.0215475 -0.377048E-05  0.219E-03    0.33       3.0  T
   7   -390.0215482 -0.672658E-06  0.118E-03    0.33       5.5  T
   8   -390.0215485 -0.307041E-06  0.411E-04    0.33      15.8  T
   9   -390.0215485 -0.223077E-07  0.198E-04    0.33      32.9  T
     SCC iter.                  ...        0 min,  0.480 sec
     gradient                   ...        0 min,  0.196 sec
 * total energy  :  -383.8186227 Eh     change       -0.7358914E-02 Eh
   gradient norm :     0.0354452 Eh/α   predicted    -0.6586461E-02 ( -10.50%)
   displ. norm   :     0.7103858 α      lambda       -0.9126380E-02
   maximum displ.:     0.2998623 α      in ANC's #46, #100, #84, ...

........................................................................
.............................. CYCLE    7 ..............................
........................................................................
   1   -390.0096019 -0.390010E+03  0.173E-01    0.35       0.0  T
   2   -390.0096377 -0.357356E-04  0.996E-02    0.35       1.0  T
   3   -390.0084291  0.120853E-02  0.853E-02    0.34       1.0  T
   4   -390.0098857 -0.145653E-02  0.103E-02    0.35       1.0  T
   5   -390.0099021 -0.164353E-04  0.546E-03    0.34       1.2  T
   6   -390.0099055 -0.338862E-05  0.235E-03    0.34       2.8  T
   7   -390.0099063 -0.857892E-06  0.103E-03    0.34       6.3  T
   8   -390.0099065 -0.181630E-06  0.436E-04    0.34      14.9  T
   9   -390.0099065 -0.249094E-07  0.223E-04    0.34      29.2  T
     SCC iter.                  ...        0 min,  0.477 sec
     gradient                   ...        0 min,  0.196 sec
 * total energy  :  -383.8238674 Eh     change       -0.5244788E-02 Eh
   gradient norm :     0.0428597 Eh/α   predicted    -0.6865994E-02 (  30.91%)
   displ. norm   :     0.6568849 α      lambda       -0.9457918E-02
   maximum displ.:     0.2600698 α      in ANC's #46, #48, #82, ...

........................................................................
.............................. CYCLE    8 ..............................
........................................................................
   1   -390.0163095 -0.390016E+03  0.213E-01    0.34       0.0  T
   2   -390.0164619 -0.152344E-03  0.119E-01    0.34       1.0  T
   3   -390.0159133  0.548593E-03  0.496E-02    0.33       1.0  T
   4   -390.0165547 -0.641403E-03  0.892E-03    0.34       1.0  T
   5   -390.0165636 -0.889907E-05  0.490E-03    0.34       1.3  T
   6   -390.0165666 -0.298643E-05  0.194E-03    0.34       3.4  T
   7   -390.0165672 -0.607232E-06  0.723E-04    0.34       9.0  T
   8   -390.0165673 -0.683178E-07  0.354E-04    0.34      18.4  T
     SCC iter.                  ...        0 min,  0.417 sec
     gradient                   ...        0 min,  0.196 sec
 * total energy  :  -383.8290631 Eh     change       -0.5195694E-02 Eh
   gradient norm :     0.0437571 Eh/α   predicted    -0.6769499E-02 (  30.29%)
   displ. norm   :     0.6026472 α      lambda       -0.5874564E-02
   maximum displ.:     0.3282374 α      in ANC's #46, #48, #53, ...

........................................................................
.............................. CYCLE    9 ..............................
........................................................................
   1   -390.0234660 -0.390023E+03  0.161E-01    0.34       0.0  T
   2   -390.0234849 -0.188565E-04  0.930E-02    0.34       1.0  T
   3   -390.0223910  0.109386E-02  0.681E-02    0.34       1.0  T
   4   -390.0236255 -0.123444E-02  0.747E-03    0.34       1.0  T
   5   -390.0236305 -0.506309E-05  0.444E-03    0.34       1.5  T
   6   -390.0236331 -0.261117E-05  0.154E-03    0.34       4.2  T
   7   -390.0236335 -0.330404E-06  0.614E-04    0.34      10.6  T
   8   -390.0236335 -0.502036E-07  0.323E-04    0.34      20.2  T
     SCC iter.                  ...        0 min,  0.431 sec
     gradient                   ...        0 min,  0.196 sec
 * total energy  :  -383.8333874 Eh     change       -0.4324210E-02 Eh
   gradient norm :     0.0696449 Eh/α   predicted    -0.4004059E-02 (  -7.40%)
   displ. norm   :     0.6346527 α      lambda       -0.8793343E-02
   maximum displ.:     0.1517088 α      in ANC's #46, #48, #53, ...

........................................................................
.............................. CYCLE   10 ..............................
........................................................................
   1   -390.0713145 -0.390071E+03  0.123E-01    0.34       0.0  T
   2   -390.0714367 -0.122172E-03  0.707E-02    0.34       1.0  T
   3   -390.0710853  0.351447E-03  0.411E-02    0.35       1.0  T
   4   -390.0714807 -0.395474E-03  0.983E-03    0.34       1.0  T
   5   -390.0714981 -0.173891E-04  0.427E-03    0.35       1.5  T
   6   -390.0715007 -0.262308E-05  0.185E-03    0.35       3.5  T
   7   -390.0715012 -0.460224E-06  0.869E-04    0.35       7.5  T
   8   -390.0715013 -0.119914E-06  0.334E-04    0.35      19.5  T
     SCC iter.                  ...        0 min,  0.426 sec
     gradient                   ...        0 min,  0.198 sec
 * total energy  :  -383.8377751 Eh     change       -0.4387783E-02 Eh
   gradient norm :     0.0662935 Eh/α   predicted    -0.6167582E-02 (  40.56%)
   displ. norm   :     0.6267679 α      lambda       -0.6823112E-02
   maximum displ.:     0.2525405 α      in ANC's #46, #48, #53, ...

........................................................................
.............................. CYCLE   11 ..............................
........................................................................
   1   -390.0505383 -0.390051E+03  0.157E-01    0.34       0.0  T
   2   -390.0506221 -0.838124E-04  0.873E-02    0.34       1.0  T
   3   -390.0504303  0.191837E-03  0.299E-02    0.34       1.0  T
   4   -390.0506514 -0.221115E-03  0.701E-03    0.34       1.0  T
   5   -390.0506573 -0.594726E-05  0.351E-03    0.34       1.9  T
   6   -390.0506590 -0.167978E-05  0.154E-03    0.34       4.2  T
   7   -390.0506593 -0.304462E-06  0.571E-04    0.34      11.4  T
   8   -390.0506594 -0.444334E-07  0.281E-04    0.34      23.2  T
     SCC iter.                  ...        0 min,  0.427 sec
     gradient                   ...        0 min,  0.196 sec
 * total energy  :  -383.8432186 Eh     change       -0.5443505E-02 Eh
   gradient norm :     0.0295165 Eh/α   predicted    -0.4751749E-02 ( -12.71%)
   displ. norm   :     0.7983614 α      lambda       -0.5581065E-02
   maximum displ.:     0.3065896 α      in ANC's #46, #48, #53, ...

........................................................................
.............................. CYCLE   12 ..............................
........................................................................
   1   -390.0320946 -0.390032E+03  0.172E-01    0.33       0.0  T
   2   -390.0321521 -0.575345E-04  0.969E-02    0.34       1.0  T
   3   -390.0316031  0.549017E-03  0.487E-02    0.34       1.0  T
   4   -390.0322175 -0.614358E-03  0.788E-03    0.34       1.0  T
   5   -390.0322201 -0.260950E-05  0.442E-03    0.34       1.5  T
   6   -390.0322233 -0.319590E-05  0.170E-03    0.34       3.8  T
   7   -390.0322238 -0.500809E-06  0.649E-04    0.34      10.0  T
   8   -390.0322238 -0.507352E-07  0.325E-04    0.34      20.0  T
     SCC iter.                  ...        0 min,  0.416 sec
     gradient                   ...        0 min,  0.196 sec
 * total energy  :  -383.8478851 Eh     change       -0.4666482E-02 Eh
   gradient norm :     0.0536511 Eh/α   predicted    -0.4569168E-02 (  -2.09%)
   displ. norm   :     0.7408200 α      lambda       -0.5260983E-02
   maximum displ.:     0.1926941 α      in ANC's #48, #53, #46, ...

........................................................................
.............................. CYCLE   13 ..............................
........................................................................
   1   -390.0401310 -0.390040E+03  0.134E-01    0.34       0.0  T
   2   -390.0401702 -0.392119E-04  0.753E-02    0.34       1.0  T
   3   -390.0398704  0.299745E-03  0.360E-02    0.34       1.0  T
   4   -390.0402073 -0.336884E-03  0.710E-03    0.34       1.0  T
   5   -390.0402100 -0.272142E-05  0.377E-03    0.34       1.7  T
   6   -390.0402124 -0.231063E-05  0.137E-03    0.34       4.8  T
   7   -390.0402127 -0.364998E-06  0.592E-04    0.34      11.0  T
   8   -390.0402128 -0.541278E-07  0.272E-04    0.34      23.9  T
     SCC iter.                  ...        0 min,  0.439 sec
     gradient                   ...        0 min,  0.196 sec
 * total energy  :  -383.8522488 Eh     change       -0.4363685E-02 Eh
   gradient norm :     0.0470157 Eh/α   predicted    -0.4074149E-02 (  -6.64%)
   displ. norm   :     0.8146454 α      lambda       -0.5298331E-02
   maximum displ.:     0.2637731 α      in ANC's #46, #48, #53, ...

........................................................................
.............................. CYCLE   14 ..............................
........................................................................
   1   -390.0441314 -0.390044E+03  0.148E-01    0.33       0.0  T
   2   -390.0441975 -0.661457E-04  0.853E-02    0.34       1.0  T
   3   -390.0435400  0.657543E-03  0.538E-02    0.33       1.0  T
   4   -390.0442840 -0.744003E-03  0.937E-03    0.34       1.0  T
   5   -390.0442917 -0.773054E-05  0.492E-03    0.34       1.3  T
   6   -390.0442953 -0.356078E-05  0.189E-03    0.34       3.4  T
   7   -390.0442958 -0.513414E-06  0.702E-04    0.34       9.3  T
   8   -390.0442959 -0.809019E-07  0.340E-04    0.34      19.1  T
     SCC iter.                  ...        0 min,  0.434 sec
     gradient                   ...        0 min,  0.196 sec
 * total energy  :  -383.8565339 Eh     change       -0.4285104E-02 Eh
   gradient norm :     0.0288098 Eh/α   predicted    -0.4407297E-02 (   2.85%)
   displ. norm   :     0.7714435 α      lambda       -0.5284643E-02
   maximum displ.:     0.1995942 α      in ANC's #46, #48, #55, ...

........................................................................
.............................. CYCLE   15 ..............................
........................................................................
   1   -390.0743020 -0.390074E+03  0.165E-01    0.33       0.0  T
   2   -390.0743899 -0.879065E-04  0.915E-02    0.34       1.0  T
   3   -390.0741468  0.243104E-03  0.319E-02    0.34       1.0  T
   4   -390.0744240 -0.277201E-03  0.943E-03    0.34       1.0  T
   5   -390.0744352 -0.111619E-04  0.455E-03    0.34       1.4  T
   6   -390.0744373 -0.209101E-05  0.189E-03    0.34       3.4  T
   7   -390.0744378 -0.552365E-06  0.766E-04    0.34       8.5  T
   8   -390.0744379 -0.105014E-06  0.329E-04    0.34      19.8  T
     SCC iter.                  ...        0 min,  0.430 sec
     gradient                   ...        0 min,  0.196 sec
 * total energy  :  -383.8604649 Eh     change       -0.3930996E-02 Eh
   gradient norm :     0.0293337 Eh/α   predicted    -0.4214841E-02 (   7.22%)
   displ. norm   :     0.7890141 α      lambda       -0.5341043E-02
   maximum displ.:     0.1801328 α      in ANC's #55, #50, #48, ...

........................................................................
.............................. CYCLE   16 ..............................
........................................................................
   1   -390.0797270 -0.390080E+03  0.152E-01    0.33       0.0  T
   2   -390.0798326 -0.105556E-03  0.842E-02    0.34       1.0  T
   3   -390.0796945  0.138076E-03  0.295E-02    0.34       1.0  T
   4   -390.0798601 -0.165622E-03  0.909E-03    0.34       1.0  T
   5   -390.0798692 -0.908333E-05  0.382E-03    0.34       1.7  T
   6   -390.0798701 -0.852158E-06  0.198E-03    0.34       3.3  T
   7   -390.0798708 -0.694573E-06  0.737E-04    0.34       8.8  T
   8   -390.0798709 -0.858542E-07  0.333E-04    0.34      19.6  T
     SCC iter.                  ...        0 min,  0.426 sec
     gradient                   ...        0 min,  0.196 sec
 * total energy  :  -383.8635481 Eh     change       -0.3083242E-02 Eh
   gradient norm :     0.0502062 Eh/α   predicted    -0.4333040E-02 (  40.54%)
   displ. norm   :     0.6693019 α      lambda       -0.4805920E-02
   maximum displ.:     0.1782479 α      in ANC's #48, #55, #50, ...

........................................................................
.............................. CYCLE   17 ..............................
........................................................................
   1   -390.0753398 -0.390075E+03  0.119E-01    0.33       0.0  T
   2   -390.0754003 -0.604989E-04  0.665E-02    0.34       1.0  T
   3   -390.0752730  0.127310E-03  0.264E-02    0.34       1.0  T
   4   -390.0754189 -0.145918E-03  0.786E-03    0.34       1.0  T
   5   -390.0754250 -0.610822E-05  0.324E-03    0.34       2.0  T
   6   -390.0754260 -0.970049E-06  0.170E-03    0.34       3.8  T
   7   -390.0754266 -0.587195E-06  0.507E-04    0.34      12.8  T
   8   -390.0754266 -0.295860E-07  0.275E-04    0.34      23.7  T
     SCC iter.                  ...        0 min,  0.427 sec
     gradient                   ...        0 min,  0.196 sec
 * total energy  :  -383.8673252 Eh     change       -0.3777092E-02 Eh
   gradient norm :     0.0196262 Eh/α   predicted    -0.3479407E-02 (  -7.88%)
   displ. norm   :     0.8119723 α      lambda       -0.4170345E-02
   maximum displ.:     0.2058230 α      in ANC's #55, #48, #46, ...

........................................................................
.............................. CYCLE   18 ..............................
........................................................................
   1   -390.0635670 -0.390064E+03  0.158E-01    0.32       0.0  T
   2   -390.0636308 -0.638265E-04  0.890E-02    0.33       1.0  T
   3   -390.0631549  0.475891E-03  0.491E-02    0.33       1.0  T
   4   -390.0636994 -0.544535E-03  0.882E-03    0.34       1.0  T
   5   -390.0637018 -0.230735E-05  0.562E-03    0.33       1.2  T
   6   -390.0637078 -0.601206E-05  0.153E-03    0.33       4.3  T
   7   -390.0637081 -0.301325E-06  0.614E-04    0.33      10.6  T
   8   -390.0637081 -0.315446E-07  0.341E-04    0.33      19.1  T
     SCC iter.                  ...        0 min,  0.421 sec
     gradient                   ...        0 min,  0.196 sec
 * total energy  :  -383.8701022 Eh     change       -0.2777008E-02 Eh
   gradient norm :     0.0498326 Eh/α   predicted    -0.3459929E-02 (  24.59%)
   displ. norm   :     0.6764087 α      lambda       -0.4632531E-02
   maximum displ.:     0.1734132 α      in ANC's #19, #50, #55, ...

........................................................................
.............................. CYCLE   19 ..............................
........................................................................
   1   -390.0946779 -0.390095E+03  0.123E-01    0.33       0.0  T
   2   -390.0947323 -0.543677E-04  0.686E-02    0.34       1.0  T
   3   -390.0944889  0.243359E-03  0.355E-02    0.33       1.0  T
   4   -390.0947727 -0.283746E-03  0.713E-03    0.34       1.0  T
   5   -390.0947734 -0.692807E-06  0.472E-03    0.34       1.4  T
   6   -390.0947778 -0.441620E-05  0.142E-03    0.34       4.6  T
   7   -390.0947780 -0.258061E-06  0.625E-04    0.34      10.4  T
   8   -390.0947781 -0.510850E-07  0.320E-04    0.34      20.3  T
     SCC iter.                  ...        0 min,  0.422 sec
     gradient                   ...        0 min,  0.196 sec
 * total energy  :  -383.8728747 Eh     change       -0.2772466E-02 Eh
   gradient norm :     0.0335519 Eh/α   predicted    -0.3376030E-02 (  21.77%)
   displ. norm   :     0.7346424 α      lambda       -0.4684975E-02
   maximum displ.:     0.1756360 α      in ANC's #50, #70, #55, ...

........................................................................
.............................. CYCLE   20 ..............................
........................................................................
   1   -390.0823155 -0.390082E+03  0.133E-01    0.34       0.0  T
   2   -390.0823950 -0.795582E-04  0.727E-02    0.34       1.0  T
   3   -390.0823160  0.790795E-04  0.239E-02    0.35       1.0  T
   4   -390.0824097 -0.937878E-04  0.914E-03    0.34       1.0  T
   5   -390.0824197 -0.996198E-05  0.390E-03    0.34       1.7  T
   6   -390.0824207 -0.102803E-05  0.187E-03    0.34       3.5  T
   7   -390.0824214 -0.673451E-06  0.629E-04    0.34      10.3  T
   8   -390.0824214 -0.254614E-07  0.363E-04    0.34      18.0  T
     SCC iter.                  ...        0 min,  0.429 sec
     gradient                   ...        0 min,  0.197 sec
 * total energy  :  -383.8754671 Eh     change       -0.2592402E-02 Eh
   gradient norm :     0.0314939 Eh/α   predicted    -0.3606735E-02 (  39.13%)
   displ. norm   :     0.7094482 α      lambda       -0.3645693E-02
   maximum displ.:     0.1866821 α      in ANC's #19, #55, #50, ...
 * RMSD in coord.:     0.7426050 α      energy gain  -0.2358024E+00 Eh

generating ANC from model Hessian ...
Using Lindh-Hessian (1995)
 Shifting diagonal of input Hessian by   1.000654439414561E-002
 Lowest  eigenvalues of input Hessian
    0.010000    0.000000    0.000000    0.000000    0.000000    0.000000
    0.000000    0.010007    0.010017    0.010025    0.010043    0.010057
    0.010068    0.010082    0.010109    0.010122    0.010134    0.010157
 Highest eigenvalues
    2.279803    2.284587    2.572226    2.612666    2.640731    2.661139
 

........................................................................
.............................. CYCLE   21 ..............................
........................................................................
   1   -390.0757470 -0.390076E+03  0.124E-01    0.32       0.0  T
   2   -390.0757997 -0.527142E-04  0.687E-02    0.34       1.0  T
   3   -390.0756066  0.193098E-03  0.310E-02    0.33       1.0  T
   4   -390.0758248 -0.218206E-03  0.858E-03    0.34       1.0  T
   5   -390.0758322 -0.742059E-05  0.376E-03    0.34       1.7  T
   6   -390.0758333 -0.108775E-05  0.185E-03    0.34       3.5  T
   7   -390.0758340 -0.703664E-06  0.528E-04    0.34      12.3  T
   8   -390.0758341 -0.168479E-07  0.300E-04    0.34      21.7  T
     SCC iter.                  ...        0 min,  0.428 sec
     gradient                   ...        0 min,  0.196 sec
 * total energy  :  -383.8780601 Eh     change       -0.2592979E-02 Eh
   gradient norm :     0.0283076 Eh/α   predicted     0.0000000E+00 (-100.00%)
   displ. norm   :     0.2952924 α      lambda       -0.2146398E-02
   maximum displ.:     0.0777864 α      in ANC's #45, #50, #81, ...

........................................................................
.............................. CYCLE   22 ..............................
........................................................................
   1   -390.0886502 -0.390089E+03  0.990E-02    0.33       0.0  T
   2   -390.0886849 -0.347524E-04  0.548E-02    0.34       1.0  T
   3   -390.0886006  0.843567E-04  0.209E-02    0.33       1.0  T
   4   -390.0887047 -0.104168E-03  0.367E-03    0.34       1.8  T
   5   -390.0887050 -0.253165E-06  0.246E-03    0.34       2.6  T
   6   -390.0887061 -0.109378E-05  0.823E-04    0.34       7.9  T
   7   -390.0887062 -0.110026E-06  0.331E-04    0.34      19.6  T
   8   -390.0887062 -0.135361E-07  0.176E-04    0.34      36.9  T
     SCC iter.                  ...        0 min,  0.427 sec
     gradient                   ...        0 min,  0.196 sec
 * total energy  :  -383.8793208 Eh     change       -0.1260707E-02 Eh
   gradient norm :     0.0129200 Eh/α   predicted    -0.1167856E-02 (  -7.37%)
   displ. norm   :     0.5497781 α      lambda       -0.3007727E-02
   maximum displ.:     0.1537621 α      in ANC's #40, #51, #45, ...

........................................................................
.............................. CYCLE   23 ..............................
........................................................................
   1   -390.1118542 -0.390112E+03  0.136E-01    0.33       0.0  T
   2   -390.1119190 -0.647838E-04  0.749E-02    0.33       1.0  T
   3   -390.1118737  0.452733E-04  0.172E-02    0.33       1.0  T
   4   -390.1119407 -0.669584E-04  0.632E-03    0.34       1.0  T
   5   -390.1119444 -0.368562E-05  0.330E-03    0.33       2.0  T
   6   -390.1119464 -0.199030E-05  0.125E-03    0.33       5.2  T
   7   -390.1119467 -0.325453E-06  0.510E-04    0.33      12.8  T
   8   -390.1119467 -0.351255E-07  0.254E-04    0.33      25.7  T
     SCC iter.                  ...        0 min,  0.427 sec
     gradient                   ...        0 min,  0.196 sec
 * total energy  :  -383.8807986 Eh     change       -0.1477827E-02 Eh
   gradient norm :     0.0268394 Eh/α   predicted    -0.1958427E-02 (  32.52%)
   displ. norm   :     0.5350163 α      lambda       -0.2475603E-02
   maximum displ.:     0.1477284 α      in ANC's #45, #50, #40, ...

........................................................................
.............................. CYCLE   24 ..............................
........................................................................
   1   -390.1087597 -0.390109E+03  0.106E-01    0.33       0.0  T
   2   -390.1087974 -0.377300E-04  0.580E-02    0.34       1.0  T
   3   -390.1087617  0.357271E-04  0.150E-02    0.33       1.0  T
   4   -390.1088095 -0.478237E-04  0.560E-03    0.34       1.2  T
   5   -390.1088124 -0.290813E-05  0.244E-03    0.34       2.7  T
   6   -390.1088133 -0.881227E-06  0.101E-03    0.34       6.4  T
   7   -390.1088135 -0.207971E-06  0.361E-04    0.34      18.0  T
   8   -390.1088135 -0.129378E-07  0.206E-04    0.34      31.6  T
     SCC iter.                  ...        0 min,  0.427 sec
     gradient                   ...        0 min,  0.196 sec
 * total energy  :  -383.8828645 Eh     change       -0.2065871E-02 Eh
   gradient norm :     0.0175103 Eh/α   predicted    -0.1592114E-02 ( -22.93%)
   displ. norm   :     0.7492896 α      lambda       -0.3419351E-02
   maximum displ.:     0.2083746 α      in ANC's #45, #50, #51, ...

........................................................................
.............................. CYCLE   25 ..............................
........................................................................
   1   -390.0898263 -0.390090E+03  0.129E-01    0.33       0.0  T
   2   -390.0898836 -0.572741E-04  0.704E-02    0.34       1.0  T
   3   -390.0898261  0.574245E-04  0.188E-02    0.33       1.0  T
   4   -390.0898932 -0.670680E-04  0.835E-03    0.34       1.0  T
   5   -390.0899023 -0.908401E-05  0.337E-03    0.34       1.9  T
   6   -390.0899035 -0.121339E-05  0.162E-03    0.34       4.0  T
   7   -390.0899041 -0.582338E-06  0.542E-04    0.34      12.0  T
   8   -390.0899041 -0.374679E-07  0.293E-04    0.34      22.2  T
     SCC iter.                  ...        0 min,  0.421 sec
     gradient                   ...        0 min,  0.196 sec
 * total energy  :  -383.8850431 Eh     change       -0.2178554E-02 Eh
   gradient norm :     0.0275107 Eh/α   predicted    -0.2669547E-02 (  22.54%)
   displ. norm   :     0.6662578 α      lambda       -0.2638180E-02
   maximum displ.:     0.1896339 α      in ANC's #50, #51, #45, ...

........................................................................
.............................. CYCLE   26 ..............................
........................................................................
   1   -390.0806943 -0.390081E+03  0.140E-01    0.33       0.0  T
   2   -390.0807570 -0.626672E-04  0.767E-02    0.34       1.0  T
   3   -390.0806775  0.794529E-04  0.215E-02    0.33       1.0  T
   4   -390.0807804 -0.102861E-03  0.682E-03    0.34       1.0  T
   5   -390.0807841 -0.369266E-05  0.309E-03    0.34       2.1  T
   6   -390.0807856 -0.155869E-05  0.131E-03    0.34       5.0  T
   7   -390.0807860 -0.369616E-06  0.478E-04    0.34      13.6  T
   8   -390.0807860 -0.259582E-07  0.266E-04    0.34      24.5  T
     SCC iter.                  ...        0 min,  0.416 sec
     gradient                   ...        0 min,  0.195 sec
 * total energy  :  -383.8866923 Eh     change       -0.1649257E-02 Eh
   gradient norm :     0.0246600 Eh/α   predicted    -0.1904637E-02 (  15.48%)
   displ. norm   :     0.6039867 α      lambda       -0.2719113E-02
   maximum displ.:     0.1821491 α      in ANC's #50, #51, #17, ...

........................................................................
.............................. CYCLE   27 ..............................
........................................................................
   1   -390.0869611 -0.390087E+03  0.113E-01    0.33       0.0  T
   2   -390.0869998 -0.387305E-04  0.623E-02    0.34       1.0  T
   3   -390.0869446  0.552210E-04  0.187E-02    0.34       1.0  T
   4   -390.0870160 -0.714227E-04  0.537E-03    0.34       1.2  T
   5   -390.0870175 -0.148315E-05  0.243E-03    0.34       2.7  T
   6   -390.0870184 -0.935621E-06  0.935E-04    0.34       7.0  T
   7   -390.0870186 -0.160550E-06  0.392E-04    0.34      16.6  T
     SCC iter.                  ...        0 min,  0.368 sec
     gradient                   ...        0 min,  0.195 sec
 * total energy  :  -383.8887476 Eh     change       -0.2055241E-02 Eh
   gradient norm :     0.0221877 Eh/α   predicted    -0.1855530E-02 (  -9.72%)
   displ. norm   :     0.6648270 α      lambda       -0.2793090E-02
   maximum displ.:     0.1920940 α      in ANC's #17, #50, #51, ...

........................................................................
.............................. CYCLE   28 ..............................
........................................................................
   1   -390.1094907 -0.390109E+03  0.979E-02    0.33       0.0  T
   2   -390.1095188 -0.280908E-04  0.545E-02    0.34       1.0  T
   3   -390.1094046  0.114177E-03  0.223E-02    0.34       1.0  T
   4   -390.1095315 -0.126897E-03  0.613E-03    0.35       1.1  T
   5   -390.1095346 -0.306761E-05  0.300E-03    0.34       2.2  T
   6   -390.1095359 -0.135708E-05  0.118E-03    0.34       5.5  T
   7   -390.1095362 -0.252060E-06  0.515E-04    0.34      12.6  T
   8   -390.1095362 -0.511920E-07  0.233E-04    0.34      27.9  T
     SCC iter.                  ...        0 min,  0.427 sec
     gradient                   ...        0 min,  0.195 sec
 * total energy  :  -383.8907978 Eh     change       -0.2050249E-02 Eh
   gradient norm :     0.0223341 Eh/α   predicted    -0.2013838E-02 (  -1.78%)
   displ. norm   :     0.8351862 α      lambda       -0.2992449E-02
   maximum displ.:     0.2191777 α      in ANC's #17, #50, #51, ...

........................................................................
.............................. CYCLE   29 ..............................
........................................................................
   1   -390.0965625 -0.390097E+03  0.151E-01    0.33       0.0  T
   2   -390.0966331 -0.705931E-04  0.837E-02    0.35       1.0  T
   3   -390.0962749  0.358168E-03  0.429E-02    0.33       1.0  T
   4   -390.0966888 -0.413857E-03  0.822E-03    0.35       1.0  T
   5   -390.0966905 -0.174160E-05  0.503E-03    0.34       1.3  T
   6   -390.0966952 -0.467128E-05  0.175E-03    0.35       3.7  T
   7   -390.0966958 -0.538728E-06  0.611E-04    0.34      10.6  T
   8   -390.0966958 -0.229397E-07  0.358E-04    0.35      18.2  T
     SCC iter.                  ...        0 min,  0.423 sec
     gradient                   ...        0 min,  0.196 sec
 * total energy  :  -383.8922345 Eh     change       -0.1436702E-02 Eh
   gradient norm :     0.0440160 Eh/α   predicted    -0.2539898E-02 (  76.79%)
   displ. norm   :     0.5940728 α      lambda       -0.2995746E-02
   maximum displ.:     0.1698011 α      in ANC's #50, #17, #51, ...

........................................................................
.............................. CYCLE   30 ..............................
........................................................................
   1   -390.0962320 -0.390096E+03  0.907E-02    0.34       0.0  T
   2   -390.0962575 -0.254705E-04  0.505E-02    0.35       1.0  T
   3   -390.0961497  0.107780E-03  0.241E-02    0.35       1.0  T
   4   -390.0962729 -0.123182E-03  0.579E-03    0.35       1.1  T
   5   -390.0962741 -0.119849E-05  0.336E-03    0.35       1.9  T
   6   -390.0962762 -0.207448E-05  0.112E-03    0.35       5.8  T
   7   -390.0962764 -0.206895E-06  0.389E-04    0.35      16.7  T
   8   -390.0962764 -0.153547E-07  0.221E-04    0.35      29.5  T
     SCC iter.                  ...        0 min,  0.424 sec
     gradient                   ...        0 min,  0.195 sec
 * total energy  :  -383.8942895 Eh     change       -0.2054990E-02 Eh
   gradient norm :     0.0147257 Eh/α   predicted    -0.2026510E-02 (  -1.39%)
   displ. norm   :     0.6536111 α      lambda       -0.2404053E-02
   maximum displ.:     0.2046052 α      in ANC's #17, #50, #18, ...

........................................................................
.............................. CYCLE   31 ..............................
........................................................................
   1   -390.1129120 -0.390113E+03  0.908E-02    0.34       0.0  T
   2   -390.1129411 -0.291099E-04  0.503E-02    0.36       1.0  T
   3   -390.1128634  0.776577E-04  0.194E-02    0.35       1.0  T
   4   -390.1129464 -0.829701E-04  0.718E-03    0.36       1.0  T
   5   -390.1129541 -0.767526E-05  0.295E-03    0.36       2.2  T
   6   -390.1129546 -0.474397E-06  0.155E-03    0.36       4.2  T
   7   -390.1129551 -0.512781E-06  0.513E-04    0.36      12.7  T
   8   -390.1129551 -0.288027E-07  0.302E-04    0.36      21.6  T
     SCC iter.                  ...        0 min,  0.426 sec
     gradient                   ...        0 min,  0.195 sec
 * total energy  :  -383.8956488 Eh     change       -0.1359280E-02 Eh
   gradient norm :     0.0211693 Eh/α   predicted    -0.1715547E-02 (  26.21%)
   displ. norm   :     0.7390036 α      lambda       -0.2486087E-02
   maximum displ.:     0.2170770 α      in ANC's #17, #18, #50, ...

........................................................................
.............................. CYCLE   32 ..............................
........................................................................
   1   -390.1115669 -0.390112E+03  0.101E-01    0.35       0.0  T
   2   -390.1115978 -0.309266E-04  0.553E-02    0.36       1.0  T
   3   -390.1115524  0.454218E-04  0.161E-02    0.36       1.0  T
   4   -390.1116007 -0.483210E-04  0.723E-03    0.37       1.0  T
   5   -390.1116079 -0.717691E-05  0.325E-03    0.36       2.0  T
   6   -390.1116092 -0.137421E-05  0.144E-03    0.36       4.5  T
   7   -390.1116097 -0.463223E-06  0.446E-04    0.36      14.6  T
   8   -390.1116097 -0.151479E-07  0.282E-04    0.36      23.1  T
     SCC iter.                  ...        0 min,  0.420 sec
     gradient                   ...        0 min,  0.195 sec
 * total energy  :  -383.8976060 Eh     change       -0.1957192E-02 Eh
   gradient norm :     0.0110063 Eh/α   predicted    -0.1921903E-02 (  -1.80%)
   displ. norm   :     0.8417576 α      lambda       -0.1959400E-02
   maximum displ.:     0.2531461 α      in ANC's #17, #18, #50, ...

........................................................................
.............................. CYCLE   33 ..............................
........................................................................
   1   -390.1016116 -0.390102E+03  0.115E-01    0.35       0.0  T
   2   -390.1016448 -0.331427E-04  0.625E-02    0.37       1.0  T
   3   -390.1015554  0.893355E-04  0.205E-02    0.36       1.0  T
   4   -390.1016515 -0.960999E-04  0.819E-03    0.37       1.0  T
   5   -390.1016590 -0.743034E-05  0.380E-03    0.37       1.7  T
   6   -390.1016613 -0.234230E-05  0.139E-03    0.37       4.7  T
   7   -390.1016617 -0.411401E-06  0.506E-04    0.37      12.9  T
   8   -390.1016618 -0.335610E-07  0.283E-04    0.37      23.0  T
     SCC iter.                  ...        0 min,  0.420 sec
     gradient                   ...        0 min,  0.195 sec
 * total energy  :  -383.8991423 Eh     change       -0.1536363E-02 Eh
   gradient norm :     0.0167698 Eh/α   predicted    -0.1673877E-02 (   8.95%)
   displ. norm   :     0.7418631 α      lambda       -0.1970398E-02
   maximum displ.:     0.2406106 α      in ANC's #17, #18, #9, ...

........................................................................
.............................. CYCLE   34 ..............................
........................................................................
   1   -390.1183250 -0.390118E+03  0.902E-02    0.36       0.0  T
   2   -390.1183419 -0.168644E-04  0.494E-02    0.38       1.0  T
   3   -390.1182432  0.987108E-04  0.209E-02    0.37       1.0  T
   4   -390.1183510 -0.107841E-03  0.666E-03    0.38       1.0  T
   5   -390.1183540 -0.298389E-05  0.367E-03    0.38       1.8  T
   6   -390.1183564 -0.235572E-05  0.111E-03    0.38       5.9  T
   7   -390.1183566 -0.233847E-06  0.517E-04    0.38      12.6  T
   8   -390.1183566 -0.412184E-07  0.271E-04    0.38      24.1  T
     SCC iter.                  ...        0 min,  0.428 sec
     gradient                   ...        0 min,  0.195 sec
 * total energy  :  -383.9007226 Eh     change       -0.1580272E-02 Eh
   gradient norm :     0.0127548 Eh/α   predicted    -0.1527421E-02 (  -3.34%)
   displ. norm   :     0.8140620 α      lambda       -0.1985510E-02
   maximum displ.:     0.2574130 α      in ANC's #17, #50, #18, ...

........................................................................
.............................. CYCLE   35 ..............................
........................................................................
   1   -390.1156714 -0.390116E+03  0.110E-01    0.37       0.0  T
   2   -390.1157002 -0.288052E-04  0.602E-02    0.39       1.0  T
   3   -390.1156179  0.823577E-04  0.195E-02    0.37       1.0  T
   4   -390.1157043 -0.863853E-04  0.792E-03    0.39       1.0  T
   5   -390.1157123 -0.805175E-05  0.372E-03    0.38       1.7  T
   6   -390.1157145 -0.214751E-05  0.140E-03    0.39       4.7  T
   7   -390.1157149 -0.416616E-06  0.510E-04    0.38      12.8  T
   8   -390.1157149 -0.357841E-07  0.285E-04    0.38      22.8  T
     SCC iter.                  ...        0 min,  0.422 sec
     gradient                   ...        0 min,  0.195 sec
 * total energy  :  -383.9021948 Eh     change       -0.1472171E-02 Eh
   gradient norm :     0.0137864 Eh/α   predicted    -0.1650651E-02 (  12.12%)
   displ. norm   :     0.7830845 α      lambda       -0.1722576E-02
   maximum displ.:     0.2512904 α      in ANC's #17, #18, #9, ...

........................................................................
.............................. CYCLE   36 ..............................
........................................................................
   1   -390.1224913 -0.390122E+03  0.970E-02    0.38       0.0  T
   2   -390.1225128 -0.215307E-04  0.519E-02    0.40       1.0  T
   3   -390.1224406  0.721934E-04  0.183E-02    0.39       1.0  T
   4   -390.1225174 -0.767811E-04  0.757E-03    0.40       1.0  T
   5   -390.1225233 -0.586068E-05  0.345E-03    0.40       1.9  T
   6   -390.1225251 -0.177962E-05  0.128E-03    0.40       5.1  T
   7   -390.1225254 -0.381659E-06  0.465E-04    0.40      14.0  T
   8   -390.1225255 -0.337744E-07  0.250E-04    0.40      26.0  T
     SCC iter.                  ...        0 min,  0.421 sec
     gradient                   ...        0 min,  0.195 sec
 * total energy  :  -383.9036205 Eh     change       -0.1425720E-02 Eh
   gradient norm :     0.0139628 Eh/α   predicted    -0.1389455E-02 (  -2.54%)
   displ. norm   :     0.8260905 α      lambda       -0.1734507E-02
   maximum displ.:     0.2682986 α      in ANC's #17, #18, #9, ...

........................................................................
.............................. CYCLE   37 ..............................
........................................................................
   1   -390.1131818 -0.390113E+03  0.102E-01    0.39       0.0  T
   2   -390.1132073 -0.255219E-04  0.549E-02    0.41       1.0  T
   3   -390.1131284  0.789335E-04  0.189E-02    0.40       1.0  T
   4   -390.1132124 -0.839687E-04  0.776E-03    0.41       1.0  T
   5   -390.1132190 -0.666943E-05  0.354E-03    0.41       1.8  T
   6   -390.1132210 -0.196360E-05  0.136E-03    0.41       4.8  T
   7   -390.1132214 -0.438656E-06  0.473E-04    0.41      13.8  T
   8   -390.1132215 -0.302629E-07  0.270E-04    0.41      24.1  T
     SCC iter.                  ...        0 min,  0.425 sec
     gradient                   ...        0 min,  0.195 sec
 * total energy  :  -383.9050354 Eh     change       -0.1414903E-02 Eh
   gradient norm :     0.0151332 Eh/α   predicted    -0.1459089E-02 (   3.12%)
   displ. norm   :     0.7771529 α      lambda       -0.1716907E-02
   maximum displ.:     0.2504601 α      in ANC's #17, #18, #11, ...

........................................................................
.............................. CYCLE   38 ..............................
........................................................................
   1   -390.1265387 -0.390127E+03  0.928E-02    0.41       0.0  T
   2   -390.1265587 -0.199307E-04  0.489E-02    0.42       1.0  T
   3   -390.1265228  0.358460E-04  0.146E-02    0.41       1.0  T
   4   -390.1265609 -0.381047E-04  0.698E-03    0.42       1.0  T
   5   -390.1265652 -0.430391E-05  0.339E-03    0.42       1.9  T
   6   -390.1265675 -0.223499E-05  0.101E-03    0.42       6.5  T
   7   -390.1265677 -0.217974E-06  0.438E-04    0.42      14.9  T
   8   -390.1265677 -0.251776E-07  0.257E-04    0.42      25.4  T
     SCC iter.                  ...        0 min,  0.428 sec
     gradient                   ...        0 min,  0.195 sec
 * total energy  :  -383.9064702 Eh     change       -0.1434798E-02 Eh
   gradient norm :     0.0157962 Eh/α   predicted    -0.1376928E-02 (  -4.03%)
   displ. norm   :     0.8674047 α      lambda       -0.1750414E-02
   maximum displ.:     0.2785959 α      in ANC's #17, #18, #11, ...

........................................................................
.............................. CYCLE   39 ..............................
........................................................................
   1   -390.1232583 -0.390123E+03  0.114E-01    0.41       0.0  T
   2   -390.1232893 -0.310109E-04  0.598E-02    0.43       1.0  T
   3   -390.1232319  0.573813E-04  0.177E-02    0.42       1.0  T
   4   -390.1232898 -0.579635E-04  0.885E-03    0.43       1.0  T
   5   -390.1232994 -0.951860E-05  0.391E-03    0.43       1.7  T
   6   -390.1233023 -0.293646E-05  0.121E-03    0.43       5.4  T
   7   -390.1233026 -0.296598E-06  0.526E-04    0.43      12.4  T
   8   -390.1233026 -0.495448E-07  0.263E-04    0.43      24.8  T
     SCC iter.                  ...        0 min,  0.428 sec
     gradient                   ...        0 min,  0.196 sec
 * total energy  :  -383.9079751 Eh     change       -0.1504885E-02 Eh
   gradient norm :     0.0118523 Eh/α   predicted    -0.1533710E-02 (   1.92%)
   displ. norm   :     0.8076670 α      lambda       -0.1715029E-02
   maximum displ.:     0.2505000 α      in ANC's #17, #11, #18, ...

........................................................................
.............................. CYCLE   40 ..............................
........................................................................
   1   -390.1293578 -0.390129E+03  0.101E-01    0.42       0.0  T
   2   -390.1293858 -0.280182E-04  0.533E-02    0.43       1.0  T
   3   -390.1293526  0.331668E-04  0.147E-02    0.42       1.0  T
   4   -390.1293882 -0.356037E-04  0.730E-03    0.43       1.0  T
   5   -390.1293939 -0.564802E-05  0.337E-03    0.42       1.9  T
   6   -390.1293959 -0.200040E-05  0.119E-03    0.42       5.5  T
   7   -390.1293962 -0.313599E-06  0.449E-04    0.42      14.5  T
   8   -390.1293962 -0.301554E-07  0.252E-04    0.42      25.9  T
     SCC iter.                  ...        0 min,  0.417 sec
     gradient                   ...        0 min,  0.195 sec
 * total energy  :  -383.9093638 Eh     change       -0.1388740E-02 Eh
   gradient norm :     0.0207862 Eh/α   predicted    -0.1416899E-02 (   2.03%)
   displ. norm   :     0.8174043 α      lambda       -0.1774705E-02
   maximum displ.:     0.2532745 α      in ANC's #17, #11, #18, ...

........................................................................
.............................. CYCLE   41 ..............................
........................................................................
   1   -390.1224599 -0.390122E+03  0.107E-01    0.41       0.0  T
   2   -390.1224904 -0.304600E-04  0.555E-02    0.42       1.0  T
   3   -390.1224406  0.497259E-04  0.174E-02    0.41       1.0  T
   4   -390.1224942 -0.535311E-04  0.801E-03    0.42       1.0  T
   5   -390.1225005 -0.632954E-05  0.363E-03    0.41       1.8  T
   6   -390.1225027 -0.223476E-05  0.127E-03    0.41       5.1  T
   7   -390.1225031 -0.360112E-06  0.438E-04    0.41      14.9  T
   8   -390.1225031 -0.237625E-07  0.242E-04    0.41      26.9  T
     SCC iter.                  ...        0 min,  0.414 sec
     gradient                   ...        0 min,  0.195 sec
 * total energy  :  -383.9107939 Eh     change       -0.1430124E-02 Eh
   gradient norm :     0.0197943 Eh/α   predicted    -0.1480247E-02 (   3.50%)
   displ. norm   :     0.7651304 α      lambda       -0.1863081E-02
   maximum displ.:     0.2380585 α      in ANC's #11, #17, #45, ...

........................................................................
.............................. CYCLE   42 ..............................
........................................................................
   1   -390.1329695 -0.390133E+03  0.103E-01    0.41       0.0  T
   2   -390.1329972 -0.277174E-04  0.523E-02    0.41       1.0  T
   3   -390.1329424  0.548366E-04  0.187E-02    0.41       1.0  T
   4   -390.1330071 -0.647353E-04  0.738E-03    0.41       1.0  T
   5   -390.1330088 -0.162948E-05  0.369E-03    0.41       1.8  T
   6   -390.1330113 -0.256484E-05  0.103E-03    0.41       6.3  T
   7   -390.1330115 -0.194108E-06  0.433E-04    0.41      15.0  T
   8   -390.1330116 -0.185000E-07  0.241E-04    0.41      27.0  T
     SCC iter.                  ...        0 min,  0.418 sec
     gradient                   ...        0 min,  0.195 sec
 * total energy  :  -383.9120738 Eh     change       -0.1279872E-02 Eh
   gradient norm :     0.0198365 Eh/α   predicted    -0.1476889E-02 (  15.39%)
   displ. norm   :     0.7171885 α      lambda       -0.1750216E-02
   maximum displ.:     0.2135200 α      in ANC's #17, #11, #18, ...
 * RMSD in coord.:     0.9214068 α      energy gain  -0.3660670E-01 Eh

generating ANC from model Hessian ...
Using Lindh-Hessian (1995)
 Shifting diagonal of input Hessian by   1.002036708186244E-002
 Lowest  eigenvalues of input Hessian
    0.010000    0.010010    0.010018    0.000000    0.000000    0.000000
    0.000000    0.000000    0.000000    0.010031    0.010032    0.010049
    0.010064    0.010070    0.010100    0.010124    0.010154    0.010170
 Highest eigenvalues
    2.273308    2.280058    2.601466    2.607159    2.649615    2.651158
 

........................................................................
.............................. CYCLE   43 ..............................
........................................................................
   1   -390.1251303 -0.390125E+03  0.873E-02    0.40       0.0  T
   2   -390.1251527 -0.223799E-04  0.466E-02    0.41       1.0  T
   3   -390.1250982  0.544551E-04  0.166E-02    0.39       1.0  T
   4   -390.1251571 -0.589398E-04  0.657E-03    0.40       1.0  T
   5   -390.1251619 -0.480697E-05  0.315E-03    0.40       2.1  T
   6   -390.1251634 -0.149343E-05  0.106E-03    0.40       6.1  T
   7   -390.1251636 -0.202699E-06  0.422E-04    0.40      15.4  T
   8   -390.1251637 -0.242906E-07  0.229E-04    0.40      28.5  T
     SCC iter.                  ...        0 min,  0.417 sec
     gradient                   ...        0 min,  0.194 sec
 * total energy  :  -383.9134581 Eh     change       -0.1384275E-02 Eh
   gradient norm :     0.0182175 Eh/α   predicted     0.0000000E+00 (-100.00%)
   displ. norm   :     0.2014483 α      lambda       -0.9034780E-03
   maximum displ.:     0.0550181 α      in ANC's #69, #7, #49, ...

........................................................................
.............................. CYCLE   44 ..............................
........................................................................
   1   -390.1321553 -0.390132E+03  0.604E-02    0.41       0.0  T
   2   -390.1321655 -0.101727E-04  0.327E-02    0.41       1.0  T
   3   -390.1321601  0.543228E-05  0.691E-03    0.40       1.0  T
   4   -390.1321684 -0.832265E-05  0.296E-03    0.40       2.2  T
   5   -390.1321690 -0.586829E-06  0.145E-03    0.40       4.5  T
   6   -390.1321694 -0.413805E-06  0.598E-04    0.40      10.9  T
   7   -390.1321695 -0.878291E-07  0.235E-04    0.40      27.7  T
     SCC iter.                  ...        0 min,  0.366 sec
     gradient                   ...        0 min,  0.194 sec
 * total energy  :  -383.9140198 Eh     change       -0.5616727E-03 Eh
   gradient norm :     0.0075042 Eh/α   predicted    -0.4702462E-03 ( -16.28%)
   displ. norm   :     0.4684609 α      lambda       -0.1458430E-02
   maximum displ.:     0.1227159 α      in ANC's #69, #7, #8, ...

........................................................................
.............................. CYCLE   45 ..............................
........................................................................
   1   -390.1420136 -0.390142E+03  0.118E-01    0.41       0.0  T
   2   -390.1420510 -0.373958E-04  0.630E-02    0.41       1.0  T
   3   -390.1420440  0.699616E-05  0.117E-02    0.41       1.0  T
   4   -390.1420584 -0.144246E-04  0.643E-03    0.41       1.0  T
   5   -390.1420622 -0.380897E-05  0.288E-03    0.41       2.3  T
   6   -390.1420640 -0.182036E-05  0.107E-03    0.41       6.1  T
   7   -390.1420643 -0.256726E-06  0.449E-04    0.41      14.5  T
   8   -390.1420643 -0.170789E-07  0.251E-04    0.41      25.9  T
     SCC iter.                  ...        0 min,  0.420 sec
     gradient                   ...        0 min,  0.194 sec
 * total energy  :  -383.9145714 Eh     change       -0.5516795E-03 Eh
   gradient norm :     0.0268600 Eh/α   predicted    -0.8892581E-03 (  61.19%)
   displ. norm   :     0.4013617 α      lambda       -0.1417445E-02
   maximum displ.:     0.1049754 α      in ANC's #69, #7, #49, ...

........................................................................
.............................. CYCLE   46 ..............................
........................................................................
   1   -390.1402295 -0.390140E+03  0.901E-02    0.41       0.0  T
   2   -390.1402548 -0.252976E-04  0.478E-02    0.41       1.0  T
   3   -390.1402400  0.148287E-04  0.112E-02    0.40       1.0  T
   4   -390.1402600 -0.200835E-04  0.548E-03    0.41       1.2  T
   5   -390.1402631 -0.305575E-05  0.259E-03    0.41       2.5  T
   6   -390.1402646 -0.147038E-05  0.837E-04    0.41       7.8  T
   7   -390.1402647 -0.139979E-06  0.368E-04    0.41      17.7  T
   8   -390.1402647 -0.166568E-07  0.202E-04    0.41      32.2  T
     SCC iter.                  ...        0 min,  0.419 sec
     gradient                   ...        0 min,  0.195 sec
 * total energy  :  -383.9153741 Eh     change       -0.8026622E-03 Eh
   gradient norm :     0.0244418 Eh/α   predicted    -0.8228917E-03 (   2.52%)
   displ. norm   :     0.4424628 α      lambda       -0.1656685E-02
   maximum displ.:     0.1126300 α      in ANC's #7, #8, #17, ...

........................................................................
.............................. CYCLE   47 ..............................
........................................................................
   1   -390.1279312 -0.390128E+03  0.977E-02    0.40       0.0  T
   2   -390.1279636 -0.324020E-04  0.521E-02    0.41       1.0  T
   3   -390.1279407  0.229024E-04  0.140E-02    0.40       1.0  T
   4   -390.1279720 -0.313320E-04  0.558E-03    0.41       1.2  T
   5   -390.1279742 -0.216130E-05  0.260E-03    0.40       2.5  T
   6   -390.1279753 -0.118645E-05  0.108E-03    0.41       6.0  T
   7   -390.1279756 -0.250059E-06  0.394E-04    0.40      16.5  T
   8   -390.1279756 -0.149572E-07  0.225E-04    0.40      28.9  T
     SCC iter.                  ...        0 min,  0.416 sec
     gradient                   ...        0 min,  0.194 sec
 * total energy  :  -383.9162889 Eh     change       -0.9147968E-03 Eh
   gradient norm :     0.0176366 Eh/α   predicted    -0.9905117E-03 (   8.28%)
   displ. norm   :     0.5214910 α      lambda       -0.1445029E-02
   maximum displ.:     0.1536496 α      in ANC's #7, #8, #10, ...

........................................................................
.............................. CYCLE   48 ..............................
........................................................................
   1   -390.1204408 -0.390120E+03  0.108E-01    0.40       0.0  T
   2   -390.1204801 -0.392641E-04  0.575E-02    0.40       1.0  T
   3   -390.1204241  0.560355E-04  0.177E-02    0.39       1.0  T
   4   -390.1204917 -0.676248E-04  0.651E-03    0.40       1.0  T
   5   -390.1204953 -0.357689E-05  0.347E-03    0.40       1.9  T
   6   -390.1204978 -0.249834E-05  0.115E-03    0.40       5.7  T
   7   -390.1204980 -0.261606E-06  0.474E-04    0.40      13.7  T
   8   -390.1204980 -0.285650E-07  0.242E-04    0.40      26.9  T
     SCC iter.                  ...        0 min,  0.415 sec
     gradient                   ...        0 min,  0.194 sec
 * total energy  :  -383.9167447 Eh     change       -0.4557716E-03 Eh
   gradient norm :     0.0310241 Eh/α   predicted    -0.9190055E-03 ( 101.64%)
   displ. norm   :     0.4565068 α      lambda       -0.2096198E-02
   maximum displ.:     0.1229454 α      in ANC's #7, #8, #20, ...

........................................................................
.............................. CYCLE   49 ..............................
........................................................................
   1   -390.1297852 -0.390130E+03  0.953E-02    0.40       0.0  T
   2   -390.1298194 -0.342213E-04  0.512E-02    0.40       1.0  T
   3   -390.1297732  0.462205E-04  0.163E-02    0.40       1.0  T
   4   -390.1298316 -0.584212E-04  0.514E-03    0.40       1.3  T
   5   -390.1298330 -0.139463E-05  0.296E-03    0.40       2.2  T
   6   -390.1298348 -0.177997E-05  0.939E-04    0.40       6.9  T
   7   -390.1298349 -0.155730E-06  0.451E-04    0.40      14.4  T
   8   -390.1298350 -0.390973E-07  0.207E-04    0.40      31.5  T
     SCC iter.                  ...        0 min,  0.417 sec
     gradient                   ...        0 min,  0.194 sec
 * total energy  :  -383.9180438 Eh     change       -0.1299124E-02 Eh
   gradient norm :     0.0114791 Eh/α   predicted    -0.1266539E-02 (  -2.51%)
   displ. norm   :     0.6266980 α      lambda       -0.1238088E-02
   maximum displ.:     0.1929083 α      in ANC's #7, #8, #10, ...

........................................................................
.............................. CYCLE   50 ..............................
........................................................................
   1   -390.1298965 -0.390130E+03  0.845E-02    0.40       0.0  T
   2   -390.1299194 -0.228842E-04  0.438E-02    0.40       1.0  T
   3   -390.1298953  0.241242E-04  0.125E-02    0.40       1.0  T
   4   -390.1299199 -0.246454E-04  0.658E-03    0.40       1.0  T
   5   -390.1299250 -0.507880E-05  0.344E-03    0.40       1.9  T
   6   -390.1299275 -0.253015E-05  0.101E-03    0.40       6.5  T
   7   -390.1299277 -0.203912E-06  0.411E-04    0.40      15.8  T
   8   -390.1299278 -0.255349E-07  0.213E-04    0.40      30.5  T
     SCC iter.                  ...        0 min,  0.420 sec
     gradient                   ...        0 min,  0.194 sec
 * total energy  :  -383.9189788 Eh     change       -0.9350113E-03 Eh
   gradient norm :     0.0131608 Eh/α   predicted    -0.8621810E-03 (  -7.79%)
   displ. norm   :     0.6394892 α      lambda       -0.1567486E-02
   maximum displ.:     0.2215970 α      in ANC's #7, #8, #10, ...

........................................................................
.............................. CYCLE   51 ..............................
........................................................................
   1   -390.1443306 -0.390144E+03  0.765E-02    0.39       0.0  T
   2   -390.1443526 -0.220127E-04  0.409E-02    0.40       1.0  T
   3   -390.1442858  0.668588E-04  0.173E-02    0.39       1.0  T
   4   -390.1443579 -0.721473E-04  0.650E-03    0.40       1.0  T
   5   -390.1443629 -0.498864E-05  0.361E-03    0.40       1.8  T
   6   -390.1443651 -0.214870E-05  0.127E-03    0.40       5.1  T
   7   -390.1443654 -0.321947E-06  0.521E-04    0.40      12.5  T
   8   -390.1443654 -0.474462E-07  0.251E-04    0.40      26.0  T
     SCC iter.                  ...        0 min,  0.442 sec
     gradient                   ...        0 min,  0.194 sec
 * total energy  :  -383.9199839 Eh     change       -0.1005067E-02 Eh
   gradient norm :     0.0117117 Eh/α   predicted    -0.1104253E-02 (   9.87%)
   displ. norm   :     0.7806918 α      lambda       -0.1529812E-02
   maximum displ.:     0.2465157 α      in ANC's #7, #8, #10, ...

........................................................................
.............................. CYCLE   52 ..............................
........................................................................
   1   -390.1356601 -0.390136E+03  0.993E-02    0.39       0.0  T
   2   -390.1356933 -0.332385E-04  0.513E-02    0.40       1.0  T
   3   -390.1356200  0.733528E-04  0.184E-02    0.39       1.0  T
   4   -390.1356966 -0.766258E-04  0.832E-03    0.40       1.0  T
   5   -390.1357054 -0.881343E-05  0.426E-03    0.40       1.5  T
   6   -390.1357085 -0.313098E-05  0.146E-03    0.40       4.5  T
   7   -390.1357090 -0.454841E-06  0.518E-04    0.40      12.6  T
   8   -390.1357090 -0.411351E-07  0.256E-04    0.40      25.4  T
     SCC iter.                  ...        0 min,  0.439 sec
     gradient                   ...        0 min,  0.194 sec
 * total energy  :  -383.9211590 Eh     change       -0.1175103E-02 Eh
   gradient norm :     0.0110674 Eh/α   predicted    -0.1231115E-02 (   4.77%)
   displ. norm   :     0.7062481 α      lambda       -0.1386161E-02
   maximum displ.:     0.2392783 α      in ANC's #7, #8, #10, ...

........................................................................
.............................. CYCLE   53 ..............................
........................................................................
   1   -390.1354394 -0.390135E+03  0.896E-02    0.40       0.0  T
   2   -390.1354643 -0.249183E-04  0.476E-02    0.41       1.0  T
   3   -390.1354012  0.631556E-04  0.168E-02    0.39       1.0  T
   4   -390.1354697 -0.685327E-04  0.666E-03    0.40       1.0  T
   5   -390.1354750 -0.527213E-05  0.353E-03    0.40       1.8  T
   6   -390.1354773 -0.230764E-05  0.120E-03    0.40       5.4  T
   7   -390.1354776 -0.301603E-06  0.466E-04    0.40      14.0  T
   8   -390.1354776 -0.346626E-07  0.224E-04    0.40      29.1  T
     SCC iter.                  ...        0 min,  0.428 sec
     gradient                   ...        0 min,  0.194 sec
 * total energy  :  -383.9221230 Eh     change       -0.9639793E-03 Eh
   gradient norm :     0.0120916 Eh/α   predicted    -0.1038785E-02 (   7.76%)
   displ. norm   :     0.7202477 α      lambda       -0.1227048E-02
   maximum displ.:     0.2546077 α      in ANC's #7, #8, #10, ...

........................................................................
.............................. CYCLE   54 ..............................
........................................................................
   1   -390.1367280 -0.390137E+03  0.756E-02    0.40       0.0  T
   2   -390.1367448 -0.168035E-04  0.399E-02    0.41       1.0  T
   3   -390.1366710  0.737344E-04  0.172E-02    0.40       1.0  T
   4   -390.1367506 -0.795551E-04  0.626E-03    0.41       1.0  T
   5   -390.1367546 -0.402681E-05  0.349E-03    0.40       1.9  T
   6   -390.1367568 -0.221585E-05  0.106E-03    0.40       6.1  T
   7   -390.1367571 -0.230188E-06  0.431E-04    0.40      15.1  T
   8   -390.1367571 -0.297032E-07  0.208E-04    0.40      31.2  T
     SCC iter.                  ...        0 min,  0.434 sec
     gradient                   ...        0 min,  0.194 sec
 * total energy  :  -383.9231484 Eh     change       -0.1025487E-02 Eh
   gradient norm :     0.0100674 Eh/α   predicted    -0.9317991E-03 (  -9.14%)
   displ. norm   :     0.7414915 α      lambda       -0.1446055E-02
   maximum displ.:     0.2678977 α      in ANC's #7, #10, #8, ...

........................................................................
.............................. CYCLE   55 ..............................
........................................................................
   1   -390.1444017 -0.390144E+03  0.794E-02    0.40       0.0  T
   2   -390.1444227 -0.209606E-04  0.423E-02    0.41       1.0  T
   3   -390.1443498  0.728763E-04  0.175E-02    0.40       1.0  T
   4   -390.1444280 -0.781448E-04  0.660E-03    0.41       1.0  T
   5   -390.1444333 -0.531351E-05  0.352E-03    0.41       1.8  T
   6   -390.1444353 -0.202540E-05  0.128E-03    0.41       5.1  T
   7   -390.1444356 -0.355508E-06  0.460E-04    0.41      14.2  T
   8   -390.1444357 -0.251768E-07  0.259E-04    0.41      25.1  T
     SCC iter.                  ...        0 min,  0.430 sec
     gradient                   ...        0 min,  0.194 sec
 * total energy  :  -383.9242152 Eh     change       -0.1066731E-02 Eh
   gradient norm :     0.0106995 Eh/α   predicted    -0.1120557E-02 (   5.05%)
   displ. norm   :     0.8623158 α      lambda       -0.1194338E-02
   maximum displ.:     0.3010002 α      in ANC's #7, #10, #8, ...

........................................................................
.............................. CYCLE   56 ..............................
........................................................................
   1   -390.1378192 -0.390138E+03  0.864E-02    0.40       0.0  T
   2   -390.1378412 -0.220124E-04  0.449E-02    0.42       1.0  T
   3   -390.1377627  0.785124E-04  0.183E-02    0.40       1.0  T
   4   -390.1378448 -0.821124E-04  0.756E-03    0.41       1.0  T
   5   -390.1378516 -0.677630E-05  0.414E-03    0.41       1.6  T
   6   -390.1378548 -0.319473E-05  0.120E-03    0.41       5.4  T
   7   -390.1378551 -0.293263E-06  0.474E-04    0.41      13.7  T
   8   -390.1378551 -0.390805E-07  0.223E-04    0.41      29.2  T
     SCC iter.                  ...        0 min,  0.426 sec
     gradient                   ...        0 min,  0.194 sec
 * total energy  :  -383.9252535 Eh     change       -0.1038346E-02 Eh
[...]
   231   1 H    0.999 --   142 C    0.971
   232   1 H    0.999 --   143 C    0.972
   233   1 H    0.999 --   144 C    0.972
   234   1 H    0.998 --   145 C    0.978
   235   1 H    0.996 --   145 C    0.977
   236   1 H    0.996 --   146 C    0.960
 ---------------------------------------------------------------------------

Topologies differ in bond orders
Writing corrected topology to xtbtopo.mol

molecular dipole:
                 x           y           z       tot (Debye)
 q only:       -1.053       0.397       0.362
   full:       -1.829       0.858       0.283       5.185
molecular quadrupole (traceless):
                xx          xy          yy          xz          yz          zz
 q only:       44.389      52.892      60.680     -33.263      22.409    -105.069
  q+dip:       46.798      62.315      69.921     -29.576       3.433    -116.719
   full:       46.875      57.840      65.374     -26.221       4.470    -112.249

           -------------------------------------------------
          |                Geometry Summary                 |
           -------------------------------------------------

      molecular mass/u    :     2148.9839066
   center of mass at/Å    :        0.2557256       0.2254802      -0.2368149
  moments of inertia/u·Å² :        0.3458203E+05   0.1485796E+06   0.1534703E+06
rotational constants/cm⁻¹ :        0.4874680E-03   0.1134586E-03   0.1098430E-03

 * 224 selected distances

     #   Z          #   Z                                           value/Å
     1   6 C        2   6 C                                       1.3747594
     3   6 C        4   8 O                                       1.2204781
     5   6 C        6   6 C                                       1.3919437
     6   6 C        7   6 C                                       1.3744629
     7   6 C        8   6 C                                       1.4005256
     8   6 C        9   6 C                                       1.3755473
     5   6 C       10   6 C                                       1.4096453
     9   6 C       10   6 C                                       1.3966642
    11   6 C       12   6 C                                       1.3740363
    13   6 C       14   7 N                                       1.1490287
    15   6 C       16   7 N                                       1.1504467
     8   6 C       17   6 C                                       1.5083018
    17   6 C       18   6 C                                       1.5488758
    19   6 C       20   6 C                                       1.3263419
    18   6 C       22   6 C                                       1.5371110
    21   6 C       22   6 C                                       1.5369593
     7   6 C       23   6 C                                       1.5081156
    17   6 C       23   6 C                                       1.5613882
    21   6 C       23   6 C                                       1.5487322
     1   6 C       24   6 C                                       1.3964127
    24   6 C       25   6 C                                       1.4163677
    25   6 C       26   7 N                                       1.3708056
    26   7 N       27   6 C                                       1.4061746
    27   6 C       28   6 C                                       1.3967438
    28   6 C       29   6 C                                       1.3746777
    29   6 C       30   6 C                                       1.3948859
    30   6 C       33   6 C                                       1.3870151
    27   6 C       34   6 C                                       1.3903571
    33   6 C       34   6 C                                       1.3821121
    26   7 N       35   6 C                                       1.4054269
    35   6 C       36   6 C                                       1.3945776
    36   6 C       37   6 C                                       1.3755467
    37   6 C       38   6 C                                       1.3950159
    38   6 C       41   6 C                                       1.3883244
    35   6 C       42   6 C                                       1.3919663
    41   6 C       42   6 C                                       1.3811837
    25   6 C       43   6 C                                       1.4073650
    43   6 C       44  16 S                                       1.7311653
    45   6 C       46   6 C                                       1.3793641
    46   6 C       47   7 N                                       1.3859813
    47   7 N       48   6 C                                       1.3969353
    48   6 C       49   6 C                                       1.3929770
    49   6 C       50   6 C                                       1.3812688
    50   6 C       51   6 C                                       1.3868198
    51   6 C       54   6 C                                       1.3917081
    48   6 C       55   6 C                                       1.3974559
    54   6 C       55   6 C                                       1.3767381
    47   7 N       56   6 C                                       1.4168352
    56   6 C       57   6 C                                       1.3907503
    57   6 C       58   6 C                                       1.3776488
    58   6 C       59   6 C                                       1.3914225
    59   6 C       62   6 C                                       1.3884003
    56   6 C       63   6 C                                       1.3899329
    62   6 C       63   6 C                                       1.3797809
    43   6 C       64   6 C                                       1.3874840
    46   6 C       64   6 C                                       1.4190202
    64   6 C       65  16 S                                       1.7249587
    66   6 C       67   6 C                                       1.3768455
    67   6 C       68   7 N                                       1.3975464
    68   7 N       69   6 C                                       1.3964283
    69   6 C       70   6 C                                       1.3974354
    70   6 C       71   6 C                                       1.3774485
    71   6 C       72   6 C                                       1.3907329
    72   6 C       75   6 C                                       1.3877659
    69   6 C       76   6 C                                       1.3942240
    75   6 C       76   6 C                                       1.3808282
    68   7 N       77   6 C                                       1.3979417
    77   6 C       78   6 C                                       1.3966979
    78   6 C       79   6 C                                       1.3756669
    79   6 C       80   6 C                                       1.3931684
    80   6 C       83   6 C                                       1.3879046
    77   6 C       84   6 C                                       1.3919799
    83   6 C       84   6 C                                       1.3816561
    67   6 C       85   6 C                                       1.4146518
    85   6 C       86  16 S                                       1.7278791
    86  16 S       87   6 C                                       1.7487451
    87   6 C       88   6 C                                       1.3772297
    88   6 C       89   7 N                                       1.3913472
    89   7 N       90   6 C                                       1.4084832
    90   6 C       91   6 C                                       1.3900357
    91   6 C       92   6 C                                       1.3804912
    92   6 C       93   6 C                                       1.3876183
    93   6 C       96   6 C                                       1.3920409
    90   6 C       97   6 C                                       1.3944848
    96   6 C       97   6 C                                       1.3766032
    89   7 N       98   6 C                                       1.3895967
    98   6 C       99   6 C                                       1.3958535
    99   6 C      100   6 C                                       1.3783798
   100   6 C      101   6 C                                       1.3892660
   101   6 C      104   6 C                                       1.3868805
    98   6 C      105   6 C                                       1.3949271
   104   6 C      105   6 C                                       1.3782323
    85   6 C      106   6 C                                       1.3845972
    88   6 C      106   6 C                                       1.4175709
    66   6 C      107  16 S                                       1.7545131 (max)
   106   6 C      107  16 S                                       1.7285879
   108   6 C      109   6 C                                       1.4011336
   109   6 C      110   6 C                                       1.4257771
   110   6 C      111   6 C                                       1.3497766
   111   6 C      112   6 C                                       1.4895288
   112   6 C      113   6 C                                       1.5234555
   111   6 C      114  16 S                                       1.7514756
   109   6 C      115   6 C                                       1.4083480
   114  16 S      115   6 C                                       1.7345290
   115   6 C      116   6 C                                       1.4013775
   116   6 C      117   6 C                                       1.4105513
   108   6 C      118   6 C                                       1.3894536
   117   6 C      118   6 C                                       1.4121815
   118   6 C      119  16 S                                       1.7397395
   119  16 S      120   6 C                                       1.7412511
   120   6 C      121   6 C                                       1.4883116
   121   6 C      122   6 C                                       1.5300313
   117   6 C      123   6 C                                       1.4201628
   120   6 C      123   6 C                                       1.3547379
   116   6 C      124   6 C                                       1.4306214
   124   6 C      125   6 C                                       1.3613593
   126   6 C      127   8 O                                       1.2144167
   128   6 C      129   6 C                                       1.3931672
   129   6 C      130   6 C                                       1.3737696
   130   6 C      131   6 C                                       1.4017228
   131   6 C      132   6 C                                       1.3742336
   128   6 C      133   6 C                                       1.4093001
   132   6 C      133   6 C                                       1.3980730
   134   6 C      135   6 C                                       1.3695279
   136   6 C      137   7 N                                       1.1481025
   138   6 C      139   7 N                                       1.1482163
   131   6 C      140   6 C                                       1.5077992
   140   6 C      141   6 C                                       1.5488852
   142   6 C      143   6 C                                       1.3263384
   141   6 C      145   6 C                                       1.5370471
   144   6 C      145   6 C                                       1.5369164
   130   6 C      146   6 C                                       1.5079118
   140   6 C      146   6 C                                       1.5613166
   144   6 C      146   6 C                                       1.5490927
     1   6 C      147   1 H                                       1.0823051
     6   6 C      148   1 H                                       1.0780988
     9   6 C      149   1 H                                       1.0773601
    17   6 C      150   1 H                                       1.0882610
    18   6 C      151   1 H                                       1.0866940
    19   6 C      152   1 H                                       1.0743425
    20   6 C      153   1 H                                       1.0742812
    21   6 C      154   1 H                                       1.0869207
    22   6 C      155   1 H                                       1.0890032
    22   6 C      156   1 H                                       1.0892414
    23   6 C      157   1 H                                       1.0885235
    28   6 C      158   1 H                                       1.0799450
    29   6 C      159   1 H                                       1.0801114
    32   6 C      160   1 H                                       1.0862451
    32   6 C      161   1 H                                       1.0858842
    32   6 C      162   1 H                                       1.0854186
    33   6 C      163   1 H                                       1.0772339
    34   6 C      164   1 H                                       1.0786417
    36   6 C      165   1 H                                       1.0788507
    37   6 C      166   1 H                                       1.0790142
    40   6 C      167   1 H                                       1.0861616
    40   6 C      168   1 H                                       1.0856097
    40   6 C      169   1 H                                       1.0859363
    41   6 C      170   1 H                                       1.0777135
    42   6 C      171   1 H                                       1.0802273
    49   6 C      172   1 H                                       1.0795118
    50   6 C      173   1 H                                       1.0783721
    53   6 C      174   1 H                                       1.0857855
    53   6 C      175   1 H                                       1.0866119
    53   6 C      176   1 H                                       1.0854898
    54   6 C      177   1 H                                       1.0792825
    55   6 C      178   1 H                                       1.0799155
    57   6 C      179   1 H                                       1.0780872
    58   6 C      180   1 H                                       1.0793025
    61   6 C      181   1 H                                       1.0860580
    61   6 C      182   1 H                                       1.0863482
    61   6 C      183   1 H                                       1.0863327
    62   6 C      184   1 H                                       1.0776630
    63   6 C      185   1 H                                       1.0802636
    70   6 C      186   1 H                                       1.0797062
    71   6 C      187   1 H                                       1.0788623
    74   6 C      188   1 H                                       1.0854418
    74   6 C      189   1 H                                       1.0853934
    74   6 C      190   1 H                                       1.0857361
    75   6 C      191   1 H                                       1.0791488
    76   6 C      192   1 H                                       1.0792452
    78   6 C      193   1 H                                       1.0797324
    79   6 C      194   1 H                                       1.0791999
    82   6 C      195   1 H                                       1.0855638
    82   6 C      196   1 H                                       1.0862374
    82   6 C      197   1 H                                       1.0860850
    83   6 C      198   1 H                                       1.0781111
    84   6 C      199   1 H                                       1.0799000
    91   6 C      200   1 H                                       1.0791368
    92   6 C      201   1 H                                       1.0767805
    95   6 C      202   1 H                                       1.0856132
    95   6 C      203   1 H                                       1.0864549
    95   6 C      204   1 H                                       1.0857632
    96   6 C      205   1 H                                       1.0792407
    97   6 C      206   1 H                                       1.0800797
    99   6 C      207   1 H                                       1.0796240
   100   6 C      208   1 H                                       1.0792382
   103   6 C      209   1 H                                       1.0854925
   103   6 C      210   1 H                                       1.0853587
   103   6 C      211   1 H                                       1.0851595
   104   6 C      212   1 H                                       1.0778109
   105   6 C      213   1 H                                       1.0794079
   110   6 C      214   1 H                                       1.0738136 (min)
   112   6 C      215   1 H                                       1.0946783
   112   6 C      216   1 H                                       1.0946278
   113   6 C      217   1 H                                       1.0872881
   113   6 C      218   1 H                                       1.0873227
   113   6 C      219   1 H                                       1.0870090
   121   6 C      220   1 H                                       1.0930702
   121   6 C      221   1 H                                       1.0918514
   122   6 C      222   1 H                                       1.0876540
   122   6 C      223   1 H                                       1.0868942
   122   6 C      224   1 H                                       1.0875013
   123   6 C      225   1 H                                       1.0747341
   124   6 C      226   1 H                                       1.0854973
   129   6 C      227   1 H                                       1.0790783
   132   6 C      228   1 H                                       1.0771306
   140   6 C      229   1 H                                       1.0880718
   141   6 C      230   1 H                                       1.0865375
   142   6 C      231   1 H                                       1.0743162
   143   6 C      232   1 H                                       1.0744114
   144   6 C      233   1 H                                       1.0868969
   145   6 C      234   1 H                                       1.0891116
   145   6 C      235   1 H                                       1.0888977
   146   6 C      236   1 H                                       1.0883282

 * 5 distinct bonds (by element types)

   Z      Z             #   av. dist./Å        max./Å        min./Å
   1 H    6 C          90     1.0829922     1.0946783     1.0738136
   6 C    6 C         106     1.4126402     1.5613882     1.3263384
   6 C    7 N          16     1.3349560     1.4168352     1.1481025
   6 C    8 O           2     1.2174474     1.2204781     1.2144167
   6 C   16 S          10     1.7382844     1.7545131     1.7249587


optimized geometry written to: xtbopt.mol


           -------------------------------------------------
          | TOTAL ENERGY             -383.996225479777 Eh   |
          | GRADIENT NORM               0.000650905228 Eh/α |
          | HOMO-LUMO GAP               0.532294282638 eV   |
           -------------------------------------------------

------------------------------------------------------------------------
 * finished run on 2022/02/05 at 14:50:36.726     
------------------------------------------------------------------------
 total:
 * wall-time:     0 d,  0 h,  4 min, 50.131 sec
 *  cpu-time:     0 d,  0 h, 38 min, 40.352 sec
 * ratio c/w:     7.998 speedup
 SCF:
 * wall-time:     0 d,  0 h,  0 min,  1.461 sec
 *  cpu-time:     0 d,  0 h,  0 min, 11.655 sec
 * ratio c/w:     7.980 speedup
 ANC optimizer:
 * wall-time:     0 d,  0 h,  4 min, 48.537 sec
 *  cpu-time:     0 d,  0 h, 38 min, 27.731 sec
 * ratio c/w:     7.998 speedup

