      -----------------------------------------------------------      
     |                   =====================                   |     
     |                           x T B                           |     
     |                   =====================                   |     
     |                         S. Grimme                         |     
     |          Mulliken Center for Theoretical Chemistry        |     
     |                    University of Bonn                     |     
      -----------------------------------------------------------      

   * xtb version 6.4.1 (unknown) compiled by 'oda6@login1.crc.pitt.edu' on 2021-06-25

   xtb is free software: you can redistribute it and/or modify it under
   the terms of the GNU Lesser General Public License as published by
   the Free Software Foundation, either version 3 of the License, or
   (at your option) any later version.
   
   xtb is distributed in the hope that it will be useful,
   but WITHOUT ANY WARRANTY; without even the implied warranty of
   MERCHANTABILITY or FITNESS FOR A PARTICULAR PURPOSE.  See the
   GNU Lesser General Public License for more details.
   
   Cite this work as:
   * C. Bannwarth, E. Caldeweyher, S. Ehlert, A. Hansen, P. Pracht,
     J. Seibert, S. Spicher, S. Grimme, WIREs Comput. Mol. Sci., 2020, 11,
     e01493. DOI: 10.1002/wcms.1493
   
   for GFN2-xTB:
   * C. Bannwarth, S. Ehlert and S. Grimme., J. Chem. Theory Comput., 2019,
     15, 1652-1671. DOI: 10.1021/acs.jctc.8b01176
   for GFN1-xTB:
   * S. Grimme, C. Bannwarth, P. Shushkov, J. Chem. Theory Comput., 2017,
     13, 1989-2009. DOI: 10.1021/acs.jctc.7b00118
   for GFN0-xTB:
   * P. Pracht, E. Caldeweyher, S. Ehlert, S. Grimme, ChemRxiv, 2019, preprint.
     DOI: 10.26434/chemrxiv.8326202.v1
   for GFN-FF:
   * S. Spicher and S. Grimme, Angew. Chem. Int. Ed., 2020, 59, 15665-15673.
     DOI: 10.1002/anie.202004239
   
   for DFT-D4:
   * E. Caldeweyher, C. Bannwarth and S. Grimme, J. Chem. Phys., 2017,
     147, 034112. DOI: 10.1063/1.4993215
   * E. Caldeweyher, S. Ehlert, A. Hansen, H. Neugebauer, S. Spicher,
     C. Bannwarth and S. Grimme, J. Chem. Phys., 2019, 150, 154122.
     DOI: 10.1063/1.5090222
   * E. Caldeweyher, J.-M. Mewes, S. Ehlert and S. Grimme, Phys. Chem. Chem. Phys.
     2020, 22, 8499-8512. DOI: 10.1039/D0CP00502A
   
   for sTDA-xTB:
   * S. Grimme and C. Bannwarth, J. Chem. Phys., 2016, 145, 054103.
     DOI: 10.1063/1.4959605
   
   in the mass-spec context:
   * V. Asgeirsson, C. Bauer and S. Grimme, Chem. Sci., 2017, 8, 4879.
     DOI: 10.1039/c7sc00601b
   * J. Koopman and S. Grimme, ACS Omega 2019, 4, 12, 15120-15133.
     DOI: 10.1021/acsomega.9b02011
   
   for metadynamics refer to:
   * S. Grimme, J. Chem. Theory Comput., 2019, 155, 2847-2862
     DOI: 10.1021/acs.jctc.9b00143
   
   for SPH calculations refer to:
   * S. Spicher and S. Grimme, J. Chem. Theory Comput., 2021, 17, 1701-1714
     DOI: 10.1021/acs.jctc.0c01306
   
   with help from (in alphabetical order)
   P. Atkinson, C. Bannwarth, F. Bohle, G. Brandenburg, E. Caldeweyher
   M. Checinski, S. Dohm, S. Ehlert, S. Ehrlich, I. Gerasimov, J. Koopman
   C. Lavigne, S. Lehtola, F. März, M. Müller, F. Musil, H. Neugebauer
   J. Pisarek, C. Plett, P. Pracht, J. Seibert, P. Shushkov, S. Spicher
   M. Stahn, M. Steiner, T. Strunk, J. Stückrath, T. Rose, and J. Unsleber
   
 * started run on 2022/02/06 at 11:05:05.356     

           -------------------------------------------------
          |                Calculation Setup                |
           -------------------------------------------------

          program call               : /ihome/ghutchison/oda6/xtb/xtb-641/bin/xtb ../../FF_optimized/39_130_130_168_17.mol -opt
          hostname                   : smp-n57
          coordinate file            : ../../FF_optimized/39_130_130_168_17.mol
          omp threads                :                     8
          number of atoms            :                   197
          number of electrons        :                   608
          charge                     :                     0
          spin                       :                   0.0
          first test random number   :      0.30917536899443

   ID    Z sym.   atoms
    1    6 C      1-3, 5-13, 15, 17-25, 27-30, 32-38, 40-43, 45, 46, 48-51,
                  53-59, 61-64, 66, 67, 69-72, 74-80, 82-85, 87, 88, 90-93,
                  95-101, 103-106, 108-112, 114-122, 124
    2    8 O      4, 113
    3    7 N      14, 16, 26, 47, 68, 89, 123, 125
    4   16 S      31, 39, 44, 52, 60, 65, 73, 81, 86, 94, 102, 107
    5    1 H      126-197
########################################################################
[WARNING] Please study the warnings concerning your input carefully
-1- prog_main_parseArguments: the use of '-opt' is discouraged, please use '--opt' next time
########################################################################

           -------------------------------------------------
          |                 G F N 2 - x T B                 |
           -------------------------------------------------

        Reference                      10.1021/acs.jctc.8b01176
      * Hamiltonian:
        H0-scaling (s, p, d)           1.850000    2.230000    2.230000
        zeta-weighting                 0.500000
      * Dispersion:
        s8                             2.700000
        a1                             0.520000
        a2                             5.000000
        s9                             5.000000
      * Repulsion:
        kExp                           1.500000    1.000000
        rExp                           1.000000
      * Coulomb:
        alpha                          2.000000
        third order                    shell-resolved
        anisotropic                    true
        a3                             3.000000
        a5                             4.000000
        cn-shift                       1.200000
        cn-exp                         4.000000
        max-rad                        5.000000


          ...................................................
          :                      SETUP                      :
          :.................................................:
          :  # basis functions                 644          :
          :  # atomic orbitals                 632          :
          :  # shells                          334          :
          :  # electrons                       608          :
          :  max. iterations                   250          :
          :  Hamiltonian                  GFN2-xTB          :
          :  restarted?                      false          :
          :  GBSA solvation                  false          :
          :  PC potential                    false          :
          :  electronic temp.          300.0000000     K    :
          :  accuracy                    1.0000000          :
          :  -> integral cutoff          0.2500000E+02      :
          :  -> integral neglect         0.1000000E-07      :
          :  -> SCF convergence          0.1000000E-05 Eh   :
          :  -> wf. convergence          0.1000000E-03 e    :
          :  Broyden damping             0.4000000          :
          ...................................................

 iter      E             dE          RMSdq      gap      omega  full diag
   1   -331.9910069 -0.331991E+03  0.514E+00    1.04       0.0  T
   2   -332.1879424 -0.196935E+00  0.305E+00    1.27       1.0  T
   3   -331.6217930  0.566149E+00  0.207E+00    0.11       1.0  T
   4   -332.2790858 -0.657293E+00  0.675E-01    0.61       1.0  T
   5   -332.3393187 -0.602329E-01  0.238E-01    0.45       1.0  T
   6   -332.3402681 -0.949474E-03  0.141E-01    0.47       1.0  T
   7   -332.3421335 -0.186542E-02  0.818E-02    0.37       1.0  T
   8   -332.3431894 -0.105589E-02  0.314E-02    0.35       1.0  T
   9   -332.3432760 -0.865285E-04  0.166E-02    0.36       1.0  T
  10   -332.3432900 -0.140802E-04  0.874E-03    0.36       1.0  T
  11   -332.3432996 -0.959290E-05  0.352E-03    0.36       2.0  T
  12   -332.3433006 -0.994470E-06  0.199E-03    0.36       3.6  T
  13   -332.3433011 -0.417039E-06  0.956E-04    0.36       7.5  T
  14   -332.3433012 -0.114047E-06  0.414E-04    0.36      17.2  T

   *** convergence criteria satisfied after 14 iterations ***

         #    Occupation            Energy/Eh            Energy/eV
      -------------------------------------------------------------
         1        2.0000           -0.7729160             -21.0321
       ...           ...                  ...                  ...
       298        2.0000           -0.3703431             -10.0775
       299        2.0000           -0.3644967              -9.9185
       300        2.0000           -0.3641306              -9.9085
       301        2.0000           -0.3624256              -9.8621
       302        2.0000           -0.3606686              -9.8143
       303        2.0000           -0.3603768              -9.8064
       304        1.9981           -0.3564284              -9.6989 (HOMO)
       305        0.0019           -0.3432048              -9.3391 (LUMO)
       306        0.0000           -0.3390347              -9.2256
       307                         -0.3336685              -9.0796
       308                         -0.3321966              -9.0395
       309                         -0.3025575              -8.2330
       ...                                ...                  ...
       632                          1.3565580              36.9138
      -------------------------------------------------------------
                  HL-Gap            0.0132236 Eh            0.3598 eV
             Fermi-level           -0.3498086 Eh           -9.5188 eV

 SCC (total)                   0 d,  0 h,  0 min,  0.759 sec
 SCC setup                      ...        0 min,  0.003 sec (  0.435%)
 Dispersion                     ...        0 min,  0.009 sec (  1.167%)
 classical contributions        ...        0 min,  0.000 sec (  0.048%)
 integral evaluation            ...        0 min,  0.037 sec (  4.846%)
 iterations                     ...        0 min,  0.567 sec ( 74.755%)
 molecular gradient             ...        0 min,  0.139 sec ( 18.316%)
 printout                       ...        0 min,  0.003 sec (  0.421%)

         :::::::::::::::::::::::::::::::::::::::::::::::::::::
         ::                     SUMMARY                     ::
         :::::::::::::::::::::::::::::::::::::::::::::::::::::
         :: total energy            -327.293186776697 Eh    ::
         :: gradient norm              0.314098285468 Eh/a0 ::
         :: HOMO-LUMO gap              0.359832350765 eV    ::
         ::.................................................::
         :: SCC energy              -332.343301166189 Eh    ::
         :: -> isotropic ES            0.125467303950 Eh    ::
         :: -> anisotropic ES          0.025459727507 Eh    ::
         :: -> anisotropic XC          0.243688787618 Eh    ::
         :: -> dispersion             -0.340425346638 Eh    ::
         :: repulsion energy           5.032380637971 Eh    ::
         :: add. restraining           0.000000000000 Eh    ::
         :: total charge               0.000000000738 e     ::
         :::::::::::::::::::::::::::::::::::::::::::::::::::::

      ----------------------------------------------------------- 
     |                   =====================                   |
     |                        A N C O P T                        |
     |                   =====================                   |
     |               Approximate Normal Coordinate               |
     |                Rational Function Optimizer                |
      ----------------------------------------------------------- 

          ...................................................
          :                      SETUP                      :
          :.................................................:
          :   optimization level            normal          :
          :   max. optcycles                   591          :
          :   ANC micro-cycles                  20          :
          :   degrees of freedom               585          :
          :.................................................:
          :   RF solver                   davidson          :
          :   write xtbopt.log                true          :
          :   linear?                        false          :
          :   energy convergence         0.5000000E-05 Eh   :
          :   grad. convergence          0.1000000E-02 Eh/α :
          :   maximium RF displ.         1.0000000          :
          :   Hlow (freq-cutoff)         0.1000000E-01      :
          :   Hmax (freq-cutoff)         5.0000000          :
          :   S6 in model hess.         20.0000000          :
          ...................................................

generating ANC from model Hessian ...
Using Lindh-Hessian (1995)
 Shifting diagonal of input Hessian by   1.001336386539897E-002
 Lowest  eigenvalues of input Hessian
    0.010000    0.010012    0.000000    0.000000    0.000000    0.000000
    0.000000    0.000000    0.010036    0.010049    0.010067    0.010074
    0.010085    0.010096    0.010123    0.010130    0.010140    0.010144
 Highest eigenvalues
    2.171042    2.491114    2.504624    2.550071    2.559390    2.587165
 

........................................................................
.............................. CYCLE    1 ..............................
........................................................................
   1   -332.3433012 -0.332343E+03  0.233E-04    0.36       0.0  T
   2   -332.3433012  0.466775E-08  0.240E-04    0.36      29.6  T
   3   -332.3433012 -0.114915E-07  0.990E-05    0.36      72.0  T
     SCC iter.                  ...        0 min,  0.139 sec
     gradient                   ...        0 min,  0.136 sec
 * total energy  :  -327.2931868 Eh     change       -0.1424280E-07 Eh
   gradient norm :     0.3140992 Eh/α   predicted     0.0000000E+00 (-100.00%)
   displ. norm   :     0.4811162 α      lambda       -0.1088265E+00
   maximum displ.:     0.0918598 α      in ANC's #166, #325, #308, ...

........................................................................
.............................. CYCLE    2 ..............................
........................................................................
   1   -332.5779236 -0.332578E+03  0.248E-01    0.34       0.0  T
   2   -332.5794272 -0.150365E-02  0.160E-01    0.37       1.0  T
   3   -332.5791417  0.285516E-03  0.103E-01    0.36       1.0  T
   4   -332.5798645 -0.722798E-03  0.557E-02    0.36       1.0  T
   5   -332.5804904 -0.625914E-03  0.175E-02    0.36       1.0  T
   6   -332.5805311 -0.406268E-04  0.721E-03    0.37       1.0  T
   7   -332.5805370 -0.590160E-05  0.348E-03    0.36       2.0  T
   8   -332.5805384 -0.147421E-05  0.161E-03    0.36       4.4  T
   9   -332.5805387 -0.304715E-06  0.821E-04    0.36       8.7  T
  10   -332.5805388 -0.435182E-07  0.391E-04    0.36      18.2  T
     SCC iter.                  ...        0 min,  0.383 sec
     gradient                   ...        0 min,  0.133 sec
 * total energy  :  -327.3720171 Eh     change       -0.7883027E-01 Eh
   gradient norm :     0.1445998 Eh/α   predicted    -0.6706551E-01 ( -14.92%)
   displ. norm   :     0.4931714 α      lambda       -0.4482849E-01
   maximum displ.:     0.1383093 α      in ANC's #120, #94, #166, ...

........................................................................
.............................. CYCLE    3 ..............................
........................................................................
   1   -332.7250130 -0.332725E+03  0.195E-01    0.32       0.0  T
   2   -332.7259835 -0.970443E-03  0.131E-01    0.34       1.0  T
   3   -332.7261585 -0.175036E-03  0.871E-02    0.34       1.0  T
   4   -332.7266880 -0.529509E-03  0.476E-02    0.34       1.0  T
   5   -332.7271084 -0.420427E-03  0.162E-02    0.34       1.0  T
   6   -332.7271476 -0.391065E-04  0.568E-03    0.34       1.3  T
   7   -332.7271510 -0.349056E-05  0.305E-03    0.34       2.3  T
   8   -332.7271519 -0.829198E-06  0.163E-03    0.34       4.4  T
   9   -332.7271522 -0.349465E-06  0.813E-04    0.34       8.8  T
  10   -332.7271523 -0.374073E-07  0.387E-04    0.34      18.4  T
     SCC iter.                  ...        0 min,  0.385 sec
     gradient                   ...        0 min,  0.135 sec
 * total energy  :  -327.4006072 Eh     change       -0.2859014E-01 Eh
   gradient norm :     0.0448651 Eh/α   predicted    -0.2786581E-01 (  -2.53%)
   displ. norm   :     0.5269039 α      lambda       -0.1263663E-01
   maximum displ.:     0.1802537 α      in ANC's #120, #94, #115, ...

........................................................................
.............................. CYCLE    4 ..............................
........................................................................
   1   -332.7798798 -0.332780E+03  0.132E-01    0.33       0.0  T
   2   -332.7799720 -0.921762E-04  0.838E-02    0.32       1.0  T
   3   -332.7793532  0.618706E-03  0.632E-02    0.33       1.0  T
   4   -332.7801621 -0.808891E-03  0.216E-02    0.33       1.0  T
   5   -332.7802512 -0.890564E-04  0.774E-03    0.32       1.0  T
   6   -332.7802599 -0.870545E-05  0.301E-03    0.32       2.4  T
   7   -332.7802606 -0.658623E-06  0.161E-03    0.32       4.4  T
   8   -332.7802608 -0.203698E-06  0.885E-04    0.32       8.0  T
   9   -332.7802609 -0.912632E-07  0.483E-04    0.32      14.8  T
     SCC iter.                  ...        0 min,  0.341 sec
     gradient                   ...        0 min,  0.134 sec
 * total energy  :  -327.4091942 Eh     change       -0.8587035E-02 Eh
   gradient norm :     0.0261685 Eh/α   predicted    -0.8072511E-02 (  -5.99%)
   displ. norm   :     0.6779810 α      lambda       -0.9721131E-02
   maximum displ.:     0.2406065 α      in ANC's #94, #120, #71, ...

........................................................................
.............................. CYCLE    5 ..............................
........................................................................
   1   -332.7970571 -0.332797E+03  0.285E-01    0.31       0.0  T
   2   -332.7972630 -0.205902E-03  0.161E-01    0.30       1.0  T
   3   -332.7950733  0.218971E-02  0.928E-02    0.31       1.0  T
   4   -332.7974696 -0.239633E-02  0.190E-02    0.31       1.0  T
   5   -332.7975300 -0.603663E-04  0.873E-03    0.30       1.0  T
   6   -332.7975387 -0.871771E-05  0.384E-03    0.31       1.9  T
   7   -332.7975401 -0.139341E-05  0.168E-03    0.31       4.2  T
   8   -332.7975404 -0.309117E-06  0.848E-04    0.31       8.4  T
   9   -332.7975405 -0.701444E-07  0.486E-04    0.31      14.7  T
     SCC iter.                  ...        0 min,  0.354 sec
     gradient                   ...        0 min,  0.136 sec
 * total energy  :  -327.4112646 Eh     change       -0.2070316E-02 Eh
   gradient norm :     0.0544521 Eh/α   predicted    -0.7094852E-02 ( 242.69%)
   displ. norm   :     0.4057472 α      lambda       -0.8511927E-02
   maximum displ.:     0.0973923 α      in ANC's #36, #48, #72, ...

........................................................................
.............................. CYCLE    6 ..............................
........................................................................
   1   -332.8193409 -0.332819E+03  0.208E-01    0.31       0.0  T
   2   -332.8194693 -0.128403E-03  0.115E-01    0.31       1.0  T
   3   -332.8194247  0.445540E-04  0.206E-02    0.31       1.0  T
   4   -332.8195103 -0.855797E-04  0.685E-03    0.31       1.0  T
   5   -332.8195147 -0.439262E-05  0.375E-03    0.31       1.9  T
   6   -332.8195165 -0.180777E-05  0.170E-03    0.31       4.2  T
   7   -332.8195169 -0.380567E-06  0.769E-04    0.31       9.3  T
   8   -332.8195169 -0.773504E-07  0.357E-04    0.31      20.0  T
     SCC iter.                  ...        0 min,  0.332 sec
     gradient                   ...        0 min,  0.136 sec
 * total energy  :  -327.4153084 Eh     change       -0.4043819E-02 Eh
   gradient norm :     0.0296899 Eh/α   predicted    -0.4956630E-02 (  22.57%)
   displ. norm   :     0.4658368 α      lambda       -0.4418749E-02
   maximum displ.:     0.1304362 α      in ANC's #48, #60, #57, ...

........................................................................
.............................. CYCLE    7 ..............................
........................................................................
   1   -332.8025618 -0.332803E+03  0.232E-01    0.31       0.0  T
   2   -332.8026902 -0.128396E-03  0.129E-01    0.32       1.0  T
   3   -332.8022684  0.421821E-03  0.497E-02    0.30       1.0  T
   4   -332.8027627 -0.494309E-03  0.885E-03    0.32       1.0  T
   5   -332.8027703 -0.757839E-05  0.516E-03    0.32       1.4  T
   6   -332.8027737 -0.342950E-05  0.233E-03    0.32       3.1  T
   7   -332.8027745 -0.714595E-06  0.106E-03    0.32       6.7  T
   8   -332.8027746 -0.127477E-06  0.474E-04    0.32      15.0  T
   9   -332.8027746 -0.334509E-07  0.205E-04    0.32      34.7  T
     SCC iter.                  ...        0 min,  0.359 sec
     gradient                   ...        0 min,  0.134 sec
 * total energy  :  -327.4149317 Eh     change        0.3766670E-03 Eh
   gradient norm :     0.0368650 Eh/α   predicted    -0.2688819E-02 (-813.85%)
   displ. norm   :     0.3206559 α      lambda       -0.5714878E-02
   maximum displ.:     0.1131033 α      in ANC's #71, #38, #23, ...

........................................................................
.............................. CYCLE    8 ..............................
........................................................................
   1   -332.8173445 -0.332817E+03  0.166E-01    0.32       0.0  T
   2   -332.8174117 -0.672876E-04  0.919E-02    0.33       1.0  T
   3   -332.8172829  0.128837E-03  0.268E-02    0.32       1.0  T
   4   -332.8174417 -0.158766E-03  0.543E-03    0.32       1.3  T
   5   -332.8174439 -0.223558E-05  0.342E-03    0.32       2.1  T
   6   -332.8174453 -0.140733E-05  0.149E-03    0.33       4.8  T
   7   -332.8174457 -0.395187E-06  0.563E-04    0.32      12.6  T
   8   -332.8174458 -0.509224E-07  0.263E-04    0.32      27.1  T
     SCC iter.                  ...        0 min,  0.303 sec
     gradient                   ...        0 min,  0.134 sec
 * total energy  :  -327.4183976 Eh     change       -0.3465899E-02 Eh
   gradient norm :     0.0166935 Eh/α   predicted    -0.3151249E-02 (  -9.08%)
   displ. norm   :     0.5280447 α      lambda       -0.2858300E-02
   maximum displ.:     0.1855310 α      in ANC's #23, #48, #47, ...

........................................................................
.............................. CYCLE    9 ..............................
........................................................................
   1   -332.8107386 -0.332811E+03  0.195E-01    0.30       0.0  T
   2   -332.8108093 -0.706567E-04  0.108E-01    0.32       1.0  T
   3   -332.8101426  0.666688E-03  0.505E-02    0.30       1.0  T
   4   -332.8108785 -0.735864E-03  0.811E-03    0.32       1.0  T
   5   -332.8108824 -0.394368E-05  0.522E-03    0.32       1.4  T
   6   -332.8108862 -0.378437E-05  0.156E-03    0.32       4.6  T
   7   -332.8108865 -0.319567E-06  0.708E-04    0.32      10.1  T
   8   -332.8108866 -0.618733E-07  0.337E-04    0.32      21.2  T
     SCC iter.                  ...        0 min,  0.307 sec
     gradient                   ...        0 min,  0.134 sec
 * total energy  :  -327.4195274 Eh     change       -0.1129765E-02 Eh
   gradient norm :     0.0417838 Eh/α   predicted    -0.1827646E-02 (  61.77%)
   displ. norm   :     0.5449438 α      lambda       -0.3841814E-02
   maximum displ.:     0.1443122 α      in ANC's #48, #27, #47, ...

........................................................................
.............................. CYCLE   10 ..............................
........................................................................
   1   -332.8221938 -0.332822E+03  0.131E-01    0.33       0.0  T
   2   -332.8222268 -0.329924E-04  0.724E-02    0.33       1.0  T
   3   -332.8220171  0.209711E-03  0.300E-02    0.33       1.0  T
   4   -332.8222486 -0.231521E-03  0.740E-03    0.33       1.0  T
   5   -332.8222513 -0.268235E-05  0.501E-03    0.33       1.4  T
   6   -332.8222555 -0.421457E-05  0.142E-03    0.33       5.0  T
   7   -332.8222558 -0.313283E-06  0.597E-04    0.33      11.9  T
   8   -332.8222558 -0.497055E-07  0.309E-04    0.33      23.0  T
     SCC iter.                  ...        0 min,  0.328 sec
     gradient                   ...        0 min,  0.136 sec
 * total energy  :  -327.4220152 Eh     change       -0.2487826E-02 Eh
   gradient norm :     0.0176872 Eh/α   predicted    -0.2491355E-02 (   0.14%)
   displ. norm   :     0.6556506 α      lambda       -0.2723629E-02
   maximum displ.:     0.1682033 α      in ANC's #48, #42, #47, ...

........................................................................
.............................. CYCLE   11 ..............................
........................................................................
   1   -332.8234557 -0.332823E+03  0.104E-01    0.34       0.0  T
   2   -332.8234755 -0.198171E-04  0.570E-02    0.35       1.0  T
   3   -332.8232533  0.222240E-03  0.306E-02    0.34       1.0  T
   4   -332.8234929 -0.239636E-03  0.865E-03    0.35       1.0  T
   5   -332.8234956 -0.265509E-05  0.566E-03    0.34       1.3  T
   6   -332.8235015 -0.594581E-05  0.135E-03    0.35       5.3  T
   7   -332.8235018 -0.259318E-06  0.581E-04    0.35      12.3  T
   8   -332.8235018 -0.502703E-07  0.294E-04    0.35      24.3  T
     SCC iter.                  ...        0 min,  0.316 sec
     gradient                   ...        0 min,  0.136 sec
 * total energy  :  -327.4243129 Eh     change       -0.2297669E-02 Eh
   gradient norm :     0.0179302 Eh/α   predicted    -0.1947235E-02 ( -15.25%)
   displ. norm   :     0.8092151 α      lambda       -0.2990288E-02
   maximum displ.:     0.2128782 α      in ANC's #42, #48, #27, ...

........................................................................
.............................. CYCLE   12 ..............................
........................................................................
   1   -332.8232562 -0.332823E+03  0.140E-01    0.35       0.0  T
   2   -332.8232862 -0.300373E-04  0.761E-02    0.36       1.0  T
   3   -332.8228308  0.455422E-03  0.421E-02    0.35       1.0  T
   4   -332.8233249 -0.494132E-03  0.108E-02    0.36       1.0  T
   5   -332.8233296 -0.471083E-05  0.705E-03    0.35       1.0  T
   6   -332.8233381 -0.842349E-05  0.182E-03    0.36       3.9  T
   7   -332.8233386 -0.560473E-06  0.689E-04    0.36      10.3  T
   8   -332.8233387 -0.583971E-07  0.358E-04    0.36      19.9  T
     SCC iter.                  ...        0 min,  0.310 sec
     gradient                   ...        0 min,  0.134 sec
 * total energy  :  -327.4269781 Eh     change       -0.2665187E-02 Eh
   gradient norm :     0.0205277 Eh/α   predicted    -0.2474220E-02 (  -7.17%)
   displ. norm   :     0.8451533 α      lambda       -0.3042772E-02
   maximum displ.:     0.2281480 α      in ANC's #42, #27, #23, ...

........................................................................
.............................. CYCLE   13 ..............................
........................................................................
   1   -332.8273596 -0.332827E+03  0.144E-01    0.35       0.0  T
   2   -332.8273966 -0.370218E-04  0.781E-02    0.36       1.0  T
   3   -332.8269218  0.474836E-03  0.443E-02    0.36       1.0  T
   4   -332.8274384 -0.516668E-03  0.117E-02    0.36       1.0  T
   5   -332.8274466 -0.820363E-05  0.759E-03    0.36       1.0  T
   6   -332.8274556 -0.891999E-05  0.220E-03    0.36       3.2  T
   7   -332.8274564 -0.881045E-06  0.780E-04    0.36       9.1  T
   8   -332.8274565 -0.839483E-07  0.355E-04    0.36      20.1  T
     SCC iter.                  ...        0 min,  0.315 sec
     gradient                   ...        0 min,  0.135 sec
 * total energy  :  -327.4296179 Eh     change       -0.2639860E-02 Eh
   gradient norm :     0.0156654 Eh/α   predicted    -0.2608097E-02 (  -1.20%)
   displ. norm   :     0.8514931 α      lambda       -0.2794987E-02
   maximum displ.:     0.2371784 α      in ANC's #42, #27, #41, ...

........................................................................
.............................. CYCLE   14 ..............................
........................................................................
   1   -332.8259598 -0.332826E+03  0.145E-01    0.36       0.0  T
   2   -332.8260025 -0.426282E-04  0.786E-02    0.37       1.0  T
   3   -332.8255996  0.402821E-03  0.428E-02    0.36       1.0  T
   4   -332.8260408 -0.441142E-03  0.116E-02    0.37       1.0  T
   5   -332.8260477 -0.692515E-05  0.762E-03    0.37       1.0  T
   6   -332.8260568 -0.909081E-05  0.249E-03    0.37       2.9  T
   7   -332.8260580 -0.120860E-05  0.782E-04    0.37       9.1  T
   8   -332.8260581 -0.836400E-07  0.397E-04    0.37      17.9  T
   9   -332.8260581 -0.138870E-07  0.197E-04    0.37      36.2  T
     SCC iter.                  ...        0 min,  0.345 sec
     gradient                   ...        0 min,  0.134 sec
 * total energy  :  -327.4321042 Eh     change       -0.2486265E-02 Eh
   gradient norm :     0.0174109 Eh/α   predicted    -0.2410743E-02 (  -3.04%)
   displ. norm   :     0.8512610 α      lambda       -0.2715342E-02
   maximum displ.:     0.2401468 α      in ANC's #42, #27, #41, ...

........................................................................
.............................. CYCLE   15 ..............................
........................................................................
   1   -332.8367318 -0.332837E+03  0.133E-01    0.37       0.0  T
   2   -332.8367776 -0.458050E-04  0.713E-02    0.37       1.0  T
   3   -332.8365119  0.265698E-03  0.380E-02    0.37       1.0  T
   4   -332.8368143 -0.302465E-03  0.106E-02    0.37       1.0  T
   5   -332.8368182 -0.381929E-05  0.659E-03    0.37       1.1  T
   6   -332.8368239 -0.574777E-05  0.254E-03    0.37       2.8  T
   7   -332.8368254 -0.144623E-05  0.815E-04    0.37       8.7  T
   8   -332.8368255 -0.119330E-06  0.369E-04    0.37      19.3  T
   9   -332.8368255 -0.150104E-07  0.181E-04    0.37      39.4  T
     SCC iter.                  ...        0 min,  0.354 sec
     gradient                   ...        0 min,  0.136 sec
 * total energy  :  -327.4345009 Eh     change       -0.2396712E-02 Eh
   gradient norm :     0.0114366 Eh/α   predicted    -0.2341509E-02 (  -2.30%)
   displ. norm   :     0.8706085 α      lambda       -0.2619505E-02
   maximum displ.:     0.2461442 α      in ANC's #42, #27, #41, ...

........................................................................
.............................. CYCLE   16 ..............................
........................................................................
   1   -332.8370749 -0.332837E+03  0.143E-01    0.38       0.0  T
   2   -332.8371298 -0.548991E-04  0.766E-02    0.38       1.0  T
   3   -332.8368760  0.253802E-03  0.375E-02    0.38       1.0  T
   4   -332.8371640 -0.287986E-03  0.108E-02    0.38       1.0  T
   5   -332.8371672 -0.315605E-05  0.677E-03    0.38       1.1  T
   6   -332.8371743 -0.713982E-05  0.249E-03    0.38       2.9  T
   7   -332.8371756 -0.128264E-05  0.892E-04    0.38       8.0  T
   8   -332.8371757 -0.134834E-06  0.414E-04    0.38      17.2  T
   9   -332.8371757 -0.179739E-07  0.198E-04    0.38      36.0  T
     SCC iter.                  ...        0 min,  0.354 sec
     gradient                   ...        0 min,  0.136 sec
 * total energy  :  -327.4367414 Eh     change       -0.2240543E-02 Eh
   gradient norm :     0.0237875 Eh/α   predicted    -0.2302501E-02 (   2.77%)
   displ. norm   :     0.8466759 α      lambda       -0.2516828E-02
   maximum displ.:     0.2320832 α      in ANC's #42, #27, #41, ...

........................................................................
.............................. CYCLE   17 ..............................
........................................................................
   1   -332.8398669 -0.332840E+03  0.134E-01    0.38       0.0  T
   2   -332.8399168 -0.499763E-04  0.716E-02    0.38       1.0  T
   3   -332.8397306  0.186261E-03  0.346E-02    0.38       1.0  T
   4   -332.8399486 -0.218017E-03  0.972E-03    0.39       1.0  T
   5   -332.8399507 -0.206657E-05  0.576E-03    0.39       1.2  T
   6   -332.8399554 -0.478300E-05  0.177E-03    0.39       4.0  T
   7   -332.8399560 -0.579129E-06  0.655E-04    0.39      10.9  T
   8   -332.8399561 -0.502629E-07  0.388E-04    0.39      18.4  T
     SCC iter.                  ...        0 min,  0.304 sec
     gradient                   ...        0 min,  0.134 sec
 * total energy  :  -327.4389040 Eh     change       -0.2162528E-02 Eh
   gradient norm :     0.0124288 Eh/α   predicted    -0.2160522E-02 (  -0.09%)
   displ. norm   :     0.8549883 α      lambda       -0.2332431E-02
   maximum displ.:     0.2251890 α      in ANC's #42, #27, #41, ...

........................................................................
.............................. CYCLE   18 ..............................
........................................................................
   1   -332.8368683 -0.332837E+03  0.135E-01    0.37       0.0  T
   2   -332.8369186 -0.502327E-04  0.716E-02    0.38       1.0  T
   3   -332.8367406  0.177956E-03  0.334E-02    0.37       1.0  T
   4   -332.8369496 -0.208983E-03  0.969E-03    0.38       1.0  T
   5   -332.8369516 -0.202789E-05  0.577E-03    0.38       1.2  T
   6   -332.8369565 -0.484104E-05  0.186E-03    0.38       3.8  T
   7   -332.8369571 -0.660989E-06  0.721E-04    0.38       9.9  T
   8   -332.8369572 -0.723836E-07  0.387E-04    0.38      18.4  T
     SCC iter.                  ...        0 min,  0.308 sec
     gradient                   ...        0 min,  0.134 sec
 * total energy  :  -327.4409021 Eh     change       -0.1998099E-02 Eh
   gradient norm :     0.0134544 Eh/α   predicted    -0.2018732E-02 (   1.03%)
   displ. norm   :     0.8464834 α      lambda       -0.2143916E-02
   maximum displ.:     0.2209911 α      in ANC's #27, #21, #9, ...

........................................................................
.............................. CYCLE   19 ..............................
........................................................................
   1   -332.8430570 -0.332843E+03  0.125E-01    0.36       0.0  T
   2   -332.8431035 -0.465057E-04  0.664E-02    0.37       1.0  T
   3   -332.8429390  0.164543E-03  0.314E-02    0.37       1.0  T
   4   -332.8431322 -0.193242E-03  0.927E-03    0.37       1.0  T
   5   -332.8431352 -0.299870E-05  0.503E-03    0.37       1.4  T
   6   -332.8431387 -0.343091E-05  0.163E-03    0.37       4.4  T
   7   -332.8431392 -0.495708E-06  0.617E-04    0.37      11.5  T
   8   -332.8431392 -0.600397E-07  0.288E-04    0.37      24.7  T
     SCC iter.                  ...        0 min,  0.306 sec
     gradient                   ...        0 min,  0.134 sec
 * total energy  :  -327.4428164 Eh     change       -0.1914289E-02 Eh
   gradient norm :     0.0116932 Eh/α   predicted    -0.1840062E-02 (  -3.88%)
   displ. norm   :     0.8680436 α      lambda       -0.2052646E-02
   maximum displ.:     0.2213405 α      in ANC's #9, #27, #13, ...

........................................................................
.............................. CYCLE   20 ..............................
........................................................................
   1   -332.8382779 -0.332838E+03  0.130E-01    0.35       0.0  T
   2   -332.8383186 -0.406167E-04  0.685E-02    0.36       1.0  T
   3   -332.8381343  0.184205E-03  0.316E-02    0.36       1.0  T
   4   -332.8383375 -0.203163E-03  0.105E-02    0.36       1.0  T
   5   -332.8383413 -0.383022E-05  0.736E-03    0.36       1.0  T
   6   -332.8383516 -0.102581E-04  0.204E-03    0.36       3.5  T
   7   -332.8383524 -0.764777E-06  0.666E-04    0.36      10.7  T
   8   -332.8383524 -0.645063E-07  0.308E-04    0.36      23.2  T
     SCC iter.                  ...        0 min,  0.322 sec
     gradient                   ...        0 min,  0.134 sec
 * total energy  :  -327.4446286 Eh     change       -0.1812290E-02 Eh
   gradient norm :     0.0128482 Eh/α   predicted    -0.1799670E-02 (  -0.70%)
   displ. norm   :     0.8455124 α      lambda       -0.2268303E-02
   maximum displ.:     0.2518224 α      in ANC's #9, #21, #13, ...
 * RMSD in coord.:     0.7823050 α      energy gain  -0.1514419E+00 Eh

generating ANC from model Hessian ...
Using Lindh-Hessian (1995)
 Shifting diagonal of input Hessian by   1.002288779727117E-002
 Lowest  eigenvalues of input Hessian
    0.010000    0.010017    0.000000    0.000000    0.000000    0.000000
    0.000000    0.000000    0.010035    0.010050    0.010070    0.010100
    0.010102    0.010119    0.010130    0.010150    0.010167    0.010174
 Highest eigenvalues
    2.291322    2.593334    2.610670    2.647829    2.652991    2.678999
 

........................................................................
.............................. CYCLE   21 ..............................
........................................................................
   1   -332.8627692 -0.332863E+03  0.128E-01    0.34       0.0  T
   2   -332.8628079 -0.386913E-04  0.685E-02    0.35       1.0  T
   3   -332.8627173  0.905946E-04  0.238E-02    0.35       1.0  T
   4   -332.8628191 -0.101736E-03  0.902E-03    0.35       1.0  T
   5   -332.8628233 -0.428698E-05  0.508E-03    0.35       1.4  T
   6   -332.8628275 -0.417942E-05  0.192E-03    0.35       3.7  T
   7   -332.8628282 -0.702835E-06  0.772E-04    0.35       9.2  T
   8   -332.8628283 -0.995600E-07  0.350E-04    0.35      20.3  T
     SCC iter.                  ...        0 min,  0.309 sec
     gradient                   ...        0 min,  0.135 sec
 * total energy  :  -327.4462367 Eh     change       -0.1608063E-02 Eh
   gradient norm :     0.0180391 Eh/α   predicted     0.0000000E+00 (-100.00%)
   displ. norm   :     0.2139880 α      lambda       -0.1033508E-02
   maximum displ.:     0.0898151 α      in ANC's #19, #9, #47, ...

........................................................................
.............................. CYCLE   22 ..............................
........................................................................
   1   -332.8544438 -0.332854E+03  0.587E-02    0.35       0.0  T
   2   -332.8544543 -0.104445E-04  0.327E-02    0.35       1.0  T
   3   -332.8543933  0.610228E-04  0.162E-02    0.35       1.0  T
   4   -332.8544599 -0.666071E-04  0.392E-03    0.35       1.8  T
   5   -332.8544618 -0.191790E-05  0.215E-03    0.35       3.3  T
   6   -332.8544624 -0.630853E-06  0.938E-04    0.35       7.6  T
   7   -332.8544625 -0.134487E-06  0.374E-04    0.35      19.0  T
     SCC iter.                  ...        0 min,  0.268 sec
     gradient                   ...        0 min,  0.135 sec
 * total energy  :  -327.4469787 Eh     change       -0.7419554E-03 Eh
   gradient norm :     0.0081160 Eh/α   predicted    -0.5404631E-03 ( -27.16%)
   displ. norm   :     0.5482123 α      lambda       -0.1919088E-02
   maximum displ.:     0.2284600 α      in ANC's #19, #22, #9, ...

........................................................................
.............................. CYCLE   23 ..............................
........................................................................
   1   -332.8366644 -0.332837E+03  0.123E-01    0.36       0.0  T
   2   -332.8367077 -0.433501E-04  0.678E-02    0.36       1.0  T
   3   -332.8365317  0.176051E-03  0.294E-02    0.35       1.0  T
   4   -332.8367214 -0.189758E-03  0.902E-03    0.36       1.0  T
   5   -332.8367309 -0.946583E-05  0.496E-03    0.36       1.4  T
   6   -332.8367347 -0.376428E-05  0.201E-03    0.36       3.6  T
   7   -332.8367353 -0.668946E-06  0.787E-04    0.36       9.1  T
   8   -332.8367354 -0.902519E-07  0.364E-04    0.36      19.6  T
     SCC iter.                  ...        0 min,  0.313 sec
     gradient                   ...        0 min,  0.135 sec
 * total energy  :  -327.4473182 Eh     change       -0.3395737E-03 Eh
   gradient norm :     0.0259647 Eh/α   predicted    -0.1247926E-02 ( 267.50%)
   displ. norm   :     0.2770346 α      lambda       -0.1791111E-02
   maximum displ.:     0.1139227 α      in ANC's #19, #9, #3, ...

........................................................................
.............................. CYCLE   24 ..............................
........................................................................
   1   -332.8412498 -0.332841E+03  0.895E-02    0.36       0.0  T
   2   -332.8412678 -0.179667E-04  0.493E-02    0.36       1.0  T
   3   -332.8411684  0.993334E-04  0.203E-02    0.35       1.0  T
   4   -332.8412796 -0.111198E-03  0.415E-03    0.36       1.7  T
   5   -332.8412809 -0.121137E-05  0.270E-03    0.36       2.6  T
   6   -332.8412821 -0.122025E-05  0.770E-04    0.36       9.2  T
   7   -332.8412821 -0.661505E-07  0.384E-04    0.36      18.5  T
   8   -332.8412822 -0.199616E-07  0.171E-04    0.36      41.6  T
     SCC iter.                  ...        0 min,  0.313 sec
     gradient                   ...        0 min,  0.135 sec
 * total energy  :  -327.4485392 Eh     change       -0.1220943E-02 Eh
   gradient norm :     0.0164828 Eh/α   predicted    -0.9642878E-03 ( -21.02%)
   displ. norm   :     0.4587903 α      lambda       -0.1336398E-02
   maximum displ.:     0.2008004 α      in ANC's #19, #9, #47, ...

........................................................................
.............................. CYCLE   25 ..............................
........................................................................
   1   -332.8478063 -0.332848E+03  0.740E-02    0.35       0.0  T
   2   -332.8478194 -0.131730E-04  0.396E-02    0.36       1.0  T
   3   -332.8477489  0.705545E-04  0.179E-02    0.35       1.0  T
   4   -332.8478255 -0.766150E-04  0.568E-03    0.36       1.3  T
   5   -332.8478272 -0.174061E-05  0.376E-03    0.36       1.9  T
   6   -332.8478300 -0.278459E-05  0.111E-03    0.36       6.4  T
   7   -332.8478302 -0.181044E-06  0.454E-04    0.36      15.7  T
   8   -332.8478302 -0.271962E-07  0.200E-04    0.36      35.6  T
     SCC iter.                  ...        0 min,  0.313 sec
     gradient                   ...        0 min,  0.135 sec
 * total energy  :  -327.4496129 Eh     change       -0.1073679E-02 Eh
   gradient norm :     0.0117506 Eh/α   predicted    -0.8088478E-03 ( -24.67%)
   displ. norm   :     0.7187177 α      lambda       -0.1745930E-02
   maximum displ.:     0.3101810 α      in ANC's #19, #9, #47, ...

........................................................................
.............................. CYCLE   26 ..............................
........................................................................
   1   -332.8549759 -0.332855E+03  0.117E-01    0.35       0.0  T
   2   -332.8550089 -0.329628E-04  0.625E-02    0.35       1.0  T
   3   -332.8548628  0.146025E-03  0.263E-02    0.35       1.0  T
   4   -332.8550203 -0.157442E-03  0.878E-03    0.36       1.0  T
   5   -332.8550257 -0.537598E-05  0.549E-03    0.35       1.3  T
   6   -332.8550315 -0.586197E-05  0.156E-03    0.35       4.6  T
   7   -332.8550319 -0.337132E-06  0.674E-04    0.35      10.6  T
   8   -332.8550319 -0.654877E-07  0.309E-04    0.35      23.1  T
     SCC iter.                  ...        0 min,  0.313 sec
     gradient                   ...        0 min,  0.135 sec
 * total energy  :  -327.4510746 Eh     change       -0.1461727E-02 Eh
   gradient norm :     0.0145828 Eh/α   predicted    -0.1323900E-02 (  -9.43%)
   displ. norm   :     0.7975211 α      lambda       -0.1924349E-02
   maximum displ.:     0.3398457 α      in ANC's #19, #9, #22, ...

........................................................................
.............................. CYCLE   27 ..............................
........................................................................
   1   -332.8620340 -0.332862E+03  0.112E-01    0.35       0.0  T
   2   -332.8620614 -0.274526E-04  0.591E-02    0.35       1.0  T
   3   -332.8619365  0.124960E-03  0.244E-02    0.35       1.0  T
   4   -332.8620662 -0.129755E-03  0.953E-03    0.35       1.0  T
   5   -332.8620740 -0.774498E-05  0.557E-03    0.35       1.3  T
   6   -332.8620798 -0.588333E-05  0.164E-03    0.35       4.3  T
   7   -332.8620803 -0.454899E-06  0.606E-04    0.35      11.8  T
   8   -332.8620803 -0.519140E-07  0.262E-04    0.35      27.1  T
     SCC iter.                  ...        0 min,  0.302 sec
     gradient                   ...        0 min,  0.135 sec
 * total energy  :  -327.4527307 Eh     change       -0.1656075E-02 Eh
   gradient norm :     0.0155234 Eh/α   predicted    -0.1574160E-02 (  -4.95%)
   displ. norm   :     0.8221768 α      lambda       -0.1944067E-02
   maximum displ.:     0.3521338 α      in ANC's #19, #9, #22, ...

........................................................................
.............................. CYCLE   28 ..............................
........................................................................
   1   -332.8574819 -0.332857E+03  0.113E-01    0.34       0.0  T
   2   -332.8575113 -0.294104E-04  0.595E-02    0.35       1.0  T
   3   -332.8574530  0.583271E-04  0.188E-02    0.34       1.0  T
   4   -332.8575105 -0.575297E-04  0.915E-03    0.35       1.0  T
   5   -332.8575185 -0.797408E-05  0.519E-03    0.35       1.4  T
   6   -332.8575239 -0.538353E-05  0.160E-03    0.35       4.5  T
   7   -332.8575243 -0.455569E-06  0.589E-04    0.35      12.1  T
   8   -332.8575244 -0.538138E-07  0.263E-04    0.35      27.1  T
     SCC iter.                  ...        0 min,  0.320 sec
     gradient                   ...        0 min,  0.135 sec
 * total energy  :  -327.4544767 Eh     change       -0.1746085E-02 Eh
   gradient norm :     0.0125489 Eh/α   predicted    -0.1629113E-02 (  -6.70%)
   displ. norm   :     0.8092936 α      lambda       -0.1921182E-02
   maximum displ.:     0.3480297 α      in ANC's #19, #9, #10, ...

........................................................................
.............................. CYCLE   29 ..............................
........................................................................
   1   -332.8596970 -0.332860E+03  0.107E-01    0.34       0.0  T
   2   -332.8597245 -0.274273E-04  0.566E-02    0.34       1.0  T
   3   -332.8596649  0.595424E-04  0.196E-02    0.34       1.0  T
   4   -332.8597294 -0.645240E-04  0.802E-03    0.34       1.0  T
   5   -332.8597338 -0.432609E-05  0.434E-03    0.34       1.6  T
   6   -332.8597370 -0.326733E-05  0.152E-03    0.34       4.7  T
   7   -332.8597374 -0.396925E-06  0.710E-04    0.34      10.0  T
   8   -332.8597375 -0.107131E-06  0.259E-04    0.34      27.5  T
     SCC iter.                  ...        0 min,  0.315 sec
     gradient                   ...        0 min,  0.135 sec
 * total energy  :  -327.4561211 Eh     change       -0.1644406E-02 Eh
   gradient norm :     0.0108144 Eh/α   predicted    -0.1589740E-02 (  -3.32%)
   displ. norm   :     0.8965988 α      lambda       -0.1883259E-02
   maximum displ.:     0.3784320 α      in ANC's #19, #9, #3, ...

........................................................................
.............................. CYCLE   30 ..............................
........................................................................
   1   -332.8441375 -0.332844E+03  0.128E-01    0.33       0.0  T
   2   -332.8441774 -0.399234E-04  0.676E-02    0.34       1.0  T
   3   -332.8441036  0.737532E-04  0.219E-02    0.33       1.0  T
   4   -332.8441774 -0.737802E-04  0.103E-02    0.34       1.0  T
   5   -332.8441879 -0.104952E-04  0.574E-03    0.34       1.2  T
   6   -332.8441942 -0.633370E-05  0.172E-03    0.34       4.1  T
   7   -332.8441947 -0.491563E-06  0.692E-04    0.34      10.3  T
   8   -332.8441948 -0.742583E-07  0.314E-04    0.34      22.7  T
     SCC iter.                  ...        0 min,  0.315 sec
     gradient                   ...        0 min,  0.135 sec
 * total energy  :  -327.4577154 Eh     change       -0.1594211E-02 Eh
   gradient norm :     0.0173408 Eh/α   predicted    -0.1698597E-02 (   6.55%)
   displ. norm   :     0.7467564 α      lambda       -0.1950373E-02
   maximum displ.:     0.3037001 α      in ANC's #19, #9, #3, ...

........................................................................
.............................. CYCLE   31 ..............................
........................................................................
   1   -332.8565339 -0.332857E+03  0.101E-01    0.33       0.0  T
   2   -332.8565613 -0.273923E-04  0.540E-02    0.33       1.0  T
   3   -332.8564699  0.914142E-04  0.245E-02    0.33       1.0  T
   4   -332.8565739 -0.103986E-03  0.748E-03    0.33       1.0  T
   5   -332.8565751 -0.118123E-05  0.513E-03    0.33       1.4  T
   6   -332.8565800 -0.495046E-05  0.175E-03    0.33       4.1  T
   7   -332.8565806 -0.607894E-06  0.626E-04    0.33      11.4  T
   8   -332.8565807 -0.619484E-07  0.291E-04    0.33      24.5  T
     SCC iter.                  ...        0 min,  0.310 sec
     gradient                   ...        0 min,  0.135 sec
 * total energy  :  -327.4593367 Eh     change       -0.1621323E-02 Eh
   gradient norm :     0.0164673 Eh/α   predicted    -0.1519002E-02 (  -6.31%)
   displ. norm   :     0.8295634 α      lambda       -0.2089224E-02
   maximum displ.:     0.3272277 α      in ANC's #19, #9, #3, ...

........................................................................
.............................. CYCLE   32 ..............................
........................................................................
   1   -332.8628261 -0.332863E+03  0.121E-01    0.33       0.0  T
   2   -332.8628689 -0.427532E-04  0.652E-02    0.33       1.0  T
   3   -332.8627283  0.140563E-03  0.292E-02    0.33       1.0  T
   4   -332.8628904 -0.162156E-03  0.844E-03    0.33       1.0  T
   5   -332.8628942 -0.375270E-05  0.454E-03    0.33       1.6  T
   6   -332.8628968 -0.255579E-05  0.156E-03    0.33       4.6  T
   7   -332.8628972 -0.425848E-06  0.586E-04    0.33      12.2  T
   8   -332.8628972 -0.427006E-07  0.289E-04    0.33      24.7  T
     SCC iter.                  ...        0 min,  0.306 sec
     gradient                   ...        0 min,  0.134 sec
 * total energy  :  -327.4607698 Eh     change       -0.1433163E-02 Eh
   gradient norm :     0.0239987 Eh/α   predicted    -0.1763489E-02 (  23.05%)
   displ. norm   :     0.7606181 α      lambda       -0.1920747E-02
   maximum displ.:     0.3032175 α      in ANC's #19, #9, #3, ...

........................................................................
.............................. CYCLE   33 ..............................
........................................................................
   1   -332.8625270 -0.332863E+03  0.107E-01    0.32       0.0  T
   2   -332.8625596 -0.325591E-04  0.573E-02    0.32       1.0  T
   3   -332.8624725  0.871081E-04  0.236E-02    0.32       1.0  T
   4   -332.8625744 -0.101900E-03  0.721E-03    0.33       1.0  T
   5   -332.8625756 -0.119065E-05  0.470E-03    0.32       1.5  T
   6   -332.8625796 -0.406604E-05  0.158E-03    0.33       4.5  T
   7   -332.8625801 -0.498123E-06  0.676E-04    0.33      10.5  T
   8   -332.8625802 -0.838972E-07  0.278E-04    0.33      25.6  T
     SCC iter.                  ...        0 min,  0.311 sec
     gradient                   ...        0 min,  0.135 sec
 * total energy  :  -327.4624428 Eh     change       -0.1673004E-02 Eh
   gradient norm :     0.0100751 Eh/α   predicted    -0.1515992E-02 (  -9.38%)
   displ. norm   :     0.7819649 α      lambda       -0.1940655E-02
   maximum displ.:     0.2712117 α      in ANC's #19, #9, #3, ...

........................................................................
.............................. CYCLE   34 ..............................
........................................................................
   1   -332.8779769 -0.332878E+03  0.108E-01    0.31       0.0  T
   2   -332.8780195 -0.425680E-04  0.579E-02    0.32       1.0  T
   3   -332.8778354  0.184079E-03  0.328E-02    0.32       1.0  T
   4   -332.8780539 -0.218554E-03  0.863E-03    0.32       1.0  T
   5   -332.8780587 -0.480560E-05  0.493E-03    0.32       1.4  T
   6   -332.8780616 -0.289812E-05  0.200E-03    0.32       3.6  T
   7   -332.8780624 -0.746559E-06  0.829E-04    0.32       8.6  T
   8   -332.8780625 -0.120824E-06  0.363E-04    0.32      19.6  T
     SCC iter.                  ...        0 min,  0.313 sec
     gradient                   ...        0 min,  0.137 sec
 * total energy  :  -327.4638028 Eh     change       -0.1359908E-02 Eh
   gradient norm :     0.0167588 Eh/α   predicted    -0.1563653E-02 (  14.98%)
   displ. norm   :     0.8128992 α      lambda       -0.2007707E-02
   maximum displ.:     0.2870560 α      in ANC's #19, #9, #3, ...

........................................................................
.............................. CYCLE   35 ..............................
........................................................................
   1   -332.8744583 -0.332874E+03  0.106E-01    0.31       0.0  T
   2   -332.8744974 -0.391583E-04  0.556E-02    0.32       1.0  T
   3   -332.8743918  0.105661E-03  0.262E-02    0.32       1.0  T
   4   -332.8745150 -0.123244E-03  0.836E-03    0.32       1.0  T
   5   -332.8745181 -0.302975E-05  0.495E-03    0.32       1.4  T
   6   -332.8745215 -0.345914E-05  0.200E-03    0.32       3.6  T
   7   -332.8745224 -0.851636E-06  0.785E-04    0.32       9.1  T
   8   -332.8745225 -0.127689E-06  0.308E-04    0.32      23.1  T
     SCC iter.                  ...        0 min,  0.316 sec
     gradient                   ...        0 min,  0.137 sec
 * total energy  :  -327.4653599 Eh     change       -0.1557110E-02 Eh
   gradient norm :     0.0192870 Eh/α   predicted    -0.1667210E-02 (   7.07%)
   displ. norm   :     0.8104666 α      lambda       -0.1776103E-02
   maximum displ.:     0.2805481 α      in ANC's #19, #9, #3, ...

........................................................................
.............................. CYCLE   36 ..............................
........................................................................
   1   -332.8611236 -0.332861E+03  0.112E-01    0.31       0.0  T
   2   -332.8611627 -0.391676E-04  0.600E-02    0.32       1.0  T
   3   -332.8609344  0.228273E-03  0.355E-02    0.31       1.0  T
   4   -332.8611948 -0.260338E-03  0.908E-03    0.32       1.0  T
   5   -332.8612006 -0.585955E-05  0.545E-03    0.32       1.3  T
   6   -332.8612047 -0.409024E-05  0.230E-03    0.32       3.1  T
   7   -332.8612058 -0.104719E-05  0.887E-04    0.32       8.0  T
   8   -332.8612059 -0.148257E-06  0.367E-04    0.32      19.4  T
   9   -332.8612059 -0.120887E-07  0.209E-04    0.32      34.1  T
     SCC iter.                  ...        0 min,  0.356 sec
     gradient                   ...        0 min,  0.137 sec
 * total energy  :  -327.4665627 Eh     change       -0.1202851E-02 Eh
   gradient norm :     0.0218994 Eh/α   predicted    -0.1471382E-02 (  22.32%)
   displ. norm   :     0.6778268 α      lambda       -0.1911356E-02
   maximum displ.:     0.2170773 α      in ANC's #9, #3, #19, ...

........................................................................
.............................. CYCLE   37 ..............................
........................................................................
   1   -332.8676828 -0.332868E+03  0.903E-02    0.31       0.0  T
   2   -332.8677122 -0.294870E-04  0.485E-02    0.32       1.0  T
   3   -332.8675821  0.130173E-03  0.270E-02    0.31       1.0  T
   4   -332.8677306 -0.148562E-03  0.751E-03    0.32       1.0  T
   5   -332.8677344 -0.375674E-05  0.452E-03    0.32       1.6  T
   6   -332.8677373 -0.289277E-05  0.198E-03    0.32       3.6  T
   7   -332.8677381 -0.819707E-06  0.780E-04    0.32       9.1  T
   8   -332.8677382 -0.118284E-06  0.283E-04    0.32      25.2  T
     SCC iter.                  ...        0 min,  0.316 sec
     gradient                   ...        0 min,  0.135 sec
 * total energy  :  -327.4679192 Eh     change       -0.1356487E-02 Eh
   gradient norm :     0.0180739 Eh/α   predicted    -0.1394761E-02 (   2.82%)
   displ. norm   :     0.7200796 α      lambda       -0.1914586E-02
   maximum displ.:     0.2326673 α      in ANC's #3, #9, #10, ...

........................................................................
.............................. CYCLE   38 ..............................
........................................................................
   1   -332.8757651 -0.332876E+03  0.953E-02    0.31       0.0  T
   2   -332.8757984 -0.333035E-04  0.505E-02    0.32       1.0  T
   3   -332.8756626  0.135755E-03  0.280E-02    0.31       1.0  T
   4   -332.8758201 -0.157404E-03  0.822E-03    0.32       1.0  T
   5   -332.8758244 -0.438094E-05  0.483E-03    0.31       1.5  T
   6   -332.8758273 -0.285324E-05  0.212E-03    0.32       3.4  T
   7   -332.8758283 -0.978573E-06  0.800E-04    0.32       8.9  T
   8   -332.8758284 -0.124639E-06  0.341E-04    0.32      20.9  T
     SCC iter.                  ...        0 min,  0.308 sec
     gradient                   ...        0 min,  0.134 sec
 * total energy  :  -327.4689806 Eh     change       -0.1061421E-02 Eh
   gradient norm :     0.0184434 Eh/α   predicted    -0.1453670E-02 (  36.96%)
   displ. norm   :     0.6552119 α      lambda       -0.1943317E-02
   maximum displ.:     0.2181370 α      in ANC's #3, #9, #10, ...

........................................................................
.............................. CYCLE   39 ..............................
........................................................................
   1   -332.8866497 -0.332887E+03  0.853E-02    0.31       0.0  T
   2   -332.8866759 -0.262049E-04  0.446E-02    0.32       1.0  T
   3   -332.8865991  0.767525E-04  0.219E-02    0.31       1.0  T
   4   -332.8866893 -0.901967E-04  0.676E-03    0.32       1.1  T
   5   -332.8866924 -0.308450E-05  0.365E-03    0.32       2.0  T
   6   -332.8866940 -0.164482E-05  0.140E-03    0.32       5.1  T
   7   -332.8866944 -0.333061E-06  0.544E-04    0.32      13.1  T
   8   -332.8866944 -0.416386E-07  0.294E-04    0.32      24.2  T
     SCC iter.                  ...        0 min,  0.305 sec
     gradient                   ...        0 min,  0.135 sec
 * total energy  :  -327.4702675 Eh     change       -0.1286824E-02 Eh
   gradient norm :     0.0161928 Eh/α   predicted    -0.1388796E-02 (   7.92%)
   displ. norm   :     0.7265612 α      lambda       -0.1819473E-02
   maximum displ.:     0.2391902 α      in ANC's #9, #3, #10, ...

........................................................................
.............................. CYCLE   40 ..............................
........................................................................
   1   -332.8721383 -0.332872E+03  0.974E-02    0.31       0.0  T
   2   -332.8721723 -0.339910E-04  0.513E-02    0.32       1.0  T
   3   -332.8720717  0.100655E-03  0.237E-02    0.31       1.0  T
   4   -332.8721737 -0.101989E-03  0.967E-03    0.32       1.0  T
   5   -332.8721866 -0.129434E-04  0.470E-03    0.31       1.5  T
   6   -332.8721890 -0.238158E-05  0.237E-03    0.32       3.0  T
   7   -332.8721902 -0.116861E-05  0.761E-04    0.31       9.4  T
   8   -332.8721903 -0.913407E-07  0.342E-04    0.31      20.8  T
   9   -332.8721903 -0.575983E-08  0.184E-04    0.31      38.7  T
     SCC iter.                  ...        0 min,  0.354 sec
     gradient                   ...        0 min,  0.137 sec
 * total energy  :  -327.4710615 Eh     change       -0.7940126E-03 Eh
   gradient norm :     0.0252970 Eh/α   predicted    -0.1389980E-02 (  75.06%)
   displ. norm   :     0.6065160 α      lambda       -0.2139461E-02
   maximum displ.:     0.1944524 α      in ANC's #9, #3, #19, ...

........................................................................
.............................. CYCLE   41 ..............................
........................................................................
   1   -332.8543449 -0.332854E+03  0.811E-02    0.31       0.0  T
   2   -332.8543722 -0.273168E-04  0.431E-02    0.31       1.0  T
   3   -332.8543318  0.403987E-04  0.168E-02    0.31       1.0  T
   4   -332.8543722 -0.404244E-04  0.781E-03    0.32       1.0  T
   5   -332.8543806 -0.834044E-05  0.330E-03    0.31       2.2  T
   6   -332.8543810 -0.420476E-06  0.194E-03    0.31       3.7  T
   7   -332.8543819 -0.916348E-06  0.667E-04    0.31      10.7  T
   8   -332.8543820 -0.725184E-07  0.316E-04    0.31      22.5  T
     SCC iter.                  ...        0 min,  0.309 sec
     gradient                   ...        0 min,  0.137 sec
 * total energy  :  -327.4718321 Eh     change       -0.7706111E-03 Eh
   gradient norm :     0.0258517 Eh/α   predicted    -0.1463248E-02 (  89.88%)
   displ. norm   :     0.4940377 α      lambda       -0.2817794E-02
   maximum displ.:     0.1569653 α      in ANC's #3, #9, #10, ...

........................................................................
.............................. CYCLE   42 ..............................
........................................................................
   1   -332.9072788 -0.332907E+03  0.854E-02    0.31       0.0  T
   2   -332.9073218 -0.429509E-04  0.467E-02    0.31       1.0  T
   3   -332.9072895  0.322907E-04  0.182E-02    0.32       1.0  T
   4   -332.9073271 -0.375889E-04  0.740E-03    0.31       1.0  T
   5   -332.9073332 -0.612650E-05  0.369E-03    0.32       1.9  T
   6   -332.9073335 -0.290843E-06  0.256E-03    0.31       2.8  T
   7   -332.9073350 -0.151374E-05  0.773E-04    0.31       9.2  T
   8   -332.9073350 -0.436533E-07  0.455E-04    0.31      15.7  T
   9   -332.9073351 -0.179196E-07  0.204E-04    0.31      34.9  T
     SCC iter.                  ...        0 min,  0.352 sec
     gradient                   ...        0 min,  0.137 sec
 * total energy  :  -327.4711928 Eh     change        0.6392412E-03 Eh
   gradient norm :     0.0418453 Eh/α   predicted    -0.1752776E-02 (-374.20%)
   displ. norm   :     0.3779246 α      lambda       -0.4750485E-02
   maximum displ.:     0.1413323 α      in ANC's #54, #19, #65, ...
 * RMSD in coord.:     0.9642967 α      energy gain  -0.2656419E-01 Eh

generating ANC from model Hessian ...
Using Lindh-Hessian (1995)
 Shifting diagonal of input Hessian by   1.004029800419439E-002
 Lowest  eigenvalues of input Hessian
    0.010000    0.010027    0.010035    0.010038    0.000000    0.000000
    0.000000    0.000000    0.000000    0.000000    0.010075    0.010100
    0.010112    0.010124    0.010131    0.010146    0.010187    0.010195
 Highest eigenvalues
    2.289823    2.583308    2.612571    2.635631    2.653853    2.677020
 

........................................................................
.............................. CYCLE   43 ..............................
........................................................................
   1   -332.8788361 -0.332879E+03  0.919E-02    0.31       0.0  T
   2   -332.8788896 -0.534693E-04  0.485E-02    0.32       1.0  T
   3   -332.8788825  0.709671E-05  0.159E-02    0.31       1.0  T
   4   -332.8788947 -0.122394E-04  0.703E-03    0.31       1.0  T
   5   -332.8788986 -0.388549E-05  0.402E-03    0.31       1.8  T
   6   -332.8789006 -0.203679E-05  0.143E-03    0.31       5.0  T
   7   -332.8789010 -0.345901E-06  0.647E-04    0.31      11.0  T
   8   -332.8789010 -0.154625E-07  0.416E-04    0.31      17.1  T
     SCC iter.                  ...        0 min,  0.303 sec
     gradient                   ...        0 min,  0.135 sec
 * total energy  :  -327.4722317 Eh     change       -0.1038868E-02 Eh
   gradient norm :     0.0368084 Eh/α   predicted     0.0000000E+00 (-100.00%)
   displ. norm   :     0.1740410 α      lambda       -0.2605851E-02
   maximum displ.:     0.0482894 α      in ANC's #10, #55, #52, ...

........................................................................
.............................. CYCLE   44 ..............................
........................................................................
   1   -332.8842900 -0.332884E+03  0.634E-02    0.31       0.0  T
   2   -332.8843116 -0.215693E-04  0.347E-02    0.31       1.0  T
   3   -332.8842751  0.364749E-04  0.152E-02    0.31       1.0  T
   4   -332.8843158 -0.407454E-04  0.537E-03    0.31       1.3  T
   5   -332.8843203 -0.449601E-05  0.218E-03    0.31       3.3  T
   6   -332.8843203 -0.525750E-08  0.145E-03    0.31       4.9  T
   7   -332.8843207 -0.418969E-06  0.407E-04    0.31      17.5  T
   8   -332.8843208 -0.112533E-07  0.258E-04    0.31      27.6  T
     SCC iter.                  ...        0 min,  0.299 sec
     gradient                   ...        0 min,  0.135 sec
 * total energy  :  -327.4737753 Eh     change       -0.1543638E-02 Eh
   gradient norm :     0.0087216 Eh/α   predicted    -0.1342612E-02 ( -13.02%)
   displ. norm   :     0.2283634 α      lambda       -0.7927629E-03
   maximum displ.:     0.0752900 α      in ANC's #10, #55, #52, ...

........................................................................
.............................. CYCLE   45 ..............................
........................................................................
   1   -332.8856454 -0.332886E+03  0.727E-02    0.31       0.0  T
   2   -332.8856610 -0.155061E-04  0.395E-02    0.31       1.0  T
   3   -332.8856233  0.376373E-04  0.143E-02    0.32       1.0  T
   4   -332.8856677 -0.443417E-04  0.381E-03    0.31       1.9  T
   5   -332.8856687 -0.101117E-05  0.219E-03    0.31       3.2  T
   6   -332.8856692 -0.564043E-06  0.118E-03    0.31       6.1  T
   7   -332.8856695 -0.304225E-06  0.412E-04    0.31      17.3  T
   8   -332.8856696 -0.272837E-07  0.197E-04    0.31      36.2  T
     SCC iter.                  ...        0 min,  0.301 sec
     gradient                   ...        0 min,  0.135 sec
 * total energy  :  -327.4740947 Eh     change       -0.3193694E-03 Eh
   gradient norm :     0.0108706 Eh/α   predicted    -0.4170531E-03 (  30.59%)
   displ. norm   :     0.2859314 α      lambda       -0.7214390E-03
   maximum displ.:     0.0976446 α      in ANC's #10, #2, #3, ...

........................................................................
.............................. CYCLE   46 ..............................
........................................................................
   1   -332.8835990 -0.332884E+03  0.745E-02    0.31       0.0  T
   2   -332.8836147 -0.156412E-04  0.401E-02    0.31       1.0  T
   3   -332.8835490  0.656840E-04  0.176E-02    0.31       1.0  T
   4   -332.8836255 -0.765371E-04  0.402E-03    0.31       1.8  T
   5   -332.8836264 -0.917700E-06  0.234E-03    0.31       3.0  T
   6   -332.8836272 -0.761181E-06  0.865E-04    0.31       8.2  T
   7   -332.8836273 -0.129041E-06  0.333E-04    0.31      21.4  T
     SCC iter.                  ...        0 min,  0.274 sec
     gradient                   ...        0 min,  0.137 sec
 * total energy  :  -327.4745377 Eh     change       -0.4429935E-03 Eh
   gradient norm :     0.0116963 Eh/α   predicted    -0.3902120E-03 ( -11.91%)
   displ. norm   :     0.5523804 α      lambda       -0.1377822E-02
   maximum displ.:     0.1881745 α      in ANC's #10, #52, #55, ...

........................................................................
.............................. CYCLE   47 ..............................
........................................................................
   1   -332.8764767 -0.332876E+03  0.126E-01    0.31       0.0  T
   2   -332.8765202 -0.434683E-04  0.675E-02    0.31       1.0  T
   3   -332.8762485  0.271675E-03  0.353E-02    0.32       1.0  T
   4   -332.8765590 -0.310495E-03  0.809E-03    0.31       1.0  T
   5   -332.8765634 -0.444627E-05  0.464E-03    0.31       1.5  T
   6   -332.8765659 -0.245830E-05  0.207E-03    0.31       3.4  T
   7   -332.8765668 -0.888855E-06  0.785E-04    0.31       9.1  T
   8   -332.8765669 -0.116266E-06  0.351E-04    0.31      20.3  T
     SCC iter.                  ...        0 min,  0.311 sec
     gradient                   ...        0 min,  0.137 sec
 * total energy  :  -327.4750856 Eh     change       -0.5478795E-03 Eh
   gradient norm :     0.0196284 Eh/α   predicted    -0.8991248E-03 (  64.11%)
   displ. norm   :     0.3966502 α      lambda       -0.1180872E-02
   maximum displ.:     0.1415669 α      in ANC's #10, #2, #3, ...

........................................................................
.............................. CYCLE   48 ..............................
........................................................................
   1   -332.8805841 -0.332881E+03  0.808E-02    0.31       0.0  T
   2   -332.8806028 -0.187187E-04  0.429E-02    0.31       1.0  T
   3   -332.8805582  0.445971E-04  0.165E-02    0.31       1.0  T
   4   -332.8806124 -0.541296E-04  0.462E-03    0.31       1.5  T
   5   -332.8806128 -0.428171E-06  0.259E-03    0.31       2.8  T
   6   -332.8806138 -0.988262E-06  0.993E-04    0.31       7.2  T
   7   -332.8806140 -0.208267E-06  0.387E-04    0.31      18.4  T
     SCC iter.                  ...        0 min,  0.273 sec
     gradient                   ...        0 min,  0.137 sec
 * total energy  :  -327.4759543 Eh     change       -0.8687252E-03 Eh
   gradient norm :     0.0092804 Eh/α   predicted    -0.6833315E-03 ( -21.34%)
   displ. norm   :     0.5734813 α      lambda       -0.1073689E-02
   maximum displ.:     0.2220811 α      in ANC's #10, #3, #2, ...

........................................................................
.............................. CYCLE   49 ..............................
........................................................................
   1   -332.8844899 -0.332884E+03  0.968E-02    0.31       0.0  T
   2   -332.8845137 -0.237695E-04  0.509E-02    0.31       1.0  T
   3   -332.8844659  0.477627E-04  0.175E-02    0.31       1.0  T
   4   -332.8845237 -0.577749E-04  0.584E-03    0.31       1.2  T
   5   -332.8845247 -0.995359E-06  0.308E-03    0.31       2.3  T
   6   -332.8845262 -0.151550E-05  0.107E-03    0.31       6.6  T
   7   -332.8845264 -0.227381E-06  0.465E-04    0.31      15.3  T
   8   -332.8845265 -0.344529E-07  0.229E-04    0.31      31.1  T
     SCC iter.                  ...        0 min,  0.312 sec
     gradient                   ...        0 min,  0.135 sec
 * total energy  :  -327.4767609 Eh     change       -0.8066108E-03 Eh
   gradient norm :     0.0075660 Eh/α   predicted    -0.7134042E-03 ( -11.56%)
   displ. norm   :     0.7014389 α      lambda       -0.1003048E-02
   maximum displ.:     0.2809485 α      in ANC's #10, #3, #2, ...

........................................................................
.............................. CYCLE   50 ..............................
........................................................................
   1   -332.8871967 -0.332887E+03  0.952E-02    0.31       0.0  T
   2   -332.8872211 -0.244089E-04  0.490E-02    0.31       1.0  T
   3   -332.8871696  0.514621E-04  0.177E-02    0.31       1.0  T
   4   -332.8872297 -0.600402E-04  0.672E-03    0.31       1.1  T
   5   -332.8872308 -0.114526E-05  0.405E-03    0.31       1.8  T
   6   -332.8872338 -0.299197E-05  0.141E-03    0.31       5.0  T
   7   -332.8872343 -0.462742E-06  0.519E-04    0.31      13.7  T
   8   -332.8872343 -0.502203E-07  0.226E-04    0.31      31.6  T
     SCC iter.                  ...        0 min,  0.308 sec
     gradient                   ...        0 min,  0.134 sec
 * total energy  :  -327.4775589 Eh     change       -0.7979603E-03 Eh
   gradient norm :     0.0089172 Eh/α   predicted    -0.7482853E-03 (  -6.23%)
   displ. norm   :     0.7394761 α      lambda       -0.1049893E-02
   maximum displ.:     0.3033575 α      in ANC's #10, #3, #2, ...

........................................................................
.............................. CYCLE   51 ..............................
........................................................................
   1   -332.8907093 -0.332891E+03  0.919E-02    0.31       0.0  T
   2   -332.8907312 -0.218386E-04  0.470E-02    0.31       1.0  T
   3   -332.8907101  0.210824E-04  0.136E-02    0.31       1.0  T
   4   -332.8907363 -0.261852E-04  0.617E-03    0.31       1.2  T
   5   -332.8907382 -0.191281E-05  0.288E-03    0.31       2.5  T
   6   -332.8907395 -0.132732E-05  0.958E-04    0.31       7.4  T
   7   -332.8907397 -0.175491E-06  0.412E-04    0.31      17.3  T
   8   -332.8907397 -0.258657E-07  0.213E-04    0.31      33.4  T
     SCC iter.                  ...        0 min,  0.309 sec
     gradient                   ...        0 min,  0.135 sec
 * total energy  :  -327.4784880 Eh     change       -0.9291269E-03 Eh
   gradient norm :     0.0091238 Eh/α   predicted    -0.8120057E-03 ( -12.61%)
   displ. norm   :     0.7848389 α      lambda       -0.1164751E-02
   maximum displ.:     0.3312611 α      in ANC's #10, #3, #2, ...

........................................................................
.............................. CYCLE   52 ..............................
........................................................................
   1   -332.8950850 -0.332895E+03  0.883E-02    0.31       0.0  T
   2   -332.8951027 -0.176463E-04  0.454E-02    0.31       1.0  T
   3   -332.8950750  0.276560E-04  0.140E-02    0.31       1.0  T
   4   -332.8951056 -0.305458E-04  0.659E-03    0.31       1.1  T
   5   -332.8951086 -0.303261E-05  0.329E-03    0.31       2.2  T
   6   -332.8951105 -0.190537E-05  0.885E-04    0.31       8.0  T
   7   -332.8951106 -0.131408E-06  0.458E-04    0.31      15.6  T
   8   -332.8951107 -0.332459E-07  0.247E-04    0.31      28.8  T
     SCC iter.                  ...        0 min,  0.315 sec
     gradient                   ...        0 min,  0.137 sec
 * total energy  :  -327.4794930 Eh     change       -0.1005010E-02 Eh
   gradient norm :     0.0102943 Eh/α   predicted    -0.9411168E-03 (  -6.36%)
   displ. norm   :     0.8559442 α      lambda       -0.1124921E-02
   maximum displ.:     0.3583606 α      in ANC's #10, #3, #2, ...

........................................................................
.............................. CYCLE   53 ..............................
........................................................................
   1   -332.8883872 -0.332888E+03  0.971E-02    0.31       0.0  T
   2   -332.8884095 -0.222839E-04  0.490E-02    0.32       1.0  T
   3   -332.8883881  0.213614E-04  0.138E-02    0.31       1.0  T
   4   -332.8884141 -0.259701E-04  0.657E-03    0.32       1.1  T
   5   -332.8884166 -0.252369E-05  0.283E-03    0.31       2.5  T
   6   -332.8884181 -0.147523E-05  0.779E-04    0.32       9.1  T
   7   -332.8884182 -0.107297E-06  0.341E-04    0.31      20.9  T
   8   -332.8884182 -0.155697E-07  0.189E-04    0.31      37.8  T
     SCC iter.                  ...        0 min,  0.317 sec
     gradient                   ...        0 min,  0.137 sec
 * total energy  :  -327.4805046 Eh     change       -0.1011558E-02 Eh
   gradient norm :     0.0070898 Eh/α   predicted    -0.9745447E-03 (  -3.66%)
   displ. norm   :     0.8293195 α      lambda       -0.1182897E-02
   maximum displ.:     0.3580518 α      in ANC's #10, #3, #2, ...

........................................................................
.............................. CYCLE   54 ..............................
........................................................................
   1   -332.8932109 -0.332893E+03  0.852E-02    0.31       0.0  T
   2   -332.8932340 -0.230817E-04  0.447E-02    0.32       1.0  T
   3   -332.8931011  0.132894E-03  0.269E-02    0.31       1.0  T
   4   -332.8932615 -0.160368E-03  0.679E-03    0.32       1.0  T
   5   -332.8932633 -0.183494E-05  0.422E-03    0.32       1.7  T
   6   -332.8932657 -0.241753E-05  0.138E-03    0.32       5.2  T
   7   -332.8932661 -0.339423E-06  0.539E-04    0.32      13.2  T
   8   -332.8932661 -0.417109E-07  0.257E-04    0.32      27.7  T
     SCC iter.                  ...        0 min,  0.317 sec
     gradient                   ...        0 min,  0.137 sec
 * total energy  :  -327.4814846 Eh     change       -0.9799911E-03 Eh
   gradient norm :     0.0148031 Eh/α   predicted    -0.9982315E-03 (   1.86%)
   displ. norm   :     0.8421568 α      lambda       -0.1188956E-02
   maximum displ.:     0.3580911 α      in ANC's #10, #3, #2, ...

........................................................................
.............................. CYCLE   55 ..............................
........................................................................
   1   -332.8893027 -0.332889E+03  0.943E-02    0.32       0.0  T
   2   -332.8893253 -0.225955E-04  0.480E-02    0.32       1.0  T
   3   -332.8892019  0.123416E-03  0.249E-02    0.32       1.0  T
   4   -332.8893458 -0.143869E-03  0.720E-03    0.32       1.0  T
   5   -332.8893476 -0.179079E-05  0.428E-03    0.32       1.7  T
   6   -332.8893502 -0.262197E-05  0.126E-03    0.32       5.6  T
   7   -332.8893505 -0.303700E-06  0.453E-04    0.32      15.7  T
   8   -332.8893505 -0.335515E-07  0.194E-04    0.32      36.7  T
     SCC iter.                  ...        0 min,  0.317 sec
     gradient                   ...        0 min,  0.136 sec
 * total energy  :  -327.4825337 Eh     change       -0.1049167E-02 Eh
   gradient norm :     0.0102882 Eh/α   predicted    -0.1016100E-02 (  -3.15%)
   displ. norm   :     0.8131721 α      lambda       -0.1114944E-02
   maximum displ.:     0.3545634 α      in ANC's #10, #3, #2, ...

........................................................................
.............................. CYCLE   56 ..............................
........................................................................
   1   -332.8897580 -0.332890E+03  0.887E-02    0.32       0.0  T
   2   -332.8897796 -0.216426E-04  0.466E-02    0.32       1.0  T
   3   -332.8895976  0.182056E-03  0.302E-02    0.32       1.0  T
   4   -332.8898148 -0.217230E-03  0.722E-03    0.32       1.0  T
   5   -332.8898181 -0.329165E-05  0.426E-03    0.32       1.7  T
   6   -332.8898203 -0.222622E-05  0.148E-03    0.32       4.8  T
   7   -332.8898207 -0.385370E-06  0.544E-04    0.32      13.1  T
   8   -332.8898207 -0.495135E-07  0.234E-04    0.32      30.4  T
     SCC iter.                  ...        0 min,  0.308 sec
     gradient                   ...        0 min,  0.134 sec
 * total energy  :  -327.4835150 Eh     change       -0.9812666E-03 Eh
   gradient norm :     0.0071073 Eh/α   predicted    -0.9261025E-03 (  -5.62%)
   displ. norm   :     0.8372684 α      lambda       -0.1051386E-02
   maximum displ.:     0.3716881 α      in ANC's #10, #3, #2, ...

........................................................................
.............................. CYCLE   57 ..............................
........................................................................
   1   -332.8900871 -0.332890E+03  0.877E-02    0.32       0.0  T
   2   -332.8901061 -0.189683E-04  0.457E-02    0.32       1.0  T
[...]
   121   6 C    3.945 --   120 C    1.474   122 C    1.101   124 C    1.099
   122   6 C    3.945 --   123 N    2.757   121 C    1.101
   123   7 N    2.965 --   122 C    2.757
   124   6 C    3.945 --   125 N    2.762   121 C    1.099
   125   7 N    2.966 --   124 C    2.762
   126   1 H    0.991 --     1 C    0.948
   127   1 H    0.997 --     6 C    0.963
   128   1 H    0.997 --     9 C    0.960
   129   1 H    0.997 --    17 C    0.962
   130   1 H    0.999 --    18 C    0.971
   131   1 H    0.999 --    19 C    0.971
   132   1 H    0.999 --    20 C    0.971
   133   1 H    0.999 --    21 C    0.971
   134   1 H    0.998 --    22 C    0.978
   135   1 H    0.999 --    22 C    0.974
   136   1 H    0.996 --    23 C    0.962
   137   1 H    0.997 --    28 C    0.961
   138   1 H    0.996 --    29 C    0.965
   139   1 H    0.996 --    32 C    0.982
   140   1 H    0.994 --    32 C    0.973
   141   1 H    0.995 --    32 C    0.978
   142   1 H    0.997 --    33 C    0.964
   143   1 H    0.998 --    34 C    0.967
   144   1 H    0.998 --    36 C    0.964
   145   1 H    0.997 --    37 C    0.967
   146   1 H    0.996 --    40 C    0.982
   147   1 H    0.995 --    40 C    0.978
   148   1 H    0.995 --    40 C    0.979
   149   1 H    0.997 --    41 C    0.964
   150   1 H    0.999 --    42 C    0.966
   151   1 H    0.999 --    49 C    0.966
   152   1 H    0.998 --    50 C    0.965
   153   1 H    0.996 --    53 C    0.982
   154   1 H    0.997 --    53 C    0.982
   155   1 H    0.996 --    53 C    0.979
   156   1 H    0.997 --    54 C    0.964
   157   1 H    0.998 --    55 C    0.964
   158   1 H    0.999 --    57 C    0.967
   159   1 H    0.998 --    58 C    0.965
   160   1 H    0.997 --    61 C    0.984
   161   1 H    0.996 --    61 C    0.975
   162   1 H    0.996 --    61 C    0.980
   163   1 H    0.997 --    62 C    0.968
   164   1 H    0.998 --    63 C    0.967
   165   1 H    0.998 --    70 C    0.967
   166   1 H    0.997 --    71 C    0.968
   167   1 H    0.996 --    74 C    0.979
   168   1 H    0.997 --    74 C    0.983
   169   1 H    0.995 --    74 C    0.977
   170   1 H    0.997 --    75 C    0.964
   171   1 H    0.999 --    76 C    0.966
   172   1 H    0.999 --    78 C    0.963
   173   1 H    0.997 --    79 C    0.962
   174   1 H    0.997 --    82 C    0.983
   175   1 H    0.997 --    82 C    0.983
   176   1 H    0.996 --    82 C    0.980
   177   1 H    0.998 --    83 C    0.966
   178   1 H    0.999 --    84 C    0.964
   179   1 H    0.997 --    91 C    0.966
   180   1 H    0.996 --    92 C    0.966
   181   1 H    0.995 --    95 C    0.975
   182   1 H    0.995 --    95 C    0.977
   183   1 H    0.996 --    95 C    0.982
   184   1 H    0.997 --    96 C    0.964
   185   1 H    0.998 --    97 C    0.967
   186   1 H    0.999 --    99 C    0.966
   187   1 H    0.998 --   100 C    0.965
   188   1 H    0.996 --   103 C    0.982
   189   1 H    0.995 --   103 C    0.978
   190   1 H    0.997 --   103 C    0.980
   191   1 H    0.998 --   104 C    0.967
   192   1 H    0.997 --   105 C    0.964
   193   1 H    0.990 --   110 C    0.937
   194   1 H    0.997 --   115 C    0.967
   195   1 H    0.997 --   116 C    0.970
   196   1 H    0.997 --   117 C    0.970
   197   1 H    0.997 --   118 C    0.962
 ---------------------------------------------------------------------------

Topologies differ in bond orders
Writing corrected topology to xtbtopo.mol

molecular dipole:
                 x           y           z       tot (Debye)
 q only:       -2.825       0.153       2.206
   full:       -3.982       0.571       1.946      11.358
molecular quadrupole (traceless):
                xx          xy          yy          xz          yz          zz
 q only:      -42.622     -24.821      29.733      58.226      30.133      12.888
  q+dip:      -36.608     -20.741      36.640      59.713      32.187      -0.032
   full:      -39.595     -14.478      44.373      62.129      33.337      -4.778

           -------------------------------------------------
          |                Geometry Summary                 |
           -------------------------------------------------

      molecular mass/u    :     1838.5074161
   center of mass at/Å    :        0.2756811       0.0021329      -0.5040112
  moments of inertia/u·Å² :        0.3623360E+05   0.8886302E+05   0.9453494E+05
rotational constants/cm⁻¹ :        0.4652486E-03   0.1897036E-03   0.1783217E-03

 * 184 selected distances

     #   Z          #   Z                                           value/Å
     1   6 C        2   6 C                                       1.3673448
     3   6 C        4   8 O                                       1.2131447
     5   6 C        6   6 C                                       1.3934109
     6   6 C        7   6 C                                       1.3738068
     7   6 C        8   6 C                                       1.4012622
     8   6 C        9   6 C                                       1.3740651
     5   6 C       10   6 C                                       1.4096696
     9   6 C       10   6 C                                       1.3969612
     2   6 C       11   6 C                                       1.4380038
    11   6 C       12   6 C                                       1.3771489
    13   6 C       14   7 N                                       1.1500490
    15   6 C       16   7 N                                       1.1489502
     8   6 C       17   6 C                                       1.5082019
    17   6 C       18   6 C                                       1.5431740
    19   6 C       20   6 C                                       1.3268351
    18   6 C       22   6 C                                       1.5342465
    21   6 C       22   6 C                                       1.5342687
     7   6 C       23   6 C                                       1.5084834
    17   6 C       23   6 C                                       1.5624220
    21   6 C       23   6 C                                       1.5430804
     1   6 C       24   6 C                                       1.4086203
    24   6 C       25   6 C                                       1.4052918
    25   6 C       26   7 N                                       1.3776845
    26   7 N       27   6 C                                       1.4198920
    27   6 C       28   6 C                                       1.3945903
    28   6 C       29   6 C                                       1.3755250
    29   6 C       30   6 C                                       1.3935677
    30   6 C       33   6 C                                       1.3896834
    27   6 C       34   6 C                                       1.3906845
    33   6 C       34   6 C                                       1.3813578
    26   7 N       35   6 C                                       1.3957216
    35   6 C       36   6 C                                       1.3997679
    36   6 C       37   6 C                                       1.3744560
    37   6 C       38   6 C                                       1.3945713
    38   6 C       41   6 C                                       1.3885983
    35   6 C       42   6 C                                       1.3937429
    41   6 C       42   6 C                                       1.3806299
    25   6 C       43   6 C                                       1.4161319
    43   6 C       44  16 S                                       1.7348024
    44  16 S       45   6 C                                       1.7538032
    45   6 C       46   6 C                                       1.3814242
    46   6 C       47   7 N                                       1.3866226
    47   7 N       48   6 C                                       1.3985206
    48   6 C       49   6 C                                       1.3919129
    49   6 C       50   6 C                                       1.3812214
    50   6 C       51   6 C                                       1.3875980
    51   6 C       54   6 C                                       1.3930380
    48   6 C       55   6 C                                       1.3961834
    54   6 C       55   6 C                                       1.3760653
    47   7 N       56   6 C                                       1.4014829
    56   6 C       57   6 C                                       1.3929969
    57   6 C       58   6 C                                       1.3792739
    58   6 C       59   6 C                                       1.3879092
    59   6 C       62   6 C                                       1.3907352
    56   6 C       63   6 C                                       1.3938593
    62   6 C       63   6 C                                       1.3783354
    43   6 C       64   6 C                                       1.3868244
    46   6 C       64   6 C                                       1.4131951
    64   6 C       65  16 S                                       1.7184083
    45   6 C       66   6 C                                       1.4349649
    66   6 C       67   6 C                                       1.3754137
    67   6 C       68   7 N                                       1.4051832
    68   7 N       69   6 C                                       1.4025793
    69   6 C       70   6 C                                       1.3948971
    70   6 C       71   6 C                                       1.3773116
    71   6 C       72   6 C                                       1.3929577
    72   6 C       75   6 C                                       1.3870908
    69   6 C       76   6 C                                       1.3919221
    75   6 C       76   6 C                                       1.3805786
    68   7 N       77   6 C                                       1.3900955
    77   6 C       78   6 C                                       1.3973492
    78   6 C       79   6 C                                       1.3765275
    79   6 C       80   6 C                                       1.3903116
    80   6 C       83   6 C                                       1.3866116
    77   6 C       84   6 C                                       1.3945278
    83   6 C       84   6 C                                       1.3804248
    67   6 C       85   6 C                                       1.4159690
    85   6 C       86  16 S                                       1.7283062
    87   6 C       88   6 C                                       1.3992931
    88   6 C       89   7 N                                       1.3783663
    89   7 N       90   6 C                                       1.4231350
    90   6 C       91   6 C                                       1.3951348
    91   6 C       92   6 C                                       1.3742216
    92   6 C       93   6 C                                       1.3961375
    93   6 C       96   6 C                                       1.3902375
    90   6 C       97   6 C                                       1.3882811
    96   6 C       97   6 C                                       1.3847545
    89   7 N       98   6 C                                       1.3845424
    98   6 C       99   6 C                                       1.3952993
    99   6 C      100   6 C                                       1.3781296
   100   6 C      101   6 C                                       1.3898717
   101   6 C      104   6 C                                       1.3932933
    98   6 C      105   6 C                                       1.3979847
   104   6 C      105   6 C                                       1.3761456
    85   6 C      106   6 C                                       1.3863264
    88   6 C      106   6 C                                       1.4144536
    66   6 C      107  16 S                                       1.7548780 (max)
   106   6 C      107  16 S                                       1.7269986
    87   6 C      108   6 C                                       1.3696064
   108   6 C      109   6 C                                       1.2211316
   109   6 C      110   6 C                                       1.3740981
   110   6 C      111   6 C                                       1.3709474
   112   6 C      113   8 O                                       1.2151454
   114   6 C      115   6 C                                       1.3806020
   115   6 C      116   6 C                                       1.3875269
   116   6 C      117   6 C                                       1.3874719
   117   6 C      118   6 C                                       1.3880100
   114   6 C      119   6 C                                       1.4062016
   118   6 C      119   6 C                                       1.3855686
   120   6 C      121   6 C                                       1.3717573
   122   6 C      123   7 N                                       1.1488606
   124   6 C      125   7 N                                       1.1481740
     1   6 C      126   1 H                                       1.0862699
     6   6 C      127   1 H                                       1.0792994
     9   6 C      128   1 H                                       1.0777260
    17   6 C      129   1 H                                       1.0881766
    18   6 C      130   1 H                                       1.0865736
    19   6 C      131   1 H                                       1.0742051 (min)
    20   6 C      132   1 H                                       1.0742484
    21   6 C      133   1 H                                       1.0868007
    22   6 C      134   1 H                                       1.0888006
    22   6 C      135   1 H                                       1.0884416
    23   6 C      136   1 H                                       1.0882368
    28   6 C      137   1 H                                       1.0782269
    29   6 C      138   1 H                                       1.0785963
    32   6 C      139   1 H                                       1.0856426
    32   6 C      140   1 H                                       1.0864282
    32   6 C      141   1 H                                       1.0854825
    33   6 C      142   1 H                                       1.0778741
    34   6 C      143   1 H                                       1.0802360
    36   6 C      144   1 H                                       1.0795351
    37   6 C      145   1 H                                       1.0787169
    40   6 C      146   1 H                                       1.0862146
    40   6 C      147   1 H                                       1.0854986
    40   6 C      148   1 H                                       1.0857769
    41   6 C      149   1 H                                       1.0775772
    42   6 C      150   1 H                                       1.0792308
    49   6 C      151   1 H                                       1.0798106
    50   6 C      152   1 H                                       1.0780322
    53   6 C      153   1 H                                       1.0862485
    53   6 C      154   1 H                                       1.0860228
    53   6 C      155   1 H                                       1.0855904
    54   6 C      156   1 H                                       1.0791105
    55   6 C      157   1 H                                       1.0798406
    57   6 C      158   1 H                                       1.0799862
    58   6 C      159   1 H                                       1.0779876
    61   6 C      160   1 H                                       1.0853054
    61   6 C      161   1 H                                       1.0861416
    61   6 C      162   1 H                                       1.0853850
    62   6 C      163   1 H                                       1.0792729
    63   6 C      164   1 H                                       1.0797022
    70   6 C      165   1 H                                       1.0797275
    71   6 C      166   1 H                                       1.0796530
    74   6 C      167   1 H                                       1.0856166
    74   6 C      168   1 H                                       1.0857489
    74   6 C      169   1 H                                       1.0863852
    75   6 C      170   1 H                                       1.0776027
    76   6 C      171   1 H                                       1.0792748
    78   6 C      172   1 H                                       1.0794887
    79   6 C      173   1 H                                       1.0776467
    82   6 C      174   1 H                                       1.0858791
    82   6 C      175   1 H                                       1.0864985
    82   6 C      176   1 H                                       1.0855270
    83   6 C      177   1 H                                       1.0785765
    84   6 C      178   1 H                                       1.0791456
    91   6 C      179   1 H                                       1.0797377
    92   6 C      180   1 H                                       1.0791752
    95   6 C      181   1 H                                       1.0847468
    95   6 C      182   1 H                                       1.0856192
    95   6 C      183   1 H                                       1.0861676
    96   6 C      184   1 H                                       1.0779888
    97   6 C      185   1 H                                       1.0798755
    99   6 C      186   1 H                                       1.0787588
   100   6 C      187   1 H                                       1.0782450
   103   6 C      188   1 H                                       1.0860603
   103   6 C      189   1 H                                       1.0857899
   103   6 C      190   1 H                                       1.0863494
   104   6 C      191   1 H                                       1.0793459
   105   6 C      192   1 H                                       1.0784745
   110   6 C      193   1 H                                       1.0820387
   115   6 C      194   1 H                                       1.0792674
   116   6 C      195   1 H                                       1.0798897
   117   6 C      196   1 H                                       1.0796751
   118   6 C      197   1 H                                       1.0779113

 * 5 distinct bonds (by element types)

   Z      Z             #   av. dist./Å        max./Å        min./Å
   1 H    6 C          72     1.0820019     1.0888006     1.0742051
   6 C    6 C          88     1.3987446     1.5624220     1.2211316
   6 C    7 N          16     1.3349912     1.4231350     1.1481740
   6 C    8 O           2     1.2141450     1.2151454     1.2131447
   6 C   16 S           6     1.7361994     1.7548780     1.7184083


optimized geometry written to: xtbopt.mol


           -------------------------------------------------
          | TOTAL ENERGY             -327.553735920100 Eh   |
          | GRADIENT NORM               0.000748485492 Eh/α |
          | HOMO-LUMO GAP               0.666388741492 eV   |
           -------------------------------------------------

------------------------------------------------------------------------
 * finished run on 2022/02/06 at 11:07:51.757     
------------------------------------------------------------------------
 total:
 * wall-time:     0 d,  0 h,  2 min, 46.401 sec
 *  cpu-time:     0 d,  0 h, 22 min, 10.707 sec
 * ratio c/w:     7.997 speedup
 SCF:
 * wall-time:     0 d,  0 h,  0 min,  0.761 sec
 *  cpu-time:     0 d,  0 h,  0 min,  6.054 sec
 * ratio c/w:     7.957 speedup
 ANC optimizer:
 * wall-time:     0 d,  0 h,  2 min, 45.537 sec
 *  cpu-time:     0 d,  0 h, 22 min,  3.915 sec
 * ratio c/w:     7.998 speedup

