      -----------------------------------------------------------      
     |                   =====================                   |     
     |                           x T B                           |     
     |                   =====================                   |     
     |                         S. Grimme                         |     
     |          Mulliken Center for Theoretical Chemistry        |     
     |                    University of Bonn                     |     
      -----------------------------------------------------------      

   * xtb version 6.4.1 (unknown) compiled by 'oda6@login1.crc.pitt.edu' on 2021-06-25

   xtb is free software: you can redistribute it and/or modify it under
   the terms of the GNU Lesser General Public License as published by
   the Free Software Foundation, either version 3 of the License, or
   (at your option) any later version.
   
   xtb is distributed in the hope that it will be useful,
   but WITHOUT ANY WARRANTY; without even the implied warranty of
   MERCHANTABILITY or FITNESS FOR A PARTICULAR PURPOSE.  See the
   GNU Lesser General Public License for more details.
   
   Cite this work as:
   * C. Bannwarth, E. Caldeweyher, S. Ehlert, A. Hansen, P. Pracht,
     J. Seibert, S. Spicher, S. Grimme, WIREs Comput. Mol. Sci., 2020, 11,
     e01493. DOI: 10.1002/wcms.1493
   
   for GFN2-xTB:
   * C. Bannwarth, S. Ehlert and S. Grimme., J. Chem. Theory Comput., 2019,
     15, 1652-1671. DOI: 10.1021/acs.jctc.8b01176
   for GFN1-xTB:
   * S. Grimme, C. Bannwarth, P. Shushkov, J. Chem. Theory Comput., 2017,
     13, 1989-2009. DOI: 10.1021/acs.jctc.7b00118
   for GFN0-xTB:
   * P. Pracht, E. Caldeweyher, S. Ehlert, S. Grimme, ChemRxiv, 2019, preprint.
     DOI: 10.26434/chemrxiv.8326202.v1
   for GFN-FF:
   * S. Spicher and S. Grimme, Angew. Chem. Int. Ed., 2020, 59, 15665-15673.
     DOI: 10.1002/anie.202004239
   
   for DFT-D4:
   * E. Caldeweyher, C. Bannwarth and S. Grimme, J. Chem. Phys., 2017,
     147, 034112. DOI: 10.1063/1.4993215
   * E. Caldeweyher, S. Ehlert, A. Hansen, H. Neugebauer, S. Spicher,
     C. Bannwarth and S. Grimme, J. Chem. Phys., 2019, 150, 154122.
     DOI: 10.1063/1.5090222
   * E. Caldeweyher, J.-M. Mewes, S. Ehlert and S. Grimme, Phys. Chem. Chem. Phys.
     2020, 22, 8499-8512. DOI: 10.1039/D0CP00502A
   
   for sTDA-xTB:
   * S. Grimme and C. Bannwarth, J. Chem. Phys., 2016, 145, 054103.
     DOI: 10.1063/1.4959605
   
   in the mass-spec context:
   * V. Asgeirsson, C. Bauer and S. Grimme, Chem. Sci., 2017, 8, 4879.
     DOI: 10.1039/c7sc00601b
   * J. Koopman and S. Grimme, ACS Omega 2019, 4, 12, 15120-15133.
     DOI: 10.1021/acsomega.9b02011
   
   for metadynamics refer to:
   * S. Grimme, J. Chem. Theory Comput., 2019, 155, 2847-2862
     DOI: 10.1021/acs.jctc.9b00143
   
   for SPH calculations refer to:
   * S. Spicher and S. Grimme, J. Chem. Theory Comput., 2021, 17, 1701-1714
     DOI: 10.1021/acs.jctc.0c01306
   
   with help from (in alphabetical order)
   P. Atkinson, C. Bannwarth, F. Bohle, G. Brandenburg, E. Caldeweyher
   M. Checinski, S. Dohm, S. Ehlert, S. Ehrlich, I. Gerasimov, J. Koopman
   C. Lavigne, S. Lehtola, F. März, M. Müller, F. Musil, H. Neugebauer
   J. Pisarek, C. Plett, P. Pracht, J. Seibert, P. Shushkov, S. Spicher
   M. Stahn, M. Steiner, T. Strunk, J. Stückrath, T. Rose, and J. Unsleber
   
 * started run on 2022/02/09 at 08:38:27.032     

           -------------------------------------------------
          |                Calculation Setup                |
           -------------------------------------------------

          program call               : /ihome/ghutchison/oda6/xtb/xtb-641/bin/xtb ../../FF_optimized/39_100_135_130_39.mol -opt
          hostname                   : smp-n26
          coordinate file            : ../../FF_optimized/39_100_135_130_39.mol
          omp threads                :                     8
          number of atoms            :                   208
          number of electrons        :                   644
          charge                     :                     0
          spin                       :                   0.0
          first test random number   :      0.25210639016193

   ID    Z sym.   atoms
    1    6 C      1-3, 5-13, 15, 17-31, 33, 34, 36-42, 44, 45, 47, 49, 50,
                  52, 53, 55-57, 59-62, 64-66, 68, 69, 71-74, 76-82, 84-87,
                  89, 90, 92-95, 97-103, 105-108, 110-112, 114-122, 124,
                  126-132
    2    8 O      4, 113
    3    7 N      14, 16, 54, 67, 70, 91, 123, 125
    4   16 S      32, 43, 48, 51, 58, 63, 75, 83, 88, 96, 104, 109
    5   34 Se     35, 46
    6    1 H      133-208

molecular fragmentation (1/2 indicates fragments):
111111111111111111111111111111111111111111111111111111111111111111111111
111111111111111111111111111111111111111111111111111111111111111111111111
1111111211111111111111111111111111111111111111111111111111111111
# atoms in fragment 1/2:   207     1
 fragment masses (1/2) :     2059.50        1.01
CMA distance (Bohr)    :  11.456
constraining FC (au)   :  0.0500
########################################################################
[WARNING] Please study the warnings concerning your input carefully
-1- prog_main_parseArguments: the use of '-opt' is discouraged, please use '--opt' next time
########################################################################

           -------------------------------------------------
          |                 G F N 2 - x T B                 |
           -------------------------------------------------

        Reference                      10.1021/acs.jctc.8b01176
      * Hamiltonian:
        H0-scaling (s, p, d)           1.850000    2.230000    2.230000
        zeta-weighting                 0.500000
      * Dispersion:
        s8                             2.700000
        a1                             0.520000
        a2                             5.000000
        s9                             5.000000
      * Repulsion:
        kExp                           1.500000    1.000000
        rExp                           1.000000
      * Coulomb:
        alpha                          2.000000
        third order                    shell-resolved
        anisotropic                    true
        a3                             3.000000
        a5                             4.000000
        cn-shift                       1.200000
        cn-exp                         4.000000
        max-rad                        5.000000


          ...................................................
          :                      SETUP                      :
          :.................................................:
          :  # basis functions                 688          :
          :  # atomic orbitals                 674          :
          :  # shells                          354          :
          :  # electrons                       644          :
          :  max. iterations                   250          :
          :  Hamiltonian                  GFN2-xTB          :
          :  restarted?                      false          :
          :  GBSA solvation                  false          :
          :  PC potential                    false          :
          :  electronic temp.          300.0000000     K    :
          :  accuracy                    1.0000000          :
          :  -> integral cutoff          0.2500000E+02      :
          :  -> integral neglect         0.1000000E-07      :
          :  -> SCF convergence          0.1000000E-05 Eh   :
          :  -> wf. convergence          0.1000000E-03 e    :
          :  Broyden damping             0.4000000          :
          ...................................................

 iter      E             dE          RMSdq      gap      omega  full diag
   1   -350.9257045 -0.350926E+03  0.502E+00    0.78       0.0  T
   2   -349.9116521  0.101405E+01  0.335E+00    0.08       1.0  T
   3   -350.4760595 -0.564407E+00  0.261E+00    0.65       1.0  T
   4   -350.5457914 -0.697319E-01  0.169E+00    0.12       1.0  T
   5   -350.9856318 -0.439840E+00  0.135E+00    0.04       1.0  T
   6   -351.3122701 -0.326638E+00  0.976E-01    0.50       1.0  T
   7   -351.4097952 -0.975251E-01  0.600E-01    0.31       1.0  T
   8   -351.4778936 -0.680984E-01  0.358E-01    0.33       1.0  T
   9   -351.4845211 -0.662750E-02  0.250E-01    0.35       1.0  T
  10   -351.4877667 -0.324559E-02  0.166E-01    0.38       1.0  T
  11   -351.4899451 -0.217845E-02  0.617E-02    0.38       1.0  T
  12   -351.4899608 -0.157073E-04  0.577E-02    0.38       1.0  T
  13   -351.4905923 -0.631493E-03  0.202E-02    0.40       1.0  T
  14   -351.4906148 -0.224454E-04  0.194E-02    0.41       1.0  T
  15   -351.4906894 -0.746552E-04  0.639E-03    0.41       1.1  T
  16   -351.4906954 -0.594273E-05  0.429E-03    0.42       1.6  T
  17   -351.4906966 -0.118028E-05  0.283E-03    0.42       2.5  T
  18   -351.4906974 -0.814583E-06  0.144E-03    0.42       4.8  T
  19   -351.4906975 -0.971716E-07  0.977E-04    0.43       7.1  T
  20   -351.4906976 -0.140348E-06  0.508E-04    0.43      13.7  T

   *** convergence criteria satisfied after 20 iterations ***

         #    Occupation            Energy/Eh            Energy/eV
      -------------------------------------------------------------
         1        2.0000           -0.7663738             -20.8541
       ...           ...                  ...                  ...
       316        2.0000           -0.3711843             -10.1004
       317        2.0000           -0.3700970             -10.0709
       318        2.0000           -0.3682185             -10.0197
       319        2.0000           -0.3680389             -10.0148
       320        2.0000           -0.3639654              -9.9040
       321        2.0000           -0.3610668              -9.8251
       322        1.9995           -0.3585097              -9.7555 (HOMO)
       323        0.0005           -0.3428788              -9.3302 (LUMO)
       324        0.0000           -0.3399094              -9.2494
       325                         -0.3253768              -8.8540
       326                         -0.3217424              -8.7551
       327                         -0.3134599              -8.5297
       ...                                ...                  ...
       674                          1.5604891              42.4631
      -------------------------------------------------------------
                  HL-Gap            0.0156309 Eh            0.4253 eV
             Fermi-level           -0.3506821 Eh           -9.5425 eV

 SCC (total)                   0 d,  0 h,  0 min,  1.049 sec
 SCC setup                      ...        0 min,  0.003 sec (  0.284%)
 Dispersion                     ...        0 min,  0.009 sec (  0.886%)
 classical contributions        ...        0 min,  0.000 sec (  0.039%)
 integral evaluation            ...        0 min,  0.042 sec (  4.028%)
 iterations                     ...        0 min,  0.838 sec ( 79.876%)
 molecular gradient             ...        0 min,  0.151 sec ( 14.417%)
 printout                       ...        0 min,  0.005 sec (  0.462%)

         :::::::::::::::::::::::::::::::::::::::::::::::::::::
         ::                     SUMMARY                     ::
         :::::::::::::::::::::::::::::::::::::::::::::::::::::
         :: total energy            -345.614537255932 Eh    ::
         :: gradient norm              1.264540383879 Eh/a0 ::
         :: HOMO-LUMO gap              0.425337308528 eV    ::
         ::.................................................::
         :: SCC energy              -351.490697605047 Eh    ::
         :: -> isotropic ES            0.156784641389 Eh    ::
         :: -> anisotropic ES          0.018452960687 Eh    ::
         :: -> anisotropic XC          0.230790033110 Eh    ::
         :: -> dispersion             -0.361090339332 Eh    ::
         :: repulsion energy           5.859517133518 Eh    ::
         :: add. restraining           0.000000000000 Eh    ::
         :: total charge               0.000000000980 e     ::
         :::::::::::::::::::::::::::::::::::::::::::::::::::::

      ----------------------------------------------------------- 
     |                   =====================                   |
     |                        A N C O P T                        |
     |                   =====================                   |
     |               Approximate Normal Coordinate               |
     |                Rational Function Optimizer                |
      ----------------------------------------------------------- 

          ...................................................
          :                      SETUP                      :
          :.................................................:
          :   optimization level            normal          :
          :   max. optcycles                   624          :
          :   ANC micro-cycles                  20          :
          :   degrees of freedom               618          :
          :.................................................:
          :   RF solver                   davidson          :
          :   write xtbopt.log                true          :
          :   linear?                        false          :
          :   energy convergence         0.5000000E-05 Eh   :
          :   grad. convergence          0.1000000E-02 Eh/α :
          :   maximium RF displ.         1.0000000          :
          :   Hlow (freq-cutoff)         0.1000000E-01      :
          :   Hmax (freq-cutoff)         5.0000000          :
          :   S6 in model hess.         20.0000000          :
          ...................................................

generating ANC from model Hessian ...
Using Lindh-Hessian (1995)
 Shifting diagonal of input Hessian by   1.003150719613766E-002
 Lowest  eigenvalues of input Hessian
    0.010000    0.010029    0.000000    0.000000    0.000000    0.000000
    0.000000    0.000000    0.010043    0.010051    0.010065    0.010075
    0.010087    0.010096    0.010104    0.010114    0.010121    0.010141
 Highest eigenvalues
    2.389193    2.420952    2.520674    2.546012    2.710052    2.972047
 

........................................................................
.............................. CYCLE    1 ..............................
........................................................................
   1   -351.4906976 -0.351491E+03  0.311E-04    0.43       0.0  T
   2   -351.4906976  0.163114E-07  0.356E-04    0.42      19.5  T
   3   -351.4906976 -0.232366E-07  0.205E-04    0.42      33.9  T
     SCC iter.                  ...        0 min,  0.129 sec
     gradient                   ...        0 min,  0.148 sec
 * total energy  :  -345.6145373 Eh     change       -0.3228018E-07 Eh
   gradient norm :     1.2645413 Eh/α   predicted     0.0000000E+00 (-100.00%)
   displ. norm   :     0.5711297 α      lambda       -0.6605213E+00
   maximum displ.:     0.1444819 α      in ANC's #585, #617, #608, ...

........................................................................
.............................. CYCLE    2 ..............................
........................................................................
   1   -351.6580959 -0.351658E+03  0.434E-01    0.42       0.0  T
   2   -351.6503344  0.776142E-02  0.353E-01    0.46       1.0  T
   3   -351.6611890 -0.108546E-01  0.245E-01    0.36       1.0  T
   4   -351.6700495 -0.886050E-02  0.135E-01    0.47       1.0  T
   5   -351.6730632 -0.301370E-02  0.339E-02    0.44       1.0  T
   6   -351.6731455 -0.823066E-04  0.204E-02    0.43       1.0  T
   7   -351.6731965 -0.510499E-04  0.920E-03    0.43       1.0  T
   8   -351.6732079 -0.113976E-04  0.429E-03    0.43       1.6  T
   9   -351.6732081 -0.114732E-06  0.311E-03    0.43       2.2  T
  10   -351.6732092 -0.115175E-05  0.178E-03    0.43       3.9  T
  11   -351.6732097 -0.481456E-06  0.795E-04    0.43       8.7  T
  12   -351.6732098 -0.672899E-07  0.390E-04    0.43      17.8  T
     SCC iter.                  ...        0 min,  0.503 sec
     gradient                   ...        0 min,  0.147 sec
 * total energy  :  -346.1061405 Eh     change       -0.4916032E+00 Eh
   gradient norm :     0.6323386 Eh/α   predicted    -0.4379881E+00 ( -10.91%)
   displ. norm   :     0.6123519 α      lambda       -0.3449183E+00
   maximum displ.:     0.1179874 α      in ANC's #368, #566, #608, ...

........................................................................
.............................. CYCLE    3 ..............................
........................................................................
   1   -351.8142314 -0.351814E+03  0.485E-01    0.38       0.0  T
   2   -351.8130064  0.122508E-02  0.358E-01    0.51       1.0  T
   3   -351.8215172 -0.851081E-02  0.260E-01    0.34       1.0  T
   4   -351.8311067 -0.958955E-02  0.140E-01    0.45       1.0  T
   5   -351.8336632 -0.255649E-02  0.459E-02    0.46       1.0  T
   6   -351.8340439 -0.380662E-03  0.256E-02    0.42       1.0  T
   7   -351.8341711 -0.127224E-03  0.124E-02    0.43       1.0  T
   8   -351.8341957 -0.245706E-04  0.549E-03    0.43       1.3  T
   9   -351.8341978 -0.215316E-05  0.336E-03    0.43       2.1  T
  10   -351.8341986 -0.763559E-06  0.192E-03    0.43       3.6  T
  11   -351.8341989 -0.286441E-06  0.915E-04    0.43       7.6  T
  12   -351.8341990 -0.968192E-07  0.430E-04    0.43      16.1  T
     SCC iter.                  ...        0 min,  0.536 sec
     gradient                   ...        0 min,  0.148 sec
 * total energy  :  -346.3559060 Eh     change       -0.2497655E+00 Eh
   gradient norm :     0.2880554 Eh/α   predicted    -0.2371270E+00 (  -5.06%)
   displ. norm   :     0.6373146 α      lambda       -0.1524654E+00
   maximum displ.:     0.1190747 α      in ANC's #368, #342, #118, ...

........................................................................
.............................. CYCLE    4 ..............................
........................................................................
   1   -351.8344662 -0.351834E+03  0.413E-01    0.28       0.0  T
   2   -351.8352828 -0.816668E-03  0.265E-01    0.49       1.0  T
   3   -351.8338503  0.143256E-02  0.222E-01    0.26       1.0  T
   4   -351.8419511 -0.810086E-02  0.996E-02    0.45       1.0  T
   5   -351.8434246 -0.147343E-02  0.409E-02    0.39       1.0  T
   6   -351.8436673 -0.242756E-03  0.196E-02    0.38       1.0  T
   7   -351.8437076 -0.402308E-04  0.118E-02    0.38       1.0  T
   8   -351.8437374 -0.298520E-04  0.527E-03    0.37       1.3  T
   9   -351.8437407 -0.332802E-05  0.313E-03    0.37       2.2  T
  10   -351.8437417 -0.946386E-06  0.179E-03    0.37       3.9  T
  11   -351.8437420 -0.337582E-06  0.800E-04    0.37       8.7  T
  12   -351.8437421 -0.582402E-07  0.395E-04    0.37      17.6  T
     SCC iter.                  ...        0 min,  0.529 sec
     gradient                   ...        0 min,  0.147 sec
 * total energy  :  -346.4626512 Eh     change       -0.1067452E+00 Eh
   gradient norm :     0.1226567 Eh/α   predicted    -0.1071967E+00 (   0.42%)
   displ. norm   :     0.6873824 α      lambda       -0.6346885E-01
   maximum displ.:     0.1531515 α      in ANC's #99, #118, #108, ...

........................................................................
.............................. CYCLE    5 ..............................
........................................................................
   1   -351.8714679 -0.351871E+03  0.258E-01    0.32       0.0  T
   2   -351.8715180 -0.500844E-04  0.153E-01    0.40       1.0  T
   3   -351.8678850  0.363305E-02  0.131E-01    0.29       1.0  T
   4   -351.8717628 -0.387782E-02  0.406E-02    0.41       1.0  T
   5   -351.8722269 -0.464083E-03  0.203E-02    0.37       1.0  T
   6   -351.8722780 -0.511217E-04  0.139E-02    0.36       1.0  T
   7   -351.8723209 -0.428632E-04  0.583E-03    0.37       1.2  T
   8   -351.8723252 -0.434360E-05  0.294E-03    0.37       2.4  T
   9   -351.8723257 -0.474047E-06  0.152E-03    0.37       4.6  T
  10   -351.8723258 -0.132101E-06  0.860E-04    0.37       8.1  T
  11   -351.8723259 -0.653428E-07  0.366E-04    0.37      19.0  T
     SCC iter.                  ...        0 min,  0.469 sec
     gradient                   ...        0 min,  0.148 sec
 * total energy  :  -346.5090811 Eh     change       -0.4642993E-01 Eh
   gradient norm :     0.0809029 Eh/α   predicted    -0.4672882E-01 (   0.64%)
   displ. norm   :     0.7279951 α      lambda       -0.3833036E-01
   maximum displ.:     0.1786407 α      in ANC's #99, #108, #118, ...

........................................................................
.............................. CYCLE    6 ..............................
........................................................................
   1   -351.8842411 -0.351884E+03  0.198E-01    0.41       0.0  T
   2   -351.8842082  0.329210E-04  0.118E-01    0.42       1.0  T
   3   -351.8813041  0.290410E-02  0.118E-01    0.38       1.0  T
   4   -351.8843312 -0.302714E-02  0.297E-02    0.40       1.0  T
   5   -351.8845234 -0.192158E-03  0.150E-02    0.41       1.0  T
   6   -351.8845681 -0.447391E-04  0.667E-03    0.40       1.0  T
   7   -351.8845766 -0.850326E-05  0.295E-03    0.40       2.4  T
   8   -351.8845778 -0.120268E-05  0.169E-03    0.40       4.1  T
   9   -351.8845780 -0.206146E-06  0.100E-03    0.40       6.9  T
  10   -351.8845781 -0.793203E-07  0.445E-04    0.40      15.6  T
  11   -351.8845781 -0.160125E-07  0.254E-04    0.40      27.2  T
     SCC iter.                  ...        0 min,  0.466 sec
     gradient                   ...        0 min,  0.154 sec
 * total energy  :  -346.5391738 Eh     change       -0.3009273E-01 Eh
   gradient norm :     0.0552782 Eh/α   predicted    -0.2932228E-01 (  -2.56%)
   displ. norm   :     0.7562799 α      lambda       -0.2673032E-01
   maximum displ.:     0.2062462 α      in ANC's #56, #99, #108, ...

........................................................................
.............................. CYCLE    7 ..............................
........................................................................
   1   -351.9312599 -0.351931E+03  0.195E-01    0.41       0.0  T
   2   -351.9312969 -0.369009E-04  0.116E-01    0.44       1.0  T
   3   -351.9297523  0.154460E-02  0.876E-02    0.38       1.0  T
   4   -351.9315311 -0.177886E-02  0.151E-02    0.43       1.0  T
   5   -351.9315603 -0.291968E-04  0.968E-03    0.42       1.0  T
   6   -351.9315740 -0.136792E-04  0.712E-03    0.42       1.0  T
   7   -351.9315872 -0.131898E-04  0.218E-03    0.42       3.2  T
   8   -351.9315877 -0.481305E-06  0.129E-03    0.42       5.4  T
   9   -351.9315878 -0.928839E-07  0.817E-04    0.42       8.5  T
  10   -351.9315878 -0.367461E-07  0.431E-04    0.42      16.1  T
     SCC iter.                  ...        0 min,  0.421 sec
     gradient                   ...        0 min,  0.147 sec
 * total energy  :  -346.5608509 Eh     change       -0.2167712E-01 Eh
   gradient norm :     0.0448708 Eh/α   predicted    -0.2100950E-01 (  -3.08%)
   displ. norm   :     0.7517022 α      lambda       -0.1968502E-01
   maximum displ.:     0.2187745 α      in ANC's #56, #94, #99, ...

........................................................................
.............................. CYCLE    8 ..............................
........................................................................
   1   -351.9763989 -0.351976E+03  0.169E-01    0.47       0.0  T
   2   -351.9762729  0.125979E-03  0.103E-01    0.45       1.0  T
   3   -351.9729963  0.327670E-02  0.107E-01    0.47       1.0  T
   4   -351.9765150 -0.351872E-02  0.233E-02    0.45       1.0  T
   5   -351.9766474 -0.132396E-03  0.803E-03    0.45       1.0  T
   6   -351.9766539 -0.658634E-05  0.431E-03    0.45       1.6  T
   7   -351.9766564 -0.243048E-05  0.219E-03    0.45       3.2  T
   8   -351.9766567 -0.360793E-06  0.133E-03    0.45       5.2  T
   9   -351.9766568 -0.514237E-07  0.835E-04    0.45       8.3  T
  10   -351.9766568 -0.505690E-07  0.354E-04    0.45      19.6  T
     SCC iter.                  ...        0 min,  0.412 sec
     gradient                   ...        0 min,  0.147 sec
 * total energy  :  -346.5768473 Eh     change       -0.1599636E-01 Eh
   gradient norm :     0.0373448 Eh/α   predicted    -0.1540408E-01 (  -3.70%)
   displ. norm   :     0.7672242 α      lambda       -0.1494207E-01
   maximum displ.:     0.2806452 α      in ANC's #56, #94, #66, ...

........................................................................
.............................. CYCLE    9 ..............................
........................................................................
   1   -352.0039967 -0.352004E+03  0.171E-01    0.46       0.0  T
   2   -352.0040587 -0.619836E-04  0.101E-01    0.47       1.0  T
   3   -352.0030664  0.992321E-03  0.733E-02    0.45       1.0  T
   4   -352.0042292 -0.116282E-02  0.118E-02    0.46       1.0  T
   5   -352.0042459 -0.166553E-04  0.730E-03    0.46       1.0  T
   6   -352.0042512 -0.537225E-05  0.398E-03    0.46       1.7  T
   7   -352.0042539 -0.269397E-05  0.249E-03    0.46       2.8  T
   8   -352.0042552 -0.129196E-05  0.115E-03    0.46       6.0  T
   9   -352.0042553 -0.617516E-07  0.739E-04    0.46       9.4  T
  10   -352.0042553 -0.300146E-07  0.361E-04    0.46      19.2  T
     SCC iter.                  ...        0 min,  0.402 sec
     gradient                   ...        0 min,  0.147 sec
 * total energy  :  -346.5886499 Eh     change       -0.1180264E-01 Eh
   gradient norm :     0.0340575 Eh/α   predicted    -0.1186873E-01 (   0.56%)
   displ. norm   :     0.7985450 α      lambda       -0.1267644E-01
   maximum displ.:     0.3128110 α      in ANC's #56, #99, #94, ...

........................................................................
.............................. CYCLE   10 ..............................
........................................................................
   1   -352.0209026 -0.352021E+03  0.182E-01    0.53       0.0  T
   2   -352.0207008  0.201801E-03  0.112E-01    0.49       1.0  T
   3   -352.0171929  0.350796E-02  0.113E-01    0.53       1.0  T
   4   -352.0212365 -0.404365E-02  0.215E-02    0.50       1.0  T
   5   -352.0213219 -0.853495E-04  0.757E-03    0.50       1.0  T
   6   -352.0213271 -0.521315E-05  0.418E-03    0.50       1.7  T
   7   -352.0213296 -0.257324E-05  0.186E-03    0.50       3.7  T
   8   -352.0213300 -0.310010E-06  0.103E-03    0.50       6.8  T
   9   -352.0213300 -0.668462E-07  0.611E-04    0.50      11.3  T
  10   -352.0213300 -0.172503E-07  0.331E-04    0.50      20.9  T
     SCC iter.                  ...        0 min,  0.428 sec
     gradient                   ...        0 min,  0.148 sec
 * total energy  :  -346.5972827 Eh     change       -0.8632733E-02 Eh
   gradient norm :     0.0466351 Eh/α   predicted    -0.1037995E-01 (  20.24%)
   displ. norm   :     0.7152083 α      lambda       -0.1040656E-01
   maximum displ.:     0.3079847 α      in ANC's #56, #44, #65, ...

........................................................................
.............................. CYCLE   11 ..............................
........................................................................
   1   -352.0381276 -0.352038E+03  0.140E-01    0.52       0.0  T
   2   -352.0381216  0.604539E-05  0.821E-02    0.52       1.0  T
   3   -352.0368388  0.128283E-02  0.689E-02    0.52       1.0  T
   4   -352.0382541 -0.141533E-02  0.126E-02    0.51       1.0  T
   5   -352.0382844 -0.302990E-04  0.646E-03    0.52       1.1  T
   6   -352.0382909 -0.654516E-05  0.291E-03    0.51       2.4  T
   7   -352.0382925 -0.158440E-05  0.112E-03    0.52       6.2  T
   8   -352.0382926 -0.118360E-06  0.628E-04    0.52      11.0  T
   9   -352.0382927 -0.247929E-07  0.379E-04    0.52      18.3  T
     SCC iter.                  ...        0 min,  0.371 sec
     gradient                   ...        0 min,  0.148 sec
 * total energy  :  -346.6051801 Eh     change       -0.7897451E-02 Eh
   gradient norm :     0.0336690 Eh/α   predicted    -0.7864881E-02 (  -0.41%)
   displ. norm   :     0.7814332 α      lambda       -0.9042808E-02
   maximum displ.:     0.3525693 α      in ANC's #56, #65, #44, ...

........................................................................
.............................. CYCLE   12 ..............................
........................................................................
   1   -352.0381665 -0.352038E+03  0.159E-01    0.52       0.0  T
   2   -352.0382258 -0.592675E-04  0.929E-02    0.53       1.0  T
   3   -352.0374302  0.795620E-03  0.596E-02    0.50       1.0  T
   4   -352.0383285 -0.898347E-03  0.867E-03    0.52       1.0  T
   5   -352.0383382 -0.971172E-05  0.523E-03    0.52       1.3  T
   6   -352.0383421 -0.386173E-05  0.202E-03    0.52       3.4  T
   7   -352.0383425 -0.430200E-06  0.950E-04    0.52       7.3  T
   8   -352.0383426 -0.951163E-07  0.454E-04    0.52      15.3  T
     SCC iter.                  ...        0 min,  0.331 sec
     gradient                   ...        0 min,  0.147 sec
 * total energy  :  -346.6118343 Eh     change       -0.6654175E-02 Eh
   gradient norm :     0.0536338 Eh/α   predicted    -0.7282335E-02 (   9.44%)
   displ. norm   :     0.7677745 α      lambda       -0.8232983E-02
   maximum displ.:     0.3410331 α      in ANC's #56, #65, #44, ...

........................................................................
.............................. CYCLE   13 ..............................
........................................................................
   1   -352.0388725 -0.352039E+03  0.172E-01    0.55       0.0  T
   2   -352.0389007 -0.281729E-04  0.993E-02    0.54       1.0  T
   3   -352.0371305  0.177023E-02  0.785E-02    0.55       1.0  T
   4   -352.0390561 -0.192562E-02  0.106E-02    0.54       1.0  T
   5   -352.0390704 -0.142906E-04  0.656E-03    0.54       1.1  T
   6   -352.0390764 -0.601381E-05  0.264E-03    0.54       2.6  T
   7   -352.0390773 -0.920720E-06  0.127E-03    0.54       5.5  T
   8   -352.0390775 -0.213040E-06  0.609E-04    0.54      11.4  T
   9   -352.0390776 -0.274288E-07  0.343E-04    0.54      20.2  T
     SCC iter.                  ...        0 min,  0.374 sec
     gradient                   ...        0 min,  0.148 sec
 * total energy  :  -346.6175349 Eh     change       -0.5700612E-02 Eh
   gradient norm :     0.0495602 Eh/α   predicted    -0.6543070E-02 (  14.78%)
   displ. norm   :     0.7142976 α      lambda       -0.8432442E-02
   maximum displ.:     0.3036293 α      in ANC's #56, #44, #65, ...

........................................................................
.............................. CYCLE   14 ..............................
........................................................................
   1   -352.0554404 -0.352055E+03  0.141E-01    0.62       0.0  T
   2   -352.0554230  0.173693E-04  0.868E-02    0.60       1.0  T
   3   -352.0543218  0.110123E-02  0.752E-02    0.60       1.0  T
   4   -352.0556965 -0.137471E-02  0.159E-02    0.59       1.0  T
   5   -352.0557441 -0.476666E-04  0.616E-03    0.59       1.1  T
   6   -352.0557476 -0.349905E-05  0.252E-03    0.59       2.8  T
   7   -352.0557485 -0.857467E-06  0.101E-03    0.59       6.9  T
   8   -352.0557486 -0.502001E-07  0.635E-04    0.59      10.9  T
   9   -352.0557486 -0.543811E-07  0.308E-04    0.59      22.5  T
     SCC iter.                  ...        0 min,  0.372 sec
     gradient                   ...        0 min,  0.148 sec
 * total energy  :  -346.6228632 Eh     change       -0.5328305E-02 Eh
   gradient norm :     0.0385738 Eh/α   predicted    -0.6367427E-02 (  19.50%)
   displ. norm   :     0.7114270 α      lambda       -0.6050298E-02
   maximum displ.:     0.3359843 α      in ANC's #56, #65, #44, ...

........................................................................
.............................. CYCLE   15 ..............................
........................................................................
   1   -352.0449870 -0.352045E+03  0.140E-01    0.58       0.0  T
   2   -352.0450327 -0.456837E-04  0.795E-02    0.58       1.0  T
   3   -352.0447015  0.331156E-03  0.364E-02    0.58       1.0  T
   4   -352.0450699 -0.368381E-03  0.692E-03    0.59       1.0  T
   5   -352.0450741 -0.419742E-05  0.413E-03    0.58       1.7  T
   6   -352.0450761 -0.203868E-05  0.187E-03    0.58       3.7  T
   7   -352.0450766 -0.440274E-06  0.835E-04    0.58       8.3  T
   8   -352.0450767 -0.935744E-07  0.461E-04    0.58      15.0  T
     SCC iter.                  ...        0 min,  0.332 sec
     gradient                   ...        0 min,  0.148 sec
 * total energy  :  -346.6272896 Eh     change       -0.4426349E-02 Eh
   gradient norm :     0.0447007 Eh/α   predicted    -0.4556275E-02 (   2.94%)
   displ. norm   :     0.7208446 α      lambda       -0.6993261E-02
   maximum displ.:     0.2302244 α      in ANC's #56, #48, #65, ...

........................................................................
.............................. CYCLE   16 ..............................
........................................................................
   1   -352.0849013 -0.352085E+03  0.156E-01    0.58       0.0  T
   2   -352.0849992 -0.979057E-04  0.902E-02    0.61       1.0  T
   3   -352.0844633  0.535884E-03  0.492E-02    0.57       1.0  T
   4   -352.0850767 -0.613315E-03  0.901E-03    0.59       1.0  T
   5   -352.0850854 -0.875090E-05  0.492E-03    0.60       1.4  T
   6   -352.0850876 -0.216840E-05  0.294E-03    0.60       2.4  T
   7   -352.0850891 -0.149221E-05  0.116E-03    0.60       6.0  T
   8   -352.0850892 -0.138409E-06  0.645E-04    0.60      10.7  T
   9   -352.0850892 -0.341980E-07  0.365E-04    0.60      19.0  T
     SCC iter.                  ...        0 min,  0.364 sec
     gradient                   ...        0 min,  0.148 sec
 * total energy  :  -346.6288172 Eh     change       -0.1527668E-02 Eh
   gradient norm :     0.0925964 Eh/α   predicted    -0.5313540E-02 ( 247.82%)
   displ. norm   :     0.4981856 α      lambda       -0.6966531E-02
   maximum displ.:     0.2485011 α      in ANC's #56, #44, #39, ...

........................................................................
.............................. CYCLE   17 ..............................
........................................................................
   1   -352.0597312 -0.352060E+03  0.126E-01    0.63       0.0  T
   2   -352.0597685 -0.372703E-04  0.728E-02    0.62       1.0  T
   3   -352.0589314  0.837125E-03  0.575E-02    0.63       1.0  T
   4   -352.0598842 -0.952776E-03  0.896E-03    0.62       1.0  T
   5   -352.0598944 -0.102348E-04  0.474E-03    0.62       1.5  T
   6   -352.0598968 -0.243150E-05  0.206E-03    0.62       3.4  T
   7   -352.0598974 -0.566013E-06  0.914E-04    0.62       7.6  T
   8   -352.0598975 -0.101068E-06  0.434E-04    0.62      16.0  T
     SCC iter.                  ...        0 min,  0.352 sec
     gradient                   ...        0 min,  0.149 sec
 * total energy  :  -346.6333249 Eh     change       -0.4507638E-02 Eh
   gradient norm :     0.0262504 Eh/α   predicted    -0.4347776E-02 (  -3.55%)
   displ. norm   :     0.6293493 α      lambda       -0.3902364E-02
   maximum displ.:     0.2470667 α      in ANC's #56, #44, #65, ...

........................................................................
.............................. CYCLE   18 ..............................
........................................................................
   1   -352.0693167 -0.352069E+03  0.126E-01    0.64       0.0  T
   2   -352.0694007 -0.840335E-04  0.727E-02    0.62       1.0  T
   3   -352.0690633  0.337471E-03  0.392E-02    0.64       1.0  T
   4   -352.0694234 -0.360116E-03  0.112E-02    0.63       1.0  T
   5   -352.0694499 -0.264671E-04  0.445E-03    0.63       1.6  T
   6   -352.0694518 -0.194383E-05  0.203E-03    0.63       3.4  T
   7   -352.0694521 -0.337396E-06  0.861E-04    0.63       8.0  T
   8   -352.0694522 -0.866225E-07  0.438E-04    0.63      15.8  T
     SCC iter.                  ...        0 min,  0.343 sec
     gradient                   ...        0 min,  0.148 sec
 * total energy  :  -346.6355561 Eh     change       -0.2231210E-02 Eh
   gradient norm :     0.0462763 Eh/α   predicted    -0.2724009E-02 (  22.09%)
   displ. norm   :     0.6474036 α      lambda       -0.3787888E-02
   maximum displ.:     0.2517722 α      in ANC's #56, #39, #19, ...

........................................................................
.............................. CYCLE   19 ..............................
........................................................................
   1   -352.0765296 -0.352077E+03  0.115E-01    0.65       0.0  T
   2   -352.0766574 -0.127850E-03  0.666E-02    0.66       1.0  T
   3   -352.0763510  0.306391E-03  0.390E-02    0.64       1.0  T
   4   -352.0766963 -0.345276E-03  0.105E-02    0.65       1.0  T
   5   -352.0767170 -0.206707E-04  0.439E-03    0.65       1.6  T
   6   -352.0767193 -0.227880E-05  0.228E-03    0.65       3.0  T
   7   -352.0767199 -0.601214E-06  0.109E-03    0.65       6.4  T
   8   -352.0767200 -0.146455E-06  0.483E-04    0.65      14.3  T
   9   -352.0767200 -0.178744E-07  0.275E-04    0.65      25.2  T
     SCC iter.                  ...        0 min,  0.393 sec
     gradient                   ...        0 min,  0.149 sec
 * total energy  :  -346.6381047 Eh     change       -0.2548587E-02 Eh
   gradient norm :     0.0435408 Eh/α   predicted    -0.2687759E-02 (   5.46%)
   displ. norm   :     0.6463981 α      lambda       -0.4048335E-02
   maximum displ.:     0.2147092 α      in ANC's #56, #19, #48, ...

........................................................................
.............................. CYCLE   20 ..............................
........................................................................
   1   -352.0697164 -0.352070E+03  0.131E-01    0.65       0.0  T
   2   -352.0698551 -0.138725E-03  0.759E-02    0.65       1.0  T
   3   -352.0695336  0.321505E-03  0.409E-02    0.66       1.0  T
   4   -352.0698894 -0.355789E-03  0.105E-02    0.66       1.0  T
   5   -352.0699101 -0.206783E-04  0.414E-03    0.66       1.7  T
   6   -352.0699123 -0.223115E-05  0.221E-03    0.66       3.1  T
   7   -352.0699129 -0.565134E-06  0.924E-04    0.66       7.5  T
   8   -352.0699130 -0.110904E-06  0.445E-04    0.66      15.6  T
     SCC iter.                  ...        0 min,  0.336 sec
     gradient                   ...        0 min,  0.148 sec
 * total energy  :  -346.6397263 Eh     change       -0.1621590E-02 Eh
   gradient norm :     0.0559934 Eh/α   predicted    -0.2869932E-02 (  76.98%)
   displ. norm   :     0.4891187 α      lambda       -0.4052593E-02
   maximum displ.:     0.1231263 α      in ANC's #19, #56, #39, ...
 * RMSD in coord.:     0.7133226 α      energy gain  -0.1025189E+01 Eh

generating ANC from model Hessian ...
Using Lindh-Hessian (1995)
 Shifting diagonal of input Hessian by   1.043968564694426E-002
 Lowest  eigenvalues of input Hessian
    0.010000    0.010422    0.010437    0.000000    0.000000    0.000000
    0.000000    0.000000    0.000000    0.010445    0.010455    0.010462
    0.010471    0.010486    0.010504    0.010519    0.010524    0.010539
 Highest eigenvalues
    2.259187    2.312177    2.600900    2.611539    2.659061    2.679105
 

........................................................................
.............................. CYCLE   21 ..............................
........................................................................
   1   -352.0967392 -0.352097E+03  0.123E-01    0.67       0.0  T
   2   -352.0968402 -0.101027E-03  0.693E-02    0.67       1.0  T
   3   -352.0965437  0.296537E-03  0.392E-02    0.67       1.0  T
   4   -352.0968810 -0.337279E-03  0.797E-03    0.67       1.0  T
   5   -352.0968905 -0.959648E-05  0.462E-03    0.67       1.5  T
   6   -352.0968943 -0.375257E-05  0.188E-03    0.67       3.7  T
   7   -352.0968945 -0.236245E-06  0.964E-04    0.67       7.2  T
   8   -352.0968946 -0.111235E-06  0.460E-04    0.67      15.1  T
     SCC iter.                  ...        0 min,  0.332 sec
     gradient                   ...        0 min,  0.149 sec
 * total energy  :  -346.6414737 Eh     change       -0.1747470E-02 Eh
   gradient norm :     0.0430188 Eh/α   predicted     0.0000000E+00 (-100.00%)
   displ. norm   :     0.2891517 α      lambda       -0.2945422E-02
   maximum displ.:     0.0740796 α      in ANC's #34, #74, #46, ...

........................................................................
.............................. CYCLE   22 ..............................
........................................................................
   1   -352.0900739 -0.352090E+03  0.106E-01    0.66       0.0  T
   2   -352.0901103 -0.363505E-04  0.594E-02    0.66       1.0  T
   3   -352.0899497  0.160611E-03  0.294E-02    0.66       1.0  T
   4   -352.0901327 -0.183072E-03  0.479E-03    0.66       1.4  T
   5   -352.0901342 -0.142809E-05  0.339E-03    0.66       2.0  T
   6   -352.0901362 -0.209355E-05  0.112E-03    0.66       6.2  T
   7   -352.0901363 -0.603386E-07  0.614E-04    0.66      11.3  T
   8   -352.0901364 -0.532929E-07  0.259E-04    0.66      26.8  T
     SCC iter.                  ...        0 min,  0.338 sec
     gradient                   ...        0 min,  0.149 sec
 * total energy  :  -346.6431793 Eh     change       -0.1705524E-02 Eh
   gradient norm :     0.0169076 Eh/α   predicted    -0.1599978E-02 (  -6.19%)
   displ. norm   :     0.4097445 α      lambda       -0.2146383E-02
   maximum displ.:     0.1099567 α      in ANC's #35, #21, #23, ...

........................................................................
.............................. CYCLE   23 ..............................
........................................................................
   1   -352.0918232 -0.352092E+03  0.115E-01    0.65       0.0  T
   2   -352.0918491 -0.259057E-04  0.646E-02    0.66       1.0  T
   3   -352.0917756  0.735241E-04  0.187E-02    0.66       1.0  T
   4   -352.0918620 -0.864149E-04  0.447E-03    0.66       1.6  T
   5   -352.0918632 -0.113934E-05  0.286E-03    0.66       2.4  T
   6   -352.0918644 -0.121854E-05  0.103E-03    0.66       6.7  T
   7   -352.0918645 -0.136233E-06  0.467E-04    0.66      14.8  T
   8   -352.0918645 -0.244568E-07  0.265E-04    0.66      26.1  T
     SCC iter.                  ...        0 min,  0.333 sec
     gradient                   ...        0 min,  0.148 sec
 * total energy  :  -346.6443994 Eh     change       -0.1220176E-02 Eh
   gradient norm :     0.0302897 Eh/α   predicted    -0.1253377E-02 (   2.72%)
   displ. norm   :     0.4953474 α      lambda       -0.1982605E-02
   maximum displ.:     0.1399838 α      in ANC's #35, #34, #21, ...

........................................................................
.............................. CYCLE   24 ..............................
........................................................................
   1   -352.0943678 -0.352094E+03  0.900E-02    0.65       0.0  T
   2   -352.0943845 -0.167666E-04  0.504E-02    0.66       1.0  T
   3   -352.0943485  0.360187E-04  0.149E-02    0.66       1.0  T
   4   -352.0943924 -0.438430E-04  0.414E-03    0.66       1.7  T
   5   -352.0943930 -0.605118E-06  0.240E-03    0.66       2.9  T
   6   -352.0943939 -0.979098E-06  0.893E-04    0.66       7.8  T
   7   -352.0943941 -0.118893E-06  0.449E-04    0.66      15.4  T
     SCC iter.                  ...        0 min,  0.295 sec
     gradient                   ...        0 min,  0.148 sec
 * total energy  :  -346.6460072 Eh     change       -0.1607811E-02 Eh
   gradient norm :     0.0201133 Eh/α   predicted    -0.1234540E-02 ( -23.22%)
   displ. norm   :     0.7063785 α      lambda       -0.2456537E-02
   maximum displ.:     0.2128860 α      in ANC's #35, #21, #34, ...

........................................................................
.............................. CYCLE   25 ..............................
........................................................................
   1   -352.0899974 -0.352090E+03  0.129E-01    0.65       0.0  T
   2   -352.0900336 -0.361359E-04  0.719E-02    0.66       1.0  T
   3   -352.0898592  0.174366E-03  0.273E-02    0.65       1.0  T
   4   -352.0900540 -0.194829E-03  0.725E-03    0.66       1.0  T
   5   -352.0900583 -0.431737E-05  0.421E-03    0.66       1.6  T
   6   -352.0900605 -0.216714E-05  0.165E-03    0.66       4.2  T
   7   -352.0900609 -0.368667E-06  0.752E-04    0.66       9.2  T
   8   -352.0900609 -0.376384E-07  0.506E-04    0.66      13.7  T
     SCC iter.                  ...        0 min,  0.335 sec
     gradient                   ...        0 min,  0.147 sec
 * total energy  :  -346.6478345 Eh     change       -0.1827256E-02 Eh
   gradient norm :     0.0161064 Eh/α   predicted    -0.1841159E-02 (   0.76%)
   displ. norm   :     0.7247885 α      lambda       -0.2357600E-02
   maximum displ.:     0.2480688 α      in ANC's #34, #35, #48, ...

........................................................................
.............................. CYCLE   26 ..............................
........................................................................
   1   -352.0904436 -0.352090E+03  0.157E-01    0.65       0.0  T
   2   -352.0904975 -0.539624E-04  0.874E-02    0.66       1.0  T
   3   -352.0903397  0.157864E-03  0.270E-02    0.65       1.0  T
   4   -352.0905226 -0.182926E-03  0.713E-03    0.66       1.0  T
   5   -352.0905251 -0.254256E-05  0.459E-03    0.66       1.5  T
   6   -352.0905284 -0.324096E-05  0.162E-03    0.66       4.3  T
   7   -352.0905287 -0.276839E-06  0.830E-04    0.66       8.4  T
   8   -352.0905287 -0.663100E-07  0.533E-04    0.66      13.0  T
     SCC iter.                  ...        0 min,  0.329 sec
     gradient                   ...        0 min,  0.149 sec
 * total energy  :  -346.6487530 Eh     change       -0.9184975E-03 Eh
   gradient norm :     0.0340553 Eh/α   predicted    -0.1798059E-02 (  95.76%)
   displ. norm   :     0.4963345 α      lambda       -0.2495427E-02
   maximum displ.:     0.1612227 α      in ANC's #35, #21, #23, ...

........................................................................
.............................. CYCLE   27 ..............................
........................................................................
   1   -352.0929047 -0.352093E+03  0.119E-01    0.66       0.0  T
   2   -352.0929420 -0.372086E-04  0.657E-02    0.66       1.0  T
   3   -352.0928923  0.496947E-04  0.174E-02    0.66       1.0  T
   4   -352.0929578 -0.655362E-04  0.447E-03    0.66       1.6  T
   5   -352.0929580 -0.244191E-06  0.288E-03    0.66       2.4  T
   6   -352.0929597 -0.168269E-05  0.952E-04    0.66       7.3  T
   7   -352.0929598 -0.976299E-07  0.530E-04    0.66      13.1  T
   8   -352.0929598 -0.246906E-07  0.301E-04    0.66      23.1  T
     SCC iter.                  ...        0 min,  0.326 sec
     gradient                   ...        0 min,  0.147 sec
 * total energy  :  -346.6505487 Eh     change       -0.1795733E-02 Eh
   gradient norm :     0.0158170 Eh/α   predicted    -0.1555088E-02 ( -13.40%)
   displ. norm   :     0.6462511 α      lambda       -0.1765693E-02
   maximum displ.:     0.2069104 α      in ANC's #21, #35, #34, ...

........................................................................
.............................. CYCLE   28 ..............................
........................................................................
   1   -352.0931388 -0.352093E+03  0.114E-01    0.66       0.0  T
   2   -352.0931668 -0.279753E-04  0.632E-02    0.66       1.0  T
   3   -352.0930987  0.680486E-04  0.194E-02    0.67       1.0  T
   4   -352.0931786 -0.799057E-04  0.550E-03    0.67       1.3  T
   5   -352.0931800 -0.135957E-05  0.353E-03    0.67       2.0  T
   6   -352.0931822 -0.215649E-05  0.114E-03    0.66       6.1  T
   7   -352.0931823 -0.186909E-06  0.589E-04    0.67      11.8  T
   8   -352.0931824 -0.347924E-07  0.349E-04    0.67      19.9  T
     SCC iter.                  ...        0 min,  0.332 sec
     gradient                   ...        0 min,  0.147 sec
 * total energy  :  -346.6519967 Eh     change       -0.1447947E-02 Eh
   gradient norm :     0.0167907 Eh/α   predicted    -0.1251575E-02 ( -13.56%)
   displ. norm   :     0.7213207 α      lambda       -0.1983042E-02
   maximum displ.:     0.2352951 α      in ANC's #35, #21, #34, ...

........................................................................
.............................. CYCLE   29 ..............................
........................................................................
   1   -352.1136526 -0.352114E+03  0.998E-02    0.68       0.0  T
   2   -352.1136651 -0.125380E-04  0.563E-02    0.68       1.0  T
   3   -352.1133604  0.304738E-03  0.356E-02    0.68       1.0  T
   4   -352.1136926 -0.332266E-03  0.677E-03    0.68       1.0  T
   5   -352.1136958 -0.313138E-05  0.444E-03    0.68       1.6  T
   6   -352.1136984 -0.263620E-05  0.118E-03    0.68       5.9  T
   7   -352.1136985 -0.134032E-06  0.610E-04    0.68      11.4  T
   8   -352.1136986 -0.236923E-07  0.366E-04    0.68      18.9  T
     SCC iter.                  ...        0 min,  0.331 sec
     gradient                   ...        0 min,  0.147 sec
 * total energy  :  -346.6534451 Eh     change       -0.1448464E-02 Eh
   gradient norm :     0.0206752 Eh/α   predicted    -0.1507416E-02 (   4.07%)
   displ. norm   :     0.8095686 α      lambda       -0.1961461E-02
   maximum displ.:     0.2687164 α      in ANC's #35, #21, #34, ...

........................................................................
.............................. CYCLE   30 ..............................
........................................................................
   1   -352.1026602 -0.352103E+03  0.124E-01    0.68       0.0  T
   2   -352.1026889 -0.287153E-04  0.688E-02    0.68       1.0  T
   3   -352.1025934  0.955431E-04  0.231E-02    0.68       1.0  T
   4   -352.1027019 -0.108493E-03  0.664E-03    0.68       1.0  T
   5   -352.1027034 -0.152630E-05  0.423E-03    0.68       1.6  T
   6   -352.1027059 -0.256545E-05  0.152E-03    0.68       4.6  T
   7   -352.1027063 -0.395509E-06  0.652E-04    0.68      10.6  T
   8   -352.1027064 -0.470713E-07  0.371E-04    0.68      18.7  T
     SCC iter.                  ...        0 min,  0.336 sec
     gradient                   ...        0 min,  0.148 sec
 * total energy  :  -346.6549253 Eh     change       -0.1480120E-02 Eh
   gradient norm :     0.0165495 Eh/α   predicted    -0.1623506E-02 (   9.69%)
   displ. norm   :     0.7185990 α      lambda       -0.1535072E-02
   maximum displ.:     0.2422538 α      in ANC's #35, #21, #34, ...

........................................................................
.............................. CYCLE   31 ..............................
........................................................................
   1   -352.1028098 -0.352103E+03  0.988E-02    0.69       0.0  T
   2   -352.1028268 -0.170545E-04  0.551E-02    0.69       1.0  T
   3   -352.1026977  0.129149E-03  0.240E-02    0.69       1.0  T
   4   -352.1028378 -0.140112E-03  0.633E-03    0.69       1.1  T
   5   -352.1028406 -0.280400E-05  0.373E-03    0.69       1.9  T
   6   -352.1028424 -0.184110E-05  0.133E-03    0.69       5.2  T
   7   -352.1028427 -0.246738E-06  0.611E-04    0.69      11.3  T
   8   -352.1028427 -0.325746E-07  0.361E-04    0.69      19.2  T
     SCC iter.                  ...        0 min,  0.325 sec
     gradient                   ...        0 min,  0.148 sec
 * total energy  :  -346.6561196 Eh     change       -0.1194336E-02 Eh
   gradient norm :     0.0216372 Eh/α   predicted    -0.1163881E-02 (  -2.55%)
   displ. norm   :     0.7369014 α      lambda       -0.1549066E-02
   maximum displ.:     0.2564955 α      in ANC's #21, #35, #15, ...

........................................................................
.............................. CYCLE   32 ..............................
........................................................................
   1   -352.1022477 -0.352102E+03  0.909E-02    0.70       0.0  T
   2   -352.1022623 -0.145576E-04  0.505E-02    0.70       1.0  T
   3   -352.1021230  0.139286E-03  0.252E-02    0.70       1.0  T
   4   -352.1022750 -0.151945E-03  0.625E-03    0.70       1.1  T
   5   -352.1022767 -0.174698E-05  0.425E-03    0.70       1.6  T
   6   -352.1022794 -0.270424E-05  0.103E-03    0.70       6.7  T
   7   -352.1022795 -0.799541E-07  0.613E-04    0.70      11.3  T
   8   -352.1022795 -0.277078E-07  0.369E-04    0.70      18.8  T
     SCC iter.                  ...        0 min,  0.338 sec
     gradient                   ...        0 min,  0.147 sec
 * total energy  :  -346.6572913 Eh     change       -0.1171668E-02 Eh
   gradient norm :     0.0175090 Eh/α   predicted    -0.1195127E-02 (   2.00%)
   displ. norm   :     0.6712536 α      lambda       -0.1532868E-02
   maximum displ.:     0.2370746 α      in ANC's #21, #35, #15, ...

........................................................................
.............................. CYCLE   33 ..............................
........................................................................
   1   -352.1287893 -0.352129E+03  0.818E-02    0.71       0.0  T
   2   -352.1288016 -0.122786E-04  0.454E-02    0.71       1.0  T
   3   -352.1286986  0.102984E-03  0.235E-02    0.71       1.0  T
   4   -352.1288120 -0.113401E-03  0.593E-03    0.71       1.2  T
   5   -352.1288134 -0.134268E-05  0.411E-03    0.71       1.7  T
   6   -352.1288161 -0.275696E-05  0.107E-03    0.71       6.5  T
   7   -352.1288162 -0.132472E-06  0.577E-04    0.71      12.0  T
   8   -352.1288163 -0.296228E-07  0.331E-04    0.71      21.0  T
     SCC iter.                  ...        0 min,  0.335 sec
     gradient                   ...        0 min,  0.148 sec
 * total energy  :  -346.6582041 Eh     change       -0.9128424E-03 Eh
   gradient norm :     0.0220351 Eh/α   predicted    -0.1111779E-02 (  21.79%)
   displ. norm   :     0.7571645 α      lambda       -0.1490434E-02
   maximum displ.:     0.2776184 α      in ANC's #35, #21, #34, ...

........................................................................
.............................. CYCLE   34 ..............................
........................................................................
   1   -352.1085367 -0.352109E+03  0.990E-02    0.71       0.0  T
   2   -352.1085580 -0.213102E-04  0.542E-02    0.71       1.0  T
   3   -352.1085250  0.329611E-04  0.147E-02    0.71       1.0  T
   4   -352.1085621 -0.370834E-04  0.644E-03    0.71       1.1  T
   5   -352.1085660 -0.386870E-05  0.301E-03    0.71       2.3  T
   6   -352.1085674 -0.141481E-05  0.114E-03    0.71       6.1  T
   7   -352.1085676 -0.199737E-06  0.586E-04    0.71      11.8  T
   8   -352.1085676 -0.145986E-07  0.341E-04    0.71      20.3  T
     SCC iter.                  ...        0 min,  0.334 sec
     gradient                   ...        0 min,  0.148 sec
 * total energy  :  -346.6592784 Eh     change       -0.1074326E-02 Eh
   gradient norm :     0.0163459 Eh/α   predicted    -0.1172453E-02 (   9.13%)
   displ. norm   :     0.6170022 α      lambda       -0.1361341E-02
   maximum displ.:     0.2149426 α      in ANC's #21, #15, #35, ...

........................................................................
.............................. CYCLE   35 ..............................
........................................................................
   1   -352.1083714 -0.352108E+03  0.906E-02    0.71       0.0  T
   2   -352.1083912 -0.198664E-04  0.501E-02    0.71       1.0  T
   3   -352.1082929  0.983311E-04  0.234E-02    0.71       1.0  T
   4   -352.1084053 -0.112426E-03  0.547E-03    0.71       1.3  T
   5   -352.1084059 -0.587329E-06  0.321E-03    0.71       2.2  T
   6   -352.1084081 -0.215918E-05  0.935E-04    0.71       7.4  T
   7   -352.1084082 -0.120135E-06  0.451E-04    0.71      15.4  T
   8   -352.1084082 -0.806000E-08  0.286E-04    0.71      24.2  T
     SCC iter.                  ...        0 min,  0.335 sec
     gradient                   ...        0 min,  0.149 sec
 * total energy  :  -346.6600881 Eh     change       -0.8096232E-03 Eh
   gradient norm :     0.0259925 Eh/α   predicted    -0.9398018E-03 (  16.08%)
   displ. norm   :     0.6452094 α      lambda       -0.1158787E-02
   maximum displ.:     0.2272716 α      in ANC's #21, #35, #15, ...

........................................................................
.............................. CYCLE   36 ..............................
........................................................................
   1   -352.1108273 -0.352111E+03  0.756E-02    0.71       0.0  T
   2   -352.1108389 -0.115540E-04  0.409E-02    0.71       1.0  T
   3   -352.1108172  0.216424E-04  0.130E-02    0.71       1.0  T
   4   -352.1108427 -0.254407E-04  0.489E-03    0.71       1.4  T
   5   -352.1108430 -0.338620E-06  0.279E-03    0.71       2.5  T
   6   -352.1108445 -0.149806E-05  0.899E-04    0.71       7.7  T
   7   -352.1108446 -0.122160E-06  0.439E-04    0.71      15.8  T
   8   -352.1108446 -0.708883E-08  0.299E-04    0.71      23.2  T
     SCC iter.                  ...        0 min,  0.348 sec
     gradient                   ...        0 min,  0.149 sec
 * total energy  :  -346.6610507 Eh     change       -0.9626077E-03 Eh
   gradient norm :     0.0128704 Eh/α   predicted    -0.8205989E-03 ( -14.75%)
   displ. norm   :     0.6557318 α      lambda       -0.1258782E-02
   maximum displ.:     0.2106959 α      in ANC's #35, #21, #12, ...

........................................................................
.............................. CYCLE   37 ..............................
........................................................................
   1   -352.1325563 -0.352133E+03  0.755E-02    0.71       0.0  T
   2   -352.1325663 -0.998763E-05  0.407E-02    0.71       1.0  T
   3   -352.1324776  0.887599E-04  0.212E-02    0.71       1.0  T
   4   -352.1325763 -0.987589E-04  0.582E-03    0.71       1.2  T
   5   -352.1325770 -0.727390E-06  0.375E-03    0.71       1.8  T
   6   -352.1325794 -0.233349E-05  0.118E-03    0.71       5.9  T
   7   -352.1325796 -0.246517E-06  0.488E-04    0.71      14.2  T
   8   -352.1325796 -0.182484E-07  0.307E-04    0.71      22.6  T
     SCC iter.                  ...        0 min,  0.338 sec
     gradient                   ...        0 min,  0.150 sec
 * total energy  :  -346.6618954 Eh     change       -0.8447073E-03 Eh
   gradient norm :     0.0181046 Eh/α   predicted    -0.9000271E-03 (   6.55%)
   displ. norm   :     0.7733446 α      lambda       -0.1140413E-02
   maximum displ.:     0.2759428 α      in ANC's #35, #21, #15, ...

........................................................................
.............................. CYCLE   38 ..............................
........................................................................
   1   -352.1224662 -0.352122E+03  0.102E-01    0.71       0.0  T
   2   -352.1224899 -0.236424E-04  0.553E-02    0.71       1.0  T
   3   -352.1224398  0.500270E-04  0.191E-02    0.71       1.0  T
   4   -352.1224995 -0.596652E-04  0.651E-03    0.71       1.1  T
   5   -352.1224996 -0.139281E-06  0.391E-03    0.71       1.8  T
   6   -352.1225026 -0.294262E-05  0.119E-03    0.71       5.8  T
   7   -352.1225028 -0.215045E-06  0.580E-04    0.71      12.0  T
   8   -352.1225028 -0.143539E-07  0.395E-04    0.71      17.6  T
     SCC iter.                  ...        0 min,  0.336 sec
     gradient                   ...        0 min,  0.149 sec
 * total energy  :  -346.6627054 Eh     change       -0.8100049E-03 Eh
   gradient norm :     0.0204981 Eh/α   predicted    -0.9112303E-03 (  12.50%)
   displ. norm   :     0.6708595 α      lambda       -0.9742660E-03
   maximum displ.:     0.2189692 α      in ANC's #12, #35, #21, ...

........................................................................
.............................. CYCLE   39 ..............................
........................................................................
   1   -352.1140908 -0.352114E+03  0.789E-02    0.71       0.0  T
   2   -352.1141050 -0.142341E-04  0.418E-02    0.71       1.0  T
   3   -352.1140779  0.271474E-04  0.130E-02    0.71       1.0  T
   4   -352.1141051 -0.272060E-04  0.647E-03    0.71       1.1  T
   5   -352.1141096 -0.452851E-05  0.324E-03    0.71       2.1  T
   6   -352.1141112 -0.163274E-05  0.121E-03    0.71       5.8  T
   7   -352.1141115 -0.258979E-06  0.473E-04    0.71      14.7  T
   8   -352.1141115 -0.110244E-07  0.302E-04    0.71      23.0  T
     SCC iter.                  ...        0 min,  0.326 sec
     gradient                   ...        0 min,  0.147 sec
 * total energy  :  -346.6633589 Eh     change       -0.6535580E-03 Eh
   gradient norm :     0.0128357 Eh/α   predicted    -0.7063711E-03 (   8.08%)
   displ. norm   :     0.5980360 α      lambda       -0.9988479E-03
   maximum displ.:     0.2253567 α      in ANC's #12, #35, #13, ...

........................................................................
.............................. CYCLE   40 ..............................
........................................................................
   1   -352.1213074 -0.352121E+03  0.746E-02    0.71       0.0  T
   2   -352.1213204 -0.129681E-04  0.395E-02    0.71       1.0  T
   3   -352.1212847  0.356676E-04  0.136E-02    0.71       1.0  T
   4   -352.1213241 -0.393411E-04  0.552E-03    0.71       1.3  T
   5   -352.1213266 -0.255150E-05  0.279E-03    0.71       2.5  T
   6   -352.1213277 -0.109108E-05  0.104E-03    0.71       6.6  T
   7   -352.1213279 -0.196544E-06  0.415E-04    0.71      16.7  T
   8   -352.1213279 -0.937683E-08  0.281E-04    0.71      24.7  T
     SCC iter.                  ...        0 min,  0.341 sec
     gradient                   ...        0 min,  0.149 sec
 * total energy  :  -346.6640630 Eh     change       -0.7040339E-03 Eh
   gradient norm :     0.0134551 Eh/α   predicted    -0.6780420E-03 (  -3.69%)
   displ. norm   :     0.6440109 α      lambda       -0.1127899E-02
   maximum displ.:     0.2492570 α      in ANC's #12, #13, #15, ...

........................................................................
.............................. CYCLE   41 ..............................
........................................................................
   1   -352.1315200 -0.352132E+03  0.952E-02    0.72       0.0  T
   2   -352.1315439 -0.238346E-04  0.516E-02    0.71       1.0  T
   3   -352.1314793  0.645675E-04  0.188E-02    0.72       1.0  T
   4   -352.1315534 -0.741215E-04  0.628E-03    0.71       1.1  T
   5   -352.1315556 -0.218155E-05  0.362E-03    0.71       1.9  T
   6   -352.1315572 -0.160936E-05  0.147E-03    0.71       4.7  T
   7   -352.1315577 -0.432441E-06  0.616E-04    0.71      11.3  T
   8   -352.1315577 -0.252670E-07  0.392E-04    0.71      17.7  T
     SCC iter.                  ...        0 min,  0.334 sec
     gradient                   ...        0 min,  0.149 sec
 * total energy  :  -346.6646891 Eh     change       -0.6261139E-03 Eh
   gradient norm :     0.0166587 Eh/α   predicted    -0.7978490E-03 (  27.43%)
   displ. norm   :     0.6399439 α      lambda       -0.1061086E-02
   maximum displ.:     0.2433241 α      in ANC's #12, #35, #13, ...

........................................................................
.............................. CYCLE   42 ..............................
........................................................................
   1   -352.1285069 -0.352129E+03  0.789E-02    0.72       0.0  T
   2   -352.1285233 -0.163861E-04  0.416E-02    0.72       1.0  T
   3   -352.1284737  0.496239E-04  0.167E-02    0.72       1.0  T
   4   -352.1285278 -0.541916E-04  0.637E-03    0.72       1.1  T
   5   -352.1285307 -0.284814E-05  0.320E-03    0.72       2.2  T
   6   -352.1285319 -0.119987E-05  0.132E-03    0.72       5.3  T
   7   -352.1285322 -0.328526E-06  0.571E-04    0.72      12.1  T
   8   -352.1285323 -0.383571E-07  0.329E-04    0.72      21.1  T
     SCC iter.                  ...        0 min,  0.336 sec
     gradient                   ...        0 min,  0.150 sec
 * total energy  :  -346.6653067 Eh     change       -0.6176252E-03 Eh
   gradient norm :     0.0241213 Eh/α   predicted    -0.7478234E-03 (  21.08%)
   displ. norm   :     0.5474348 α      lambda       -0.1416453E-02
   maximum displ.:     0.2211042 α      in ANC's #12, #13, #7, ...
 * RMSD in coord.:     0.8427334 α      energy gain  -0.2558045E-01 Eh

generating ANC from model Hessian ...
Using Lindh-Hessian (1995)
 Shifting diagonal of input Hessian by   1.004075759426435E-002
 Lowest  eigenvalues of input Hessian
    0.010000    0.010033    0.000000    0.000000    0.000000    0.000000
    0.000000    0.000000    0.010046    0.010052    0.010060    0.010071
    0.010094    0.010101    0.010122    0.010127    0.010137    0.010169
 Highest eigenvalues
    2.257914    2.287303    2.588606    2.599267    2.648607    2.668067
 

........................................................................
.............................. CYCLE   43 ..............................
........................................................................
   1   -352.1250848 -0.352125E+03  0.884E-02    0.72       0.0  T
   2   -352.1251107 -0.259078E-04  0.481E-02    0.71       1.0  T
   3   -352.1250701  0.406096E-04  0.168E-02    0.71       1.0  T
   4   -352.1251172 -0.471775E-04  0.615E-03    0.71       1.1  T
   5   -352.1251201 -0.281685E-05  0.319E-03    0.71       2.2  T
   6   -352.1251216 -0.155034E-05  0.150E-03    0.71       4.6  T
   7   -352.1251221 -0.449560E-06  0.528E-04    0.71      13.1  T
   8   -352.1251221 -0.279367E-07  0.273E-04    0.71      25.4  T
     SCC iter.                  ...        0 min,  0.337 sec
     gradient                   ...        0 min,  0.148 sec
 * total energy  :  -346.6658053 Eh     change       -0.4985504E-03 Eh
   gradient norm :     0.0254165 Eh/α   predicted     0.0000000E+00 (-100.00%)
   displ. norm   :     0.1568563 α      lambda       -0.1099033E-02
   maximum displ.:     0.0420475 α      in ANC's #35, #7, #77, ...

........................................................................
.............................. CYCLE   44 ..............................
........................................................................
   1   -352.1264679 -0.352126E+03  0.605E-02    0.72       0.0  T
   2   -352.1264821 -0.141786E-04  0.337E-02    0.72       1.0  T
   3   -352.1264542  0.279180E-04  0.124E-02    0.72       1.0  T
   4   -352.1264877 -0.335619E-04  0.311E-03    0.72       2.2  T
   5   -352.1264885 -0.798628E-06  0.179E-03    0.72       3.9  T
   6   -352.1264890 -0.429282E-06  0.908E-04    0.72       7.6  T
   7   -352.1264891 -0.115509E-06  0.373E-04    0.72      18.6  T
     SCC iter.                  ...        0 min,  0.294 sec
     gradient                   ...        0 min,  0.149 sec
 * total energy  :  -346.6662472 Eh     change       -0.4418987E-03 Eh
   gradient norm :     0.0104762 Eh/α   predicted    -0.5631706E-03 (  27.44%)
   displ. norm   :     0.2762192 α      lambda       -0.1176308E-02
   maximum displ.:     0.0917541 α      in ANC's #33, #56, #36, ...

........................................................................
.............................. CYCLE   45 ..............................
........................................................................
   1   -352.1264339 -0.352126E+03  0.143E-01    0.72       0.0  T
   2   -352.1264866 -0.527370E-04  0.787E-02    0.72       1.0  T
   3   -352.1263636  0.123043E-03  0.237E-02    0.72       1.0  T
   4   -352.1265138 -0.150280E-03  0.515E-03    0.72       1.3  T
   5   -352.1265157 -0.191322E-05  0.314E-03    0.72       2.2  T
   6   -352.1265168 -0.104379E-05  0.130E-03    0.72       5.3  T
   7   -352.1265170 -0.221885E-06  0.661E-04    0.72      10.5  T
   8   -352.1265171 -0.479608E-07  0.332E-04    0.72      20.9  T
     SCC iter.                  ...        0 min,  0.332 sec
     gradient                   ...        0 min,  0.148 sec
 * total energy  :  -346.6661260 Eh     change        0.1211520E-03 Eh
   gradient norm :     0.0264790 Eh/α   predicted    -0.6330663E-03 (-622.54%)
   displ. norm   :     0.1252756 α      lambda       -0.1133416E-02
   maximum displ.:     0.0443276 α      in ANC's #36, #35, #25, ...

........................................................................
.............................. CYCLE   46 ..............................
........................................................................
   1   -352.1282761 -0.352128E+03  0.771E-02    0.72       0.0  T
   2   -352.1282931 -0.169981E-04  0.426E-02    0.72       1.0  T
   3   -352.1282529  0.402013E-04  0.142E-02    0.71       1.0  T
   4   -352.1283017 -0.487914E-04  0.260E-03    0.72       2.7  T
   5   -352.1283020 -0.274346E-06  0.175E-03    0.72       4.0  T
   6   -352.1283025 -0.494155E-06  0.675E-04    0.72      10.3  T
   7   -352.1283025 -0.384522E-07  0.358E-04    0.72      19.4  T
     SCC iter.                  ...        0 min,  0.296 sec
     gradient                   ...        0 min,  0.149 sec
 * total energy  :  -346.6667510 Eh     change       -0.6249506E-03 Eh
   gradient norm :     0.0099476 Eh/α   predicted    -0.5756058E-03 (  -7.90%)
   displ. norm   :     0.2009926 α      lambda       -0.6366115E-03
   maximum displ.:     0.0579941 α      in ANC's #7, #35, #77, ...

........................................................................
.............................. CYCLE   47 ..............................
........................................................................
   1   -352.1232210 -0.352123E+03  0.769E-02    0.71       0.0  T
   2   -352.1232391 -0.181137E-04  0.422E-02    0.71       1.0  T
   3   -352.1232307  0.842153E-05  0.868E-03    0.71       1.0  T
   4   -352.1232459 -0.151440E-04  0.284E-03    0.72       2.4  T
   5   -352.1232465 -0.591163E-06  0.153E-03    0.71       4.5  T
   6   -352.1232468 -0.380785E-06  0.563E-04    0.71      12.3  T
   7   -352.1232469 -0.470964E-07  0.267E-04    0.71      26.0  T
     SCC iter.                  ...        0 min,  0.291 sec
     gradient                   ...        0 min,  0.148 sec
 * total energy  :  -346.6668118 Eh     change       -0.6082826E-04 Eh
   gradient norm :     0.0134960 Eh/α   predicted    -0.3311657E-03 ( 444.43%)
   displ. norm   :     0.2351191 α      lambda       -0.7375600E-03
   maximum displ.:     0.0716783 α      in ANC's #7, #35, #13, ...

........................................................................
.............................. CYCLE   48 ..............................
........................................................................
   1   -352.1235131 -0.352124E+03  0.687E-02    0.71       0.0  T
   2   -352.1235259 -0.128129E-04  0.375E-02    0.71       1.0  T
   3   -352.1235115  0.143681E-04  0.934E-03    0.71       1.0  T
   4   -352.1235314 -0.199325E-04  0.281E-03    0.71       2.5  T
   5   -352.1235318 -0.382617E-06  0.132E-03    0.71       5.2  T
   6   -352.1235322 -0.340377E-06  0.433E-04    0.71      16.0  T
   7   -352.1235322 -0.278550E-07  0.229E-04    0.71      30.3  T
     SCC iter.                  ...        0 min,  0.287 sec
     gradient                   ...        0 min,  0.149 sec
 * total energy  :  -346.6672624 Eh     change       -0.4505954E-03 Eh
   gradient norm :     0.0091106 Eh/α   predicted    -0.3891718E-03 ( -13.63%)
   displ. norm   :     0.4142437 α      lambda       -0.7299618E-03
   maximum displ.:     0.1333493 α      in ANC's #7, #13, #35, ...

........................................................................
.............................. CYCLE   49 ..............................
........................................................................
   1   -352.1268550 -0.352127E+03  0.732E-02    0.72       0.0  T
   2   -352.1268689 -0.139419E-04  0.388E-02    0.72       1.0  T
   3   -352.1268489  0.199851E-04  0.113E-02    0.72       1.0  T
   4   -352.1268712 -0.222679E-04  0.521E-03    0.72       1.3  T
   5   -352.1268739 -0.274996E-05  0.231E-03    0.72       3.0  T
   6   -352.1268749 -0.975689E-06  0.756E-04    0.72       9.2  T
   7   -352.1268750 -0.832535E-07  0.402E-04    0.72      17.3  T
     SCC iter.                  ...        0 min,  0.301 sec
     gradient                   ...        0 min,  0.149 sec
 * total energy  :  -346.6677107 Eh     change       -0.4482954E-03 Eh
   gradient norm :     0.0085660 Eh/α   predicted    -0.4276102E-03 (  -4.61%)
   displ. norm   :     0.5687291 α      lambda       -0.6865805E-03
   maximum displ.:     0.1871462 α      in ANC's #7, #13, #35, ...

........................................................................
.............................. CYCLE   50 ..............................
........................................................................
   1   -352.1246479 -0.352125E+03  0.928E-02    0.72       0.0  T
   2   -352.1246668 -0.188822E-04  0.485E-02    0.72       1.0  T
   3   -352.1246377  0.290705E-04  0.139E-02    0.72       1.0  T
   4   -352.1246705 -0.327413E-04  0.637E-03    0.72       1.1  T
   5   -352.1246740 -0.348452E-05  0.266E-03    0.72       2.6  T
   6   -352.1246754 -0.141877E-05  0.749E-04    0.72       9.3  T
   7   -352.1246755 -0.685307E-07  0.424E-04    0.72      16.3  T
   8   -352.1246755 -0.104448E-07  0.230E-04    0.72      30.2  T
     SCC iter.                  ...        0 min,  0.341 sec
     gradient                   ...        0 min,  0.149 sec
 * total energy  :  -346.6682797 Eh     change       -0.5689905E-03 Eh
   gradient norm :     0.0099018 Eh/α   predicted    -0.4543295E-03 ( -20.15%)
   displ. norm   :     0.7326543 α      lambda       -0.9501432E-03
   maximum displ.:     0.2443951 α      in ANC's #7, #13, #14, ...

........................................................................
.............................. CYCLE   51 ..............................
........................................................................
   1   -352.1216695 -0.352122E+03  0.104E-01    0.72       0.0  T
   2   -352.1216966 -0.270811E-04  0.539E-02    0.72       1.0  T
   3   -352.1216718  0.247631E-04  0.152E-02    0.71       1.0  T
   4   -352.1217016 -0.298594E-04  0.738E-03    0.71       1.0  T
   5   -352.1217048 -0.316855E-05  0.347E-03    0.72       2.0  T
   6   -352.1217071 -0.230125E-05  0.103E-03    0.71       6.7  T
   7   -352.1217073 -0.162860E-06  0.560E-04    0.72      12.4  T
   8   -352.1217073 -0.233615E-07  0.322E-04    0.71      21.5  T
     SCC iter.                  ...        0 min,  0.333 sec
     gradient                   ...        0 min,  0.149 sec
 * total energy  :  -346.6690334 Eh     change       -0.7537471E-03 Eh
   gradient norm :     0.0121144 Eh/α   predicted    -0.7300853E-03 (  -3.14%)
   displ. norm   :     0.6708988 α      lambda       -0.8836085E-03
   maximum displ.:     0.2335144 α      in ANC's #7, #13, #14, ...

........................................................................
.............................. CYCLE   52 ..............................
........................................................................
   1   -352.1273393 -0.352127E+03  0.816E-02    0.72       0.0  T
   2   -352.1273532 -0.139032E-04  0.424E-02    0.71       1.0  T
   3   -352.1273153  0.378693E-04  0.151E-02    0.71       1.0  T
   4   -352.1273575 -0.421424E-04  0.612E-03    0.71       1.1  T
   5   -352.1273594 -0.187275E-05  0.295E-03    0.71       2.3  T
   6   -352.1273609 -0.155601E-05  0.897E-04    0.71       7.7  T
   7   -352.1273610 -0.118312E-06  0.497E-04    0.71      14.0  T
   8   -352.1273611 -0.189602E-07  0.315E-04    0.71      22.0  T
     SCC iter.                  ...        0 min,  0.334 sec
     gradient                   ...        0 min,  0.149 sec
 * total energy  :  -346.6697431 Eh     change       -0.7096675E-03 Eh
   gradient norm :     0.0100980 Eh/α   predicted    -0.6406607E-03 (  -9.72%)
   displ. norm   :     0.7694485 α      lambda       -0.8724670E-03
   maximum displ.:     0.2679994 α      in ANC's #7, #13, #14, ...

........................................................................
.............................. CYCLE   53 ..............................
........................................................................
   1   -352.1276609 -0.352128E+03  0.908E-02    0.72       0.0  T
   2   -352.1276792 -0.182683E-04  0.467E-02    0.72       1.0  T
   3   -352.1276580  0.211678E-04  0.138E-02    0.71       1.0  T
   4   -352.1276822 -0.241407E-04  0.675E-03    0.71       1.0  T
   5   -352.1276847 -0.258482E-05  0.310E-03    0.71       2.2  T
   6   -352.1276864 -0.164001E-05  0.980E-04    0.71       7.1  T
   7   -352.1276865 -0.156305E-06  0.516E-04    0.71      13.4  T
   8   -352.1276866 -0.160846E-07  0.323E-04    0.71      21.4  T
     SCC iter.                  ...        0 min,  0.343 sec
     gradient                   ...        0 min,  0.149 sec
 * total energy  :  -346.6705385 Eh     change       -0.7954433E-03 Eh
   gradient norm :     0.0075897 Eh/α   predicted    -0.6945080E-03 ( -12.69%)
   displ. norm   :     0.7566894 α      lambda       -0.1019984E-02
   maximum displ.:     0.2697861 α      in ANC's #7, #13, #14, ...

........................................................................
.............................. CYCLE   54 ..............................
........................................................................
   1   -352.1371870 -0.352137E+03  0.794E-02    0.72       0.0  T
   2   -352.1372009 -0.139095E-04  0.416E-02    0.72       1.0  T
   3   -352.1371693  0.316030E-04  0.144E-02    0.71       1.0  T
   4   -352.1372048 -0.355226E-04  0.606E-03    0.71       1.1  T
   5   -352.1372069 -0.206853E-05  0.285E-03    0.71       2.4  T
   6   -352.1372080 -0.114459E-05  0.891E-04    0.71       7.8  T
   7   -352.1372081 -0.887796E-07  0.508E-04    0.71      13.7  T
   8   -352.1372081 -0.109999E-07  0.313E-04    0.71      22.2  T
     SCC iter.                  ...        0 min,  0.337 sec
     gradient                   ...        0 min,  0.149 sec
 * total energy  :  -346.6713537 Eh     change       -0.8151478E-03 Eh
   gradient norm :     0.0086983 Eh/α   predicted    -0.8020011E-03 (  -1.61%)
   displ. norm   :     0.8881559 α      lambda       -0.9961702E-03
   maximum displ.:     0.3097166 α      in ANC's #7, #13, #14, ...

........................................................................
.............................. CYCLE   55 ..............................
........................................................................
   1   -352.1283668 -0.352128E+03  0.107E-01    0.71       0.0  T
   2   -352.1283935 -0.267684E-04  0.547E-02    0.71       1.0  T
   3   -352.1283800  0.135178E-04  0.134E-02    0.71       1.0  T
   4   -352.1283950 -0.150187E-04  0.780E-03    0.71       1.0  T
   5   -352.1284007 -0.565746E-05  0.296E-03    0.71       2.3  T
   6   -352.1284021 -0.139289E-05  0.935E-04    0.71       7.4  T
   7   -352.1284022 -0.108279E-06  0.501E-04    0.71      13.8  T
   8   -352.1284022 -0.148736E-07  0.309E-04    0.71      22.5  T
[...]
   159   1 H    0.991 --    49 C    0.924
   160   1 H    0.993 --    56 C    0.955
   161   1 H    0.993 --    56 C    0.956
   162   1 H    0.995 --    57 C    0.981
   163   1 H    0.998 --    57 C    0.984
   164   1 H    0.997 --    57 C    0.967
   165   1 H    0.992 --    65 C    0.944
   166   1 H    0.992 --    65 C    0.946
   167   1 H    0.997 --    66 C    0.985
   168   1 H    0.998 --    66 C    0.983
   169   1 H    0.997 --    66 C    0.983
   170   1 H    0.998 --    72 C    0.962
   171   1 H    0.998 --    73 C    0.965
   172   1 H    0.996 --    76 C    0.982
   173   1 H    0.997 --    76 C    0.971
   174   1 H    0.996 --    76 C    0.979
   175   1 H    0.998 --    77 C    0.960
   176   1 H    0.999 --    78 C    0.963
   177   1 H    0.998 --    80 C    0.963
   178   1 H    0.997 --    81 C    0.967
   179   1 H    0.997 --    84 C    0.982
   180   1 H    0.996 --    84 C    0.979
   181   1 H    0.997 --    84 C    0.982
   182   1 H    0.998 --    85 C    0.964
   183   1 H    0.999 --    86 C    0.963
   184   1 H    0.998 --    93 C    0.965
   185   1 H    0.998 --    94 C    0.965
   186   1 H    0.995 --    97 C    0.978
   187   1 H    0.997 --    97 C    0.977
   188   1 H    0.996 --    97 C    0.982
   189   1 H    0.996 --    98 C    0.966
   190   1 H    0.998 --    99 C    0.966
   191   1 H    0.996 --   101 C    0.962
   192   1 H    0.997 --   102 C    0.964
   193   1 H    0.996 --   105 C    0.982
   194   1 H    0.995 --   105 C    0.979
   195   1 H    0.996 --   105 C    0.979
   196   1 H    0.997 --   106 C    0.967
   197   1 H    0.998 --   107 C    0.967
   198   1 H    0.993 --   110 C    0.948
   199   1 H    0.997 --   115 C    0.964
   200   1 H    0.997 --   118 C    0.959
   201   1 H    0.997 --   126 C    0.963
   202   1 H    0.999 --   127 C    0.971
   203   1 H    0.998 --   128 C    0.971
   204   1 H    0.999 --   129 C    0.971
   205   1 H    0.999 --   130 C    0.971
   206   1 H    0.999 --   131 C    0.973
   207   1 H    0.999 --   131 C    0.979
   208   1 H    0.997 --   132 C    0.962
 ---------------------------------------------------------------------------

Topologies differ in bond orders
Writing corrected topology to xtbtopo.mol

molecular dipole:
                 x           y           z       tot (Debye)
 q only:        1.530      -0.747       0.856
   full:        2.669       0.482       0.970       7.320
molecular quadrupole (traceless):
                xx          xy          yy          xz          yz          zz
 q only:      -22.699      -7.962      66.962     117.765     -10.500     -44.263
  q+dip:      -44.071      -5.756      79.145     129.692     -20.848     -35.074
   full:      -52.749       0.621      80.284     131.300     -17.707     -27.535

           -------------------------------------------------
          |                Geometry Summary                 |
           -------------------------------------------------

      molecular mass/u    :     2060.5116358
   center of mass at/Å    :       -0.3691052       0.2088325      -0.5842573
  moments of inertia/u·Å² :        0.4438349E+05   0.1187170E+06   0.1387488E+06
rotational constants/cm⁻¹ :        0.3798176E-03   0.1419985E-03   0.1214975E-03

 * 199 selected distances

     #   Z          #   Z                                           value/Å
     1   6 C        2   6 C                                       1.3564579
     3   6 C        4   8 O                                       1.2097315
     5   6 C        6   6 C                                       1.3935192
     6   6 C        7   6 C                                       1.3740179
     7   6 C        8   6 C                                       1.4021962
     8   6 C        9   6 C                                       1.3745108
     5   6 C       10   6 C                                       1.4121445
     9   6 C       10   6 C                                       1.3965241
    11   6 C       12   6 C                                       1.3688448
    13   6 C       14   7 N                                       1.1477517
    15   6 C       16   7 N                                       1.1479356
     8   6 C       17   6 C                                       1.5076862
    17   6 C       18   6 C                                       1.5490915
    19   6 C       20   6 C                                       1.3263360
    18   6 C       22   6 C                                       1.5370210
    21   6 C       22   6 C                                       1.5370762
     7   6 C       23   6 C                                       1.5083361
    17   6 C       23   6 C                                       1.5612030
    21   6 C       23   6 C                                       1.5491176
     1   6 C       24   6 C                                       1.4192707
    24   6 C       25   6 C                                       1.3720688
    25   6 C       26   6 C                                       1.4107442
    26   6 C       27   6 C                                       1.4142528
    28   6 C       29   6 C                                       1.3677386
    29   6 C       30   6 C                                       1.4074511
    30   6 C       31   6 C                                       1.3659680
    31   6 C       32  16 S                                       1.7472641
    33   6 C       34   6 C                                       1.5147097
    28   6 C       35  34 Se                                      1.8899922 (max)
    31   6 C       35  34 Se                                      1.8819929
    27   6 C       36   6 C                                       1.3912027
    36   6 C       37   6 C                                       1.4146229
    37   6 C       38   6 C                                       1.4081633
    39   6 C       40   6 C                                       1.3686736
    40   6 C       41   6 C                                       1.4076145
    41   6 C       42   6 C                                       1.3625657
    44   6 C       45   6 C                                       1.5140857
    39   6 C       46  34 Se                                      1.8747765
    42   6 C       46  34 Se                                      1.8800196
    26   6 C       47   6 C                                       1.4186955
    38   6 C       47   6 C                                       1.3878498
    24   6 C       48  16 S                                       1.7543871
    47   6 C       48  16 S                                       1.7383373
    37   6 C       49   6 C                                       1.4101804
    49   6 C       50   6 C                                       1.3635770
    36   6 C       51  16 S                                       1.7440996
    50   6 C       51  16 S                                       1.7546820
    50   6 C       52   6 C                                       1.4349916
    52   6 C       53   6 C                                       1.4116275
    53   6 C       54   7 N                                       1.3626556
    54   7 N       55   6 C                                       1.2762044
    55   6 C       56   6 C                                       1.4813751
    56   6 C       57   6 C                                       1.5281370
    53   6 C       59   6 C                                       1.4140532
    58  16 S       59   6 C                                       1.7358062
    59   6 C       60   6 C                                       1.3917911
    60   6 C       61   6 C                                       1.3999957
    52   6 C       62   6 C                                       1.3972359
    61   6 C       62   6 C                                       1.4145857
    62   6 C       63  16 S                                       1.7336636
    64   6 C       65   6 C                                       1.4831767
    65   6 C       66   6 C                                       1.5216717
    61   6 C       67   7 N                                       1.3580233
    64   6 C       67   7 N                                       1.2776836
    68   6 C       69   6 C                                       1.3824277
    69   6 C       70   7 N                                       1.4136417
    70   7 N       71   6 C                                       1.3936454
    71   6 C       72   6 C                                       1.3974654
    72   6 C       73   6 C                                       1.3804807
    73   6 C       74   6 C                                       1.3866214
    74   6 C       77   6 C                                       1.3900328
    71   6 C       78   6 C                                       1.3996127
    77   6 C       78   6 C                                       1.3779009
    70   7 N       79   6 C                                       1.4049420
    79   6 C       80   6 C                                       1.3954319
    80   6 C       81   6 C                                       1.3771303
    81   6 C       82   6 C                                       1.3917798
    82   6 C       85   6 C                                       1.3873679
    79   6 C       86   6 C                                       1.3937075
    85   6 C       86   6 C                                       1.3809866
    69   6 C       87   6 C                                       1.4126381
    87   6 C       88  16 S                                       1.7238451
    89   6 C       90   6 C                                       1.4073169
    90   6 C       91   7 N                                       1.3692375
    91   7 N       92   6 C                                       1.3979385
    92   6 C       93   6 C                                       1.3934506
    93   6 C       94   6 C                                       1.3823325
    94   6 C       95   6 C                                       1.3885740
    95   6 C       98   6 C                                       1.3969568
    92   6 C       99   6 C                                       1.3974140
    98   6 C       99   6 C                                       1.3739056
    91   7 N      100   6 C                                       1.4089284
   100   6 C      101   6 C                                       1.3919947
   101   6 C      102   6 C                                       1.3792986
   102   6 C      103   6 C                                       1.3888675
   103   6 C      106   6 C                                       1.3936975
   100   6 C      107   6 C                                       1.3931111
   106   6 C      107   6 C                                       1.3780062
    87   6 C      108   6 C                                       1.3888159
    90   6 C      108   6 C                                       1.4152758
    68   6 C      109  16 S                                       1.7371191
   108   6 C      109  16 S                                       1.7319632
    89   6 C      110   6 C                                       1.4026549
   110   6 C      111   6 C                                       1.3755201
   112   6 C      113   8 O                                       1.2171958
   114   6 C      115   6 C                                       1.3919039
   115   6 C      116   6 C                                       1.3748534
   116   6 C      117   6 C                                       1.3999234
   117   6 C      118   6 C                                       1.3759898
   114   6 C      119   6 C                                       1.4077102
   118   6 C      119   6 C                                       1.3976380
   111   6 C      120   6 C                                       1.4387117
   120   6 C      121   6 C                                       1.3726332
   122   6 C      123   7 N                                       1.1485090
   124   6 C      125   7 N                                       1.1486613
   117   6 C      126   6 C                                       1.5088214
   126   6 C      127   6 C                                       1.5437895
   128   6 C      129   6 C                                       1.3268633
   127   6 C      131   6 C                                       1.5342605
   130   6 C      131   6 C                                       1.5336841
   116   6 C      132   6 C                                       1.5097488
   126   6 C      132   6 C                                       1.5626486
   130   6 C      132   6 C                                       1.5430614
     1   6 C      133   1 H                                       1.0859504
     6   6 C      134   1 H                                       1.0787845
     9   6 C      135   1 H                                       1.0779865
    17   6 C      136   1 H                                       1.0880480
    18   6 C      137   1 H                                       1.0867222
    19   6 C      138   1 H                                       1.0743637
    20   6 C      139   1 H                                       1.0743639
    21   6 C      140   1 H                                       1.0867927
    22   6 C      141   1 H                                       1.0889952
    22   6 C      142   1 H                                       1.0890343
    23   6 C      143   1 H                                       1.0881177
    25   6 C      144   1 H                                       1.0774820
    29   6 C      145   1 H                                       1.0767901
    30   6 C      146   1 H                                       1.0761624
    33   6 C      147   1 H                                       1.0894090
    33   6 C      148   1 H                                       1.0948462
    34   6 C      149   1 H                                       1.0874274
    34   6 C      150   1 H                                       1.0901055
    34   6 C      151   1 H                                       1.0878392
    40   6 C      152   1 H                                       1.0774429
    41   6 C      153   1 H                                       1.0768265
    44   6 C      154   1 H                                       1.0895526
    44   6 C      155   1 H                                       1.0891645
    45   6 C      156   1 H                                       1.0882237
    45   6 C      157   1 H                                       1.0914712
    45   6 C      158   1 H                                       1.0874484
    49   6 C      159   1 H                                       1.0740986
    56   6 C      160   1 H                                       1.0922357
    56   6 C      161   1 H                                       1.0927898
    57   6 C      162   1 H                                       1.0861411
    57   6 C      163   1 H                                       1.0881049
    57   6 C      164   1 H                                       1.0904889
    65   6 C      165   1 H                                       1.0945070
    65   6 C      166   1 H                                       1.0928123
    66   6 C      167   1 H                                       1.0870907
    66   6 C      168   1 H                                       1.0878297
    66   6 C      169   1 H                                       1.0879422
    72   6 C      170   1 H                                       1.0783490
    73   6 C      171   1 H                                       1.0782591
    76   6 C      172   1 H                                       1.0859806
    76   6 C      173   1 H                                       1.0877515
    76   6 C      174   1 H                                       1.0859117
    77   6 C      175   1 H                                       1.0813984
    78   6 C      176   1 H                                       1.0775567
    80   6 C      177   1 H                                       1.0775212
    81   6 C      178   1 H                                       1.0790133
    84   6 C      179   1 H                                       1.0859169
    84   6 C      180   1 H                                       1.0855388
    84   6 C      181   1 H                                       1.0861662
    85   6 C      182   1 H                                       1.0782579
    86   6 C      183   1 H                                       1.0795664
    93   6 C      184   1 H                                       1.0796956
    94   6 C      185   1 H                                       1.0782576
    97   6 C      186   1 H                                       1.0853740
    97   6 C      187   1 H                                       1.0862169
    97   6 C      188   1 H                                       1.0862597
    98   6 C      189   1 H                                       1.0789801
    99   6 C      190   1 H                                       1.0793047
   101   6 C      191   1 H                                       1.0783150
   102   6 C      192   1 H                                       1.0774749
   105   6 C      193   1 H                                       1.0863655
   105   6 C      194   1 H                                       1.0856753
   105   6 C      195   1 H                                       1.0862025
   106   6 C      196   1 H                                       1.0790558
   107   6 C      197   1 H                                       1.0799517
   110   6 C      198   1 H                                       1.0833941
   115   6 C      199   1 H                                       1.0789643
   118   6 C      200   1 H                                       1.0778539
   126   6 C      201   1 H                                       1.0882403
   127   6 C      202   1 H                                       1.0868711
   128   6 C      203   1 H                                       1.0740772 (min)
   129   6 C      204   1 H                                       1.0741752
   130   6 C      205   1 H                                       1.0868387
   131   6 C      206   1 H                                       1.0883611
   131   6 C      207   1 H                                       1.0888628
   132   6 C      208   1 H                                       1.0884113

 * 6 distinct bonds (by element types)

   Z      Z             #   av. dist./Å        max./Å        min./Å
   1 H    6 C          76     1.0839968     1.0948462     1.0740772
   6 C    6 C          93     1.4201632     1.5626486     1.3263360
   6 C    7 N          14     1.3039827     1.4136417     1.1477517
   6 C    8 O           2     1.2134636     1.2171958     1.2097315
   6 C   16 S          10     1.7401167     1.7546820     1.7238451
   6 C   34 Se          4     1.8816953     1.8899922     1.8747765


optimized geometry written to: xtbopt.mol


           -------------------------------------------------
          | TOTAL ENERGY             -346.715753921540 Eh   |
          | GRADIENT NORM               0.000512600417 Eh/α |
          | HOMO-LUMO GAP               0.520039052972 eV   |
           -------------------------------------------------

------------------------------------------------------------------------
 * finished run on 2022/02/09 at 08:42:01.971     
------------------------------------------------------------------------
 total:
 * wall-time:     0 d,  0 h,  3 min, 34.939 sec
 *  cpu-time:     0 d,  0 h, 28 min, 39.289 sec
 * ratio c/w:     7.999 speedup
 SCF:
 * wall-time:     0 d,  0 h,  0 min,  1.051 sec
 *  cpu-time:     0 d,  0 h,  0 min,  8.390 sec
 * ratio c/w:     7.981 speedup
 ANC optimizer:
 * wall-time:     0 d,  0 h,  3 min, 33.768 sec
 *  cpu-time:     0 d,  0 h, 28 min, 30.038 sec
 * ratio c/w:     8.000 speedup

