      -----------------------------------------------------------      
     |                   =====================                   |     
     |                           x T B                           |     
     |                   =====================                   |     
     |                         S. Grimme                         |     
     |          Mulliken Center for Theoretical Chemistry        |     
     |                    University of Bonn                     |     
      -----------------------------------------------------------      

   * xtb version 6.4.1 (unknown) compiled by 'oda6@login1.crc.pitt.edu' on 2021-06-25

   xtb is free software: you can redistribute it and/or modify it under
   the terms of the GNU Lesser General Public License as published by
   the Free Software Foundation, either version 3 of the License, or
   (at your option) any later version.
   
   xtb is distributed in the hope that it will be useful,
   but WITHOUT ANY WARRANTY; without even the implied warranty of
   MERCHANTABILITY or FITNESS FOR A PARTICULAR PURPOSE.  See the
   GNU Lesser General Public License for more details.
   
   Cite this work as:
   * C. Bannwarth, E. Caldeweyher, S. Ehlert, A. Hansen, P. Pracht,
     J. Seibert, S. Spicher, S. Grimme, WIREs Comput. Mol. Sci., 2020, 11,
     e01493. DOI: 10.1002/wcms.1493
   
   for GFN2-xTB:
   * C. Bannwarth, S. Ehlert and S. Grimme., J. Chem. Theory Comput., 2019,
     15, 1652-1671. DOI: 10.1021/acs.jctc.8b01176
   for GFN1-xTB:
   * S. Grimme, C. Bannwarth, P. Shushkov, J. Chem. Theory Comput., 2017,
     13, 1989-2009. DOI: 10.1021/acs.jctc.7b00118
   for GFN0-xTB:
   * P. Pracht, E. Caldeweyher, S. Ehlert, S. Grimme, ChemRxiv, 2019, preprint.
     DOI: 10.26434/chemrxiv.8326202.v1
   for GFN-FF:
   * S. Spicher and S. Grimme, Angew. Chem. Int. Ed., 2020, 59, 15665-15673.
     DOI: 10.1002/anie.202004239
   
   for DFT-D4:
   * E. Caldeweyher, C. Bannwarth and S. Grimme, J. Chem. Phys., 2017,
     147, 034112. DOI: 10.1063/1.4993215
   * E. Caldeweyher, S. Ehlert, A. Hansen, H. Neugebauer, S. Spicher,
     C. Bannwarth and S. Grimme, J. Chem. Phys., 2019, 150, 154122.
     DOI: 10.1063/1.5090222
   * E. Caldeweyher, J.-M. Mewes, S. Ehlert and S. Grimme, Phys. Chem. Chem. Phys.
     2020, 22, 8499-8512. DOI: 10.1039/D0CP00502A
   
   for sTDA-xTB:
   * S. Grimme and C. Bannwarth, J. Chem. Phys., 2016, 145, 054103.
     DOI: 10.1063/1.4959605
   
   in the mass-spec context:
   * V. Asgeirsson, C. Bauer and S. Grimme, Chem. Sci., 2017, 8, 4879.
     DOI: 10.1039/c7sc00601b
   * J. Koopman and S. Grimme, ACS Omega 2019, 4, 12, 15120-15133.
     DOI: 10.1021/acsomega.9b02011
   
   for metadynamics refer to:
   * S. Grimme, J. Chem. Theory Comput., 2019, 155, 2847-2862
     DOI: 10.1021/acs.jctc.9b00143
   
   for SPH calculations refer to:
   * S. Spicher and S. Grimme, J. Chem. Theory Comput., 2021, 17, 1701-1714
     DOI: 10.1021/acs.jctc.0c01306
   
   with help from (in alphabetical order)
   P. Atkinson, C. Bannwarth, F. Bohle, G. Brandenburg, E. Caldeweyher
   M. Checinski, S. Dohm, S. Ehlert, S. Ehrlich, I. Gerasimov, J. Koopman
   C. Lavigne, S. Lehtola, F. März, M. Müller, F. Musil, H. Neugebauer
   J. Pisarek, C. Plett, P. Pracht, J. Seibert, P. Shushkov, S. Spicher
   M. Stahn, M. Steiner, T. Strunk, J. Stückrath, T. Rose, and J. Unsleber
   
 * started run on 2022/02/13 at 08:06:46.083     

           -------------------------------------------------
          |                Calculation Setup                |
           -------------------------------------------------

          program call               : /ihome/ghutchison/oda6/xtb/xtb-641/bin/xtb ../../FF_optimized/39_130_127_28_39.mol -opt
          hostname                   : smp-n25
          coordinate file            : ../../FF_optimized/39_130_127_28_39.mol
          omp threads                :                     8
          number of atoms            :                   230
          number of electrons        :                   692
          charge                     :                     0
          spin                       :                   0.0
          first test random number   :      0.66970677856592

   ID    Z sym.   atoms
    1    6 C      1-3, 5-13, 15, 17-25, 27-30, 32-38, 40-43, 45, 46, 48-51,
                  53-59, 61-64, 66, 67, 69, 71, 72, 74-77, 79-83, 85-99, 101,
                  102, 104-118, 120-122, 124-132, 134, 136-142
    2    8 O      4, 123
    3    7 N      14, 16, 26, 47, 73, 78, 84, 103, 133, 135
    4   16 S      31, 39, 44, 52, 60, 65, 100, 119
    5    9 F      68, 70
    6    1 H      143-230
########################################################################
[WARNING] Please study the warnings concerning your input carefully
-1- prog_main_parseArguments: the use of '-opt' is discouraged, please use '--opt' next time
########################################################################

           -------------------------------------------------
          |                 G F N 2 - x T B                 |
           -------------------------------------------------

        Reference                      10.1021/acs.jctc.8b01176
      * Hamiltonian:
        H0-scaling (s, p, d)           1.850000    2.230000    2.230000
        zeta-weighting                 0.500000
      * Dispersion:
        s8                             2.700000
        a1                             0.520000
        a2                             5.000000
        s9                             5.000000
      * Repulsion:
        kExp                           1.500000    1.000000
        rExp                           1.000000
      * Coulomb:
        alpha                          2.000000
        third order                    shell-resolved
        anisotropic                    true
        a3                             3.000000
        a5                             4.000000
        cn-shift                       1.200000
        cn-exp                         4.000000
        max-rad                        5.000000


          ...................................................
          :                      SETUP                      :
          :.................................................:
          :  # basis functions                 704          :
          :  # atomic orbitals                 696          :
          :  # shells                          380          :
          :  # electrons                       692          :
          :  max. iterations                   250          :
          :  Hamiltonian                  GFN2-xTB          :
          :  restarted?                      false          :
          :  GBSA solvation                  false          :
          :  PC potential                    false          :
          :  electronic temp.          300.0000000     K    :
          :  accuracy                    1.0000000          :
          :  -> integral cutoff          0.2500000E+02      :
          :  -> integral neglect         0.1000000E-07      :
          :  -> SCF convergence          0.1000000E-05 Eh   :
          :  -> wf. convergence          0.1000000E-03 e    :
          :  Broyden damping             0.4000000          :
          ...................................................

 iter      E             dE          RMSdq      gap      omega  full diag
   1   -379.5897014 -0.379590E+03  0.461E+00    1.16       0.0  T
   2   -379.8252231 -0.235522E+00  0.276E+00    0.91       1.0  T
   3   -379.3496338  0.475589E+00  0.183E+00    0.10       1.0  T
   4   -379.9106509 -0.561017E+00  0.652E-01    0.64       1.0  T
   5   -379.9896850 -0.790342E-01  0.220E-01    0.26       1.0  T
   6   -379.9945330 -0.484793E-02  0.101E-01    0.22       1.0  T
   7   -379.9948675 -0.334507E-03  0.550E-02    0.16       1.0  T
   8   -379.9951075 -0.239984E-03  0.438E-02    0.33       1.0  T
   9   -379.9959445 -0.837059E-03  0.177E-02    0.25       1.0  T
  10   -379.9960013 -0.568319E-04  0.845E-03    0.22       1.0  T
  11   -379.9959955  0.581815E-05  0.574E-03    0.20       1.1  T
  12   -379.9960094 -0.138441E-04  0.330E-03    0.22       2.0  T
  13   -379.9960134 -0.401721E-05  0.127E-03    0.21       5.2  T
  14   -379.9960139 -0.551007E-06  0.622E-04    0.22      10.6  T
  15   -379.9960140 -0.574926E-07  0.348E-04    0.21      19.0  T

   *** convergence criteria satisfied after 15 iterations ***

         #    Occupation            Energy/Eh            Energy/eV
      -------------------------------------------------------------
         1        2.0000           -0.8304857             -22.5987
       ...           ...                  ...                  ...
       340        2.0000           -0.3681364             -10.0175
       341        2.0000           -0.3664557              -9.9718
       342        2.0000           -0.3604760              -9.8091
       343        2.0000           -0.3586607              -9.7597
       344        2.0000           -0.3547494              -9.6532
       345        2.0000           -0.3472292              -9.4486
       346        1.9627           -0.3386171              -9.2142 (HOMO)
       347        0.0255           -0.3307185              -8.9993 (LUMO)
       348        0.0118           -0.3299834              -8.9793
       349        0.0000           -0.3246429              -8.8340
       350        0.0000           -0.3204500              -8.7199
       351                         -0.3177692              -8.6469
       ...                                ...                  ...
       696                          1.0864385              29.5635
      -------------------------------------------------------------
                  HL-Gap            0.0078986 Eh            0.2149 eV
             Fermi-level           -0.3348524 Eh           -9.1118 eV

 SCC (total)                   0 d,  0 h,  0 min,  1.100 sec
 SCC setup                      ...        0 min,  0.005 sec (  0.421%)
 Dispersion                     ...        0 min,  0.013 sec (  1.163%)
 classical contributions        ...        0 min,  0.001 sec (  0.050%)
 integral evaluation            ...        0 min,  0.053 sec (  4.836%)
 iterations                     ...        0 min,  0.845 sec ( 76.807%)
 molecular gradient             ...        0 min,  0.178 sec ( 16.180%)
 printout                       ...        0 min,  0.006 sec (  0.533%)

         :::::::::::::::::::::::::::::::::::::::::::::::::::::
         ::                     SUMMARY                     ::
         :::::::::::::::::::::::::::::::::::::::::::::::::::::
         :: total energy            -374.295476846579 Eh    ::
         :: gradient norm              0.323016720174 Eh/a0 ::
         :: HOMO-LUMO gap              0.214932909943 eV    ::
         ::.................................................::
         :: SCC energy              -379.996013999237 Eh    ::
         :: -> isotropic ES            0.160214172771 Eh    ::
         :: -> anisotropic ES          0.035723491224 Eh    ::
         :: -> anisotropic XC          0.251231633330 Eh    ::
         :: -> dispersion             -0.389913999440 Eh    ::
         :: repulsion energy           5.682674281156 Eh    ::
         :: add. restraining           0.000000000000 Eh    ::
         :: total charge               0.000000000002 e     ::
         :::::::::::::::::::::::::::::::::::::::::::::::::::::

      ----------------------------------------------------------- 
     |                   =====================                   |
     |                        A N C O P T                        |
     |                   =====================                   |
     |               Approximate Normal Coordinate               |
     |                Rational Function Optimizer                |
      ----------------------------------------------------------- 

          ...................................................
          :                      SETUP                      :
          :.................................................:
          :   optimization level            normal          :
          :   max. optcycles                   690          :
          :   ANC micro-cycles                  20          :
          :   degrees of freedom               684          :
          :.................................................:
          :   RF solver                   davidson          :
          :   write xtbopt.log                true          :
          :   linear?                        false          :
          :   energy convergence         0.5000000E-05 Eh   :
          :   grad. convergence          0.1000000E-02 Eh/α :
          :   maximium RF displ.         1.0000000          :
          :   Hlow (freq-cutoff)         0.1000000E-01      :
          :   Hmax (freq-cutoff)         5.0000000          :
          :   S6 in model hess.         20.0000000          :
          ...................................................

generating ANC from model Hessian ...
Using Lindh-Hessian (1995)
 Shifting diagonal of input Hessian by   1.003560634334616E-002
 Lowest  eigenvalues of input Hessian
    0.010000    0.010015    0.010024    0.000000    0.000000    0.000000
    0.000000    0.000000    0.000000    0.010052    0.010059    0.010067
    0.010094    0.010099    0.010111    0.010136    0.010156    0.010162
 Highest eigenvalues
    2.149598    2.163937    2.500317    2.501985    2.558466    2.565901
 

........................................................................
.............................. CYCLE    1 ..............................
........................................................................
   1   -379.9960140 -0.379996E+03  0.190E-04    0.22       0.0  T
   2   -379.9960140  0.354436E-07  0.281E-04    0.21      23.4  T
   3   -379.9960140 -0.451569E-07  0.929E-05    0.22      71.0  T
     SCC iter.                  ...        0 min,  0.172 sec
     gradient                   ...        0 min,  0.169 sec
 * total energy  :  -374.2954769 Eh     change       -0.2891989E-07 Eh
   gradient norm :     0.3230143 Eh/α   predicted     0.0000000E+00 (-100.00%)
   displ. norm   :     0.5144496 α      lambda       -0.1201128E+00
   maximum displ.:     0.0983394 α      in ANC's #357, #358, #427, ...

........................................................................
.............................. CYCLE    2 ..............................
........................................................................
   1   -380.2635560 -0.380264E+03  0.234E-01    0.21       0.0  T
   2   -380.2649519 -0.139589E-02  0.150E-01    0.29       1.0  T
   3   -380.2611950  0.375695E-02  0.107E-01    0.14       1.0  T
   4   -380.2635236 -0.232864E-02  0.716E-02    0.42       1.0  T
   5   -380.2655275 -0.200394E-02  0.330E-02    0.31       1.0  T
   6   -380.2656691 -0.141554E-03  0.186E-02    0.29       1.0  T
   7   -380.2658337 -0.164583E-03  0.906E-03    0.24       1.0  T
   8   -380.2658437 -0.998450E-05  0.397E-03    0.23       1.7  T
   9   -380.2658450 -0.130342E-05  0.183E-03    0.23       3.6  T
  10   -380.2658453 -0.347700E-06  0.100E-03    0.23       6.6  T
  11   -380.2658456 -0.298810E-06  0.373E-04    0.23      17.7  T
  12   -380.2658456 -0.112991E-07  0.226E-04    0.23      29.1  T
     SCC iter.                  ...        0 min,  0.650 sec
     gradient                   ...        0 min,  0.170 sec
 * total energy  :  -374.3836820 Eh     change       -0.8820515E-01 Eh
   gradient norm :     0.1492635 Eh/α   predicted    -0.7599724E-01 ( -13.84%)
   displ. norm   :     0.5336058 α      lambda       -0.5171020E-01
   maximum displ.:     0.0923764 α      in ANC's #357, #104, #358, ...

........................................................................
.............................. CYCLE    3 ..............................
........................................................................
   1   -380.4403860 -0.380440E+03  0.191E-01    0.18       0.0  T
   2   -380.4411972 -0.811183E-03  0.127E-01    0.38       1.0  T
   3   -380.4377671  0.343013E-02  0.101E-01    0.14       1.0  T
   4   -380.4405987 -0.283161E-02  0.649E-02    0.41       1.0  T
   5   -380.4422121 -0.161346E-02  0.309E-02    0.33       1.0  T
   6   -380.4423941 -0.181940E-03  0.183E-02    0.29       1.0  T
   7   -380.4425407 -0.146584E-03  0.106E-02    0.26       1.0  T
   8   -380.4425662 -0.255377E-04  0.429E-03    0.24       1.5  T
   9   -380.4425675 -0.135304E-05  0.204E-03    0.23       3.2  T
  10   -380.4425680 -0.414276E-06  0.101E-03    0.23       6.5  T
  11   -380.4425683 -0.310414E-06  0.411E-04    0.23      16.0  T
  12   -380.4425683 -0.128581E-07  0.239E-04    0.23      27.6  T
     SCC iter.                  ...        0 min,  0.656 sec
     gradient                   ...        0 min,  0.170 sec
 * total energy  :  -374.4172712 Eh     change       -0.3358917E-01 Eh
   gradient norm :     0.0440273 Eh/α   predicted    -0.3321697E-01 (  -1.11%)
   displ. norm   :     0.5907956 α      lambda       -0.1681702E-01
   maximum displ.:     0.1327523 α      in ANC's #104, #137, #98, ...

........................................................................
.............................. CYCLE    4 ..............................
........................................................................
   1   -380.5084263 -0.380508E+03  0.158E-01    0.20       0.0  T
   2   -380.5084406 -0.142836E-04  0.972E-02    0.31       1.0  T
   3   -380.4779117  0.305290E-01  0.196E-01    0.08       1.0  T
   4   -380.5076211 -0.297095E-01  0.564E-02    0.37       1.0  T
   5   -380.5084909 -0.869794E-03  0.318E-02    0.33       1.0  T
   6   -380.5085361 -0.451483E-04  0.259E-02    0.32       1.0  T
   7   -380.5086978 -0.161727E-03  0.210E-02    0.30       1.0  T
   8   -380.5087429 -0.451336E-04  0.182E-02    0.29       1.0  T
   9   -380.5088125 -0.695090E-04  0.141E-02    0.28       1.0  T
  10   -380.5089150 -0.102513E-03  0.512E-03    0.25       1.3  T
  11   -380.5089303 -0.153150E-04  0.106E-03    0.23       6.2  T
  12   -380.5089306 -0.270041E-06  0.520E-04    0.23      12.7  T
  13   -380.5089306 -0.498890E-07  0.301E-04    0.23      21.9  T
     SCC iter.                  ...        0 min,  0.700 sec
     gradient                   ...        0 min,  0.169 sec
 * total energy  :  -374.4281938 Eh     change       -0.1092256E-01 Eh
   gradient norm :     0.0311389 Eh/α   predicted    -0.1134342E-01 (   3.85%)
   displ. norm   :     0.7396916 α      lambda       -0.1468767E-01
   maximum displ.:     0.1588633 α      in ANC's #104, #91, #92, ...

........................................................................
.............................. CYCLE    5 ..............................
........................................................................
   1   -380.5498782 -0.380550E+03  0.281E-01    0.20       0.0  T
   2   -380.5499947 -0.116419E-03  0.162E-01    0.30       1.0  T
   3   -380.3182446  0.231750E+00  0.544E-01    0.00       1.0  T
   4   -380.5488495 -0.230605E+00  0.701E-02    0.41       1.0  T
   5   -380.5499584 -0.110890E-02  0.381E-02    0.38       1.0  T
   6   -380.5499780 -0.195575E-04  0.336E-02    0.37       1.0  T
   7   -380.5501663 -0.188289E-03  0.297E-02    0.34       1.0  T
   8   -380.5502016 -0.352954E-04  0.275E-02    0.33       1.0  T
   9   -380.5502715 -0.699428E-04  0.247E-02    0.32       1.0  T
  10   -380.5503967 -0.125137E-03  0.190E-02    0.29       1.0  T
  11   -380.5504864 -0.897836E-04  0.138E-02    0.27       1.0  T
  12   -380.5505881 -0.101604E-03  0.443E-03    0.24       1.5  T
  13   -380.5505995 -0.114774E-04  0.690E-04    0.23       9.6  T
  14   -380.5505995 -0.154492E-07  0.468E-04    0.23      14.1  T
  15   -380.5505996 -0.239898E-07  0.330E-04    0.23      20.0  T
     SCC iter.                  ...        0 min,  0.805 sec
     gradient                   ...        0 min,  0.169 sec
 * total energy  :  -374.4327867 Eh     change       -0.4592924E-02 Eh
   gradient norm :     0.0419795 Eh/α   predicted    -0.1136197E-01 ( 147.38%)
   displ. norm   :     0.4162577 α      lambda       -0.8427275E-02
   maximum displ.:     0.0876690 α      in ANC's #49, #70, #74, ...

........................................................................
.............................. CYCLE    6 ..............................
........................................................................
   1   -380.5667232 -0.380567E+03  0.162E-01    0.21       0.0  T
   2   -380.5667815 -0.582811E-04  0.906E-02    0.25       1.0  T
   3   -380.5629758  0.380564E-02  0.708E-02    0.13       1.0  T
   4   -380.5665392 -0.356337E-02  0.245E-02    0.29       1.0  T
   5   -380.5668110 -0.271834E-03  0.102E-02    0.26       1.0  T
   6   -380.5668453 -0.343077E-04  0.622E-03    0.25       1.1  T
   7   -380.5668687 -0.233922E-04  0.218E-03    0.23       3.0  T
   8   -380.5668696 -0.872280E-06  0.127E-03    0.23       5.2  T
   9   -380.5668698 -0.236824E-06  0.548E-04    0.23      12.0  T
  10   -380.5668699 -0.545856E-07  0.249E-04    0.23      26.4  T
     SCC iter.                  ...        0 min,  0.552 sec
     gradient                   ...        0 min,  0.170 sec
 * total energy  :  -374.4378975 Eh     change       -0.5110833E-02 Eh
   gradient norm :     0.0312806 Eh/α   predicted    -0.4943753E-02 (  -3.27%)
   displ. norm   :     0.5702343 α      lambda       -0.5914235E-02
   maximum displ.:     0.2564282 α      in ANC's #73, #51, #20, ...

........................................................................
.............................. CYCLE    7 ..............................
........................................................................
   1   -380.5503750 -0.380550E+03  0.236E-01    0.21       0.0  T
   2   -380.5504248 -0.497158E-04  0.133E-01    0.26       1.0  T
   3   -380.5261145  0.243103E-01  0.174E-01    0.08       1.0  T
   4   -380.5495529 -0.234384E-01  0.536E-02    0.35       1.0  T
   5   -380.5504465 -0.893623E-03  0.242E-02    0.29       1.0  T
   6   -380.5504936 -0.470871E-04  0.194E-02    0.28       1.0  T
   7   -380.5506143 -0.120660E-03  0.137E-02    0.26       1.0  T
   8   -380.5506663 -0.520488E-04  0.985E-03    0.26       1.0  T
   9   -380.5507065 -0.401612E-04  0.533E-03    0.25       1.2  T
  10   -380.5507243 -0.178258E-04  0.113E-03    0.23       5.9  T
  11   -380.5507243  0.562773E-08  0.716E-04    0.23       9.2  T
  12   -380.5507245 -0.191757E-06  0.349E-04    0.23      18.9  T
     SCC iter.                  ...        0 min,  0.651 sec
     gradient                   ...        0 min,  0.169 sec
 * total energy  :  -374.4384537 Eh     change       -0.5561387E-03 Eh
   gradient norm :     0.0347347 Eh/α   predicted    -0.3918676E-02 ( 604.62%)
   displ. norm   :     0.3874442 α      lambda       -0.6579981E-02
   maximum displ.:     0.0999746 α      in ANC's #32, #30, #20, ...

........................................................................
.............................. CYCLE    8 ..............................
........................................................................
   1   -380.5661177 -0.380566E+03  0.169E-01    0.23       0.0  T
   2   -380.5661999 -0.821708E-04  0.942E-02    0.23       1.0  T
   3   -380.5655165  0.683347E-03  0.467E-02    0.19       1.0  T
   4   -380.5661910 -0.674457E-03  0.129E-02    0.25       1.0  T
   5   -380.5662753 -0.843520E-04  0.412E-03    0.23       1.6  T
   6   -380.5662760 -0.630200E-06  0.276E-03    0.24       2.4  T
   7   -380.5662767 -0.764640E-06  0.195E-03    0.23       3.4  T
   8   -380.5662788 -0.205655E-05  0.614E-04    0.23      10.7  T
   9   -380.5662789 -0.768464E-07  0.274E-04    0.23      24.0  T
  10   -380.5662789 -0.103656E-07  0.149E-04    0.23      44.2  T
     SCC iter.                  ...        0 min,  0.536 sec
     gradient                   ...        0 min,  0.169 sec
 * total energy  :  -374.4419843 Eh     change       -0.3530651E-02 Eh
   gradient norm :     0.0343248 Eh/α   predicted    -0.3783865E-02 (   7.17%)
   displ. norm   :     0.4325047 α      lambda       -0.2837151E-02
   maximum displ.:     0.1359390 α      in ANC's #20, #51, #52, ...

........................................................................
.............................. CYCLE    9 ..............................
........................................................................
   1   -380.5752938 -0.380575E+03  0.833E-02    0.21       0.0  T
   2   -380.5752778  0.160427E-04  0.489E-02    0.26       1.0  T
   3   -380.5721127  0.316512E-02  0.655E-02    0.14       1.0  T
   4   -380.5750768 -0.296416E-02  0.245E-02    0.29       1.0  T
   5   -380.5753231 -0.246307E-03  0.107E-02    0.26       1.0  T
   6   -380.5753578 -0.346408E-04  0.727E-03    0.25       1.0  T
   7   -380.5753879 -0.300852E-04  0.340E-03    0.24       1.9  T
   8   -380.5753928 -0.490595E-05  0.176E-03    0.24       3.7  T
   9   -380.5753937 -0.896993E-06  0.683E-04    0.23       9.7  T
  10   -380.5753938 -0.149624E-06  0.265E-04    0.23      24.8  T
     SCC iter.                  ...        0 min,  0.550 sec
     gradient                   ...        0 min,  0.170 sec
 * total energy  :  -374.4439533 Eh     change       -0.1968951E-02 Eh
   gradient norm :     0.0163196 Eh/α   predicted    -0.1683944E-02 ( -14.48%)
   displ. norm   :     0.6609774 α      lambda       -0.2769885E-02
   maximum displ.:     0.2159322 α      in ANC's #20, #51, #52, ...

........................................................................
.............................. CYCLE   10 ..............................
........................................................................
   1   -380.5799660 -0.380580E+03  0.124E-01    0.22       0.0  T
   2   -380.5799839 -0.179055E-04  0.707E-02    0.26       1.0  T
   3   -380.5771071  0.287684E-02  0.666E-02    0.15       1.0  T
   4   -380.5797219 -0.261480E-02  0.265E-02    0.30       1.0  T
   5   -380.5800487 -0.326829E-03  0.101E-02    0.26       1.0  T
   6   -380.5800850 -0.363083E-04  0.569E-03    0.25       1.2  T
   7   -380.5801029 -0.179111E-04  0.234E-03    0.24       2.8  T
   8   -380.5801037 -0.757389E-06  0.141E-03    0.24       4.7  T
   9   -380.5801040 -0.278840E-06  0.704E-04    0.24       9.4  T
  10   -380.5801041 -0.165235E-06  0.244E-04    0.24      27.0  T
     SCC iter.                  ...        0 min,  0.546 sec
     gradient                   ...        0 min,  0.170 sec
 * total energy  :  -374.4460163 Eh     change       -0.2063012E-02 Eh
   gradient norm :     0.0169684 Eh/α   predicted    -0.1990013E-02 (  -3.54%)
   displ. norm   :     0.7623785 α      lambda       -0.3584999E-02
   maximum displ.:     0.2517564 α      in ANC's #20, #51, #52, ...

........................................................................
.............................. CYCLE   11 ..............................
........................................................................
   1   -380.5838728 -0.380584E+03  0.134E-01    0.23       0.0  T
   2   -380.5839099 -0.371738E-04  0.766E-02    0.25       1.0  T
   3   -380.5827658  0.114411E-02  0.530E-02    0.19       1.0  T
   4   -380.5838896 -0.112381E-02  0.162E-02    0.27       1.0  T
   5   -380.5840224 -0.132752E-03  0.492E-03    0.24       1.3  T
   6   -380.5840253 -0.287004E-05  0.282E-03    0.24       2.3  T
   7   -380.5840259 -0.657536E-06  0.184E-03    0.24       3.6  T
   8   -380.5840273 -0.135495E-05  0.741E-04    0.24       8.9  T
   9   -380.5840274 -0.110011E-06  0.285E-04    0.24      23.1  T
  10   -380.5840274 -0.851702E-08  0.136E-04    0.24      48.4  T
     SCC iter.                  ...        0 min,  0.536 sec
     gradient                   ...        0 min,  0.169 sec
 * total energy  :  -374.4482976 Eh     change       -0.2281298E-02 Eh
   gradient norm :     0.0233175 Eh/α   predicted    -0.2834338E-02 (  24.24%)
   displ. norm   :     0.6598221 α      lambda       -0.2516810E-02
   maximum displ.:     0.2371783 α      in ANC's #20, #52, #51, ...

........................................................................
.............................. CYCLE   12 ..............................
........................................................................
   1   -380.5739991 -0.380574E+03  0.114E-01    0.23       0.0  T
   2   -380.5740023 -0.325149E-05  0.651E-02    0.26       1.0  T
   3   -380.5724108  0.159147E-02  0.562E-02    0.17       1.0  T
   4   -380.5739597 -0.154883E-02  0.171E-02    0.28       1.0  T
   5   -380.5741107 -0.150975E-03  0.524E-03    0.25       1.3  T
   6   -380.5741180 -0.738348E-05  0.272E-03    0.24       2.4  T
   7   -380.5741177  0.387457E-06  0.202E-03    0.24       3.3  T
   8   -380.5741192 -0.152735E-05  0.889E-04    0.24       7.4  T
   9   -380.5741194 -0.187200E-06  0.348E-04    0.24      19.0  T
  10   -380.5741194 -0.270272E-07  0.153E-04    0.24      43.2  T
     SCC iter.                  ...        0 min,  0.548 sec
     gradient                   ...        0 min,  0.170 sec
 * total energy  :  -374.4502061 Eh     change       -0.1908544E-02 Eh
   gradient norm :     0.0201930 Eh/α   predicted    -0.1806272E-02 (  -5.36%)
   displ. norm   :     0.7020694 α      lambda       -0.2458507E-02
   maximum displ.:     0.2636293 α      in ANC's #20, #52, #51, ...

........................................................................
.............................. CYCLE   13 ..............................
........................................................................
   1   -380.5802957 -0.380580E+03  0.108E-01    0.24       0.0  T
   2   -380.5803220 -0.262959E-04  0.610E-02    0.26       1.0  T
   3   -380.5796605  0.661440E-03  0.403E-02    0.20       1.0  T
   4   -380.5802830 -0.622454E-03  0.139E-02    0.28       1.0  T
   5   -380.5803820 -0.990356E-04  0.449E-03    0.24       1.5  T
   6   -380.5803847 -0.262466E-05  0.201E-03    0.24       3.3  T
   7   -380.5803849 -0.285634E-06  0.974E-04    0.24       6.8  T
   8   -380.5803852 -0.280722E-06  0.465E-04    0.24      14.2  T
     SCC iter.                  ...        0 min,  0.433 sec
     gradient                   ...        0 min,  0.169 sec
 * total energy  :  -374.4520643 Eh     change       -0.1858154E-02 Eh
   gradient norm :     0.0202166 Eh/α   predicted    -0.1835168E-02 (  -1.24%)
   displ. norm   :     0.7343620 α      lambda       -0.2085591E-02
   maximum displ.:     0.2822429 α      in ANC's #20, #52, #51, ...

........................................................................
.............................. CYCLE   14 ..............................
........................................................................
   1   -380.5877570 -0.380588E+03  0.940E-02    0.24       0.0  T
   2   -380.5877636 -0.664224E-05  0.534E-02    0.26       1.0  T
   3   -380.5870423  0.721343E-03  0.407E-02    0.20       1.0  T
   4   -380.5877440 -0.701671E-03  0.133E-02    0.27       1.0  T
   5   -380.5878290 -0.850778E-04  0.481E-03    0.24       1.4  T
   6   -380.5878326 -0.353414E-05  0.226E-03    0.25       2.9  T
   7   -380.5878331 -0.526380E-06  0.134E-03    0.24       4.9  T
   8   -380.5878338 -0.737861E-06  0.425E-04    0.25      15.5  T
   9   -380.5878339 -0.352679E-07  0.190E-04    0.25      34.6  T
     SCC iter.                  ...        0 min,  0.491 sec
     gradient                   ...        0 min,  0.169 sec
 * total energy  :  -374.4538185 Eh     change       -0.1754196E-02 Eh
   gradient norm :     0.0117394 Eh/α   predicted    -0.1605165E-02 (  -8.50%)
   displ. norm   :     0.7741148 α      lambda       -0.2024139E-02
   maximum displ.:     0.3065946 α      in ANC's #20, #52, #51, ...

........................................................................
.............................. CYCLE   15 ..............................
........................................................................
   1   -380.5904841 -0.380590E+03  0.995E-02    0.24       0.0  T
   2   -380.5904934 -0.925653E-05  0.558E-02    0.26       1.0  T
   3   -380.5896962  0.797130E-03  0.400E-02    0.20       1.0  T
   4   -380.5904570 -0.760778E-03  0.135E-02    0.28       1.0  T
   5   -380.5905444 -0.874270E-04  0.513E-03    0.25       1.3  T
   6   -380.5905485 -0.401481E-05  0.232E-03    0.25       2.8  T
   7   -380.5905490 -0.503609E-06  0.127E-03    0.24       5.2  T
   8   -380.5905496 -0.613291E-06  0.482E-04    0.25      13.7  T
   9   -380.5905496 -0.502340E-07  0.209E-04    0.25      31.5  T
     SCC iter.                  ...        0 min,  0.488 sec
     gradient                   ...        0 min,  0.169 sec
 * total energy  :  -374.4555063 Eh     change       -0.1687859E-02 Eh
   gradient norm :     0.0112161 Eh/α   predicted    -0.1618560E-02 (  -4.11%)
   displ. norm   :     0.8115997 α      lambda       -0.1870584E-02
   maximum displ.:     0.3200451 α      in ANC's #20, #52, #53, ...

........................................................................
.............................. CYCLE   16 ..............................
........................................................................
   1   -380.5801997 -0.380580E+03  0.102E-01    0.23       0.0  T
   2   -380.5802041 -0.431460E-05  0.575E-02    0.26       1.0  T
   3   -380.5788171  0.138694E-02  0.500E-02    0.18       1.0  T
   4   -380.5801201 -0.130295E-02  0.179E-02    0.29       1.0  T
   5   -380.5802753 -0.155266E-03  0.649E-03    0.26       1.0  T
   6   -380.5802855 -0.101630E-04  0.269E-03    0.25       2.5  T
   7   -380.5802856 -0.943182E-07  0.149E-03    0.24       4.4  T
   8   -380.5802864 -0.781430E-06  0.676E-04    0.25       9.8  T
   9   -380.5802865 -0.915862E-07  0.295E-04    0.25      22.4  T
     SCC iter.                  ...        0 min,  0.499 sec
     gradient                   ...        0 min,  0.169 sec
 * total energy  :  -374.4568762 Eh     change       -0.1369890E-02 Eh
   gradient norm :     0.0149224 Eh/α   predicted    -0.1551367E-02 (  13.25%)
   displ. norm   :     0.7137034 α      lambda       -0.1775379E-02
   maximum displ.:     0.2892025 α      in ANC's #20, #52, #53, ...

........................................................................
.............................. CYCLE   17 ..............................
........................................................................
   1   -380.5935351 -0.380594E+03  0.817E-02    0.24       0.0  T
   2   -380.5935424 -0.726792E-05  0.448E-02    0.26       1.0  T
   3   -380.5928645  0.677865E-03  0.340E-02    0.19       1.0  T
   4   -380.5934991 -0.634585E-03  0.125E-02    0.27       1.0  T
   5   -380.5935715 -0.723730E-04  0.506E-03    0.25       1.3  T
   6   -380.5935760 -0.452215E-05  0.182E-03    0.24       3.6  T
   7   -380.5935761 -0.121304E-06  0.947E-04    0.24       7.0  T
   8   -380.5935764 -0.266941E-06  0.453E-04    0.24      14.6  T
     SCC iter.                  ...        0 min,  0.465 sec
     gradient                   ...        0 min,  0.169 sec
 * total energy  :  -374.4582130 Eh     change       -0.1336743E-02 Eh
   gradient norm :     0.0137168 Eh/α   predicted    -0.1339845E-02 (   0.23%)
   displ. norm   :     0.7705005 α      lambda       -0.1380636E-02
   maximum displ.:     0.3157319 α      in ANC's #20, #52, #27, ...

........................................................................
.............................. CYCLE   18 ..............................
........................................................................
   1   -380.5833717 -0.380583E+03  0.935E-02    0.24       0.0  T
   2   -380.5833779 -0.620658E-05  0.521E-02    0.26       1.0  T
   3   -380.5826930  0.684911E-03  0.391E-02    0.20       1.0  T
   4   -380.5833574 -0.664375E-03  0.126E-02    0.27       1.0  T
   5   -380.5834292 -0.718304E-04  0.540E-03    0.24       1.2  T
   6   -380.5834347 -0.551065E-05  0.211E-03    0.25       3.1  T
   7   -380.5834351 -0.425462E-06  0.937E-04    0.24       7.0  T
   8   -380.5834354 -0.324305E-06  0.377E-04    0.25      17.5  T
     SCC iter.                  ...        0 min,  0.430 sec
     gradient                   ...        0 min,  0.169 sec
 * total energy  :  -374.4593650 Eh     change       -0.1152058E-02 Eh
   gradient norm :     0.0106997 Eh/α   predicted    -0.1100139E-02 (  -4.51%)
   displ. norm   :     0.7553180 α      lambda       -0.1490942E-02
   maximum displ.:     0.3106486 α      in ANC's #20, #28, #1, ...

........................................................................
.............................. CYCLE   19 ..............................
........................................................................
   1   -380.5919084 -0.380592E+03  0.828E-02    0.24       0.0  T
   2   -380.5919203 -0.118831E-04  0.452E-02    0.25       1.0  T
   3   -380.5916239  0.296422E-03  0.263E-02    0.21       1.0  T
   4   -380.5919062 -0.282289E-03  0.945E-03    0.26       1.0  T
   5   -380.5919384 -0.321944E-04  0.494E-03    0.24       1.3  T
   6   -380.5919441 -0.575668E-05  0.151E-03    0.25       4.4  T
   7   -380.5919446 -0.422828E-06  0.693E-04    0.25       9.5  T
   8   -380.5919447 -0.150904E-06  0.295E-04    0.25      22.3  T
     SCC iter.                  ...        0 min,  0.437 sec
     gradient                   ...        0 min,  0.169 sec
 * total energy  :  -374.4605267 Eh     change       -0.1161713E-02 Eh
   gradient norm :     0.0140915 Eh/α   predicted    -0.1170768E-02 (   0.78%)
   displ. norm   :     0.7602381 α      lambda       -0.1427577E-02
   maximum displ.:     0.3160956 α      in ANC's #20, #1, #28, ...

........................................................................
.............................. CYCLE   20 ..............................
........................................................................
   1   -380.5931818 -0.380593E+03  0.835E-02    0.24       0.0  T
   2   -380.5931882 -0.639407E-05  0.463E-02    0.26       1.0  T
   3   -380.5927008  0.487420E-03  0.349E-02    0.21       1.0  T
   4   -380.5931979 -0.497133E-03  0.102E-02    0.26       1.0  T
   5   -380.5932346 -0.367079E-04  0.516E-03    0.25       1.3  T
   6   -380.5932406 -0.598049E-05  0.188E-03    0.25       3.5  T
   7   -380.5932412 -0.608257E-06  0.792E-04    0.25       8.3  T
   8   -380.5932414 -0.242540E-06  0.307E-04    0.25      21.5  T
     SCC iter.                  ...        0 min,  0.438 sec
     gradient                   ...        0 min,  0.169 sec
 * total energy  :  -374.4616386 Eh     change       -0.1111836E-02 Eh
   gradient norm :     0.0116983 Eh/α   predicted    -0.1126331E-02 (   1.30%)
   displ. norm   :     0.7651918 α      lambda       -0.1337134E-02
   maximum displ.:     0.3099177 α      in ANC's #20, #28, #1, ...
 * RMSD in coord.:     0.6654593 α      energy gain  -0.1661617E+00 Eh

generating ANC from model Hessian ...
Using Lindh-Hessian (1995)
 Shifting diagonal of input Hessian by   1.004288213319969E-002
 Lowest  eigenvalues of input Hessian
    0.010000    0.010015    0.010031    0.000000    0.000000    0.000000
    0.000000    0.000000    0.000000    0.010059    0.010078    0.010080
    0.010100    0.010127    0.010140    0.010164    0.010178    0.010184
 Highest eigenvalues
    2.275944    2.285198    2.603750    2.608300    2.653628    2.655816
 

........................................................................
.............................. CYCLE   21 ..............................
........................................................................
   1   -380.5878980 -0.380588E+03  0.901E-02    0.25       0.0  T
   2   -380.5879182 -0.202065E-04  0.493E-02    0.26       1.0  T
   3   -380.5875961  0.322102E-03  0.279E-02    0.22       1.0  T
   4   -380.5879185 -0.322432E-03  0.919E-03    0.26       1.0  T
   5   -380.5879448 -0.263204E-04  0.487E-03    0.25       1.4  T
   6   -380.5879500 -0.516613E-05  0.155E-03    0.25       4.3  T
   7   -380.5879505 -0.515270E-06  0.753E-04    0.25       8.8  T
   8   -380.5879507 -0.189004E-06  0.262E-04    0.25      25.2  T
     SCC iter.                  ...        0 min,  0.438 sec
     gradient                   ...        0 min,  0.169 sec
 * total energy  :  -374.4627231 Eh     change       -0.1084489E-02 Eh
   gradient norm :     0.0147471 Eh/α   predicted     0.0000000E+00 (-100.00%)
   displ. norm   :     0.1779825 α      lambda       -0.6330970E-03
   maximum displ.:     0.0493436 α      in ANC's #1, #24, #20, ...

........................................................................
.............................. CYCLE   22 ..............................
........................................................................
   1   -380.5923429 -0.380592E+03  0.531E-02    0.26       0.0  T
   2   -380.5923500 -0.706456E-05  0.296E-02    0.25       1.0  T
   3   -380.5922837  0.662640E-04  0.139E-02    0.26       1.0  T
   4   -380.5923577 -0.739761E-04  0.230E-03    0.25       2.9  T
   5   -380.5923582 -0.480183E-06  0.133E-03    0.25       5.0  T
   6   -380.5923584 -0.216071E-06  0.574E-04    0.25      11.5  T
   7   -380.5923584 -0.772826E-07  0.237E-04    0.25      27.8  T
     SCC iter.                  ...        0 min,  0.382 sec
     gradient                   ...        0 min,  0.169 sec
 * total energy  :  -374.4631361 Eh     change       -0.4130166E-03 Eh
   gradient norm :     0.0068031 Eh/α   predicted    -0.3266279E-03 ( -20.92%)
   displ. norm   :     0.5169017 α      lambda       -0.1492935E-02
   maximum displ.:     0.1327890 α      in ANC's #39, #20, #1, ...

........................................................................
.............................. CYCLE   23 ..............................
........................................................................
   1   -380.6024839 -0.380602E+03  0.100E-01    0.26       0.0  T
   2   -380.6025029 -0.189761E-04  0.567E-02    0.25       1.0  T
   3   -380.6021122  0.390665E-03  0.342E-02    0.26       1.0  T
   4   -380.6025454 -0.433158E-03  0.621E-03    0.26       1.1  T
   5   -380.6025491 -0.370134E-05  0.341E-03    0.26       1.9  T
   6   -380.6025504 -0.133623E-05  0.127E-03    0.26       5.2  T
   7   -380.6025507 -0.301492E-06  0.468E-04    0.26      14.1  T
   8   -380.6025507 -0.250797E-07  0.212E-04    0.26      31.1  T
     SCC iter.                  ...        0 min,  0.438 sec
     gradient                   ...        0 min,  0.169 sec
 * total energy  :  -374.4633972 Eh     change       -0.2611333E-03 Eh
   gradient norm :     0.0336487 Eh/α   predicted    -0.9459468E-03 ( 262.25%)
   displ. norm   :     0.2462493 α      lambda       -0.1344845E-02
   maximum displ.:     0.0698117 α      in ANC's #39, #1, #24, ...

........................................................................
.............................. CYCLE   24 ..............................
........................................................................
   1   -380.5983948 -0.380598E+03  0.788E-02    0.26       0.0  T
   2   -380.5984110 -0.162346E-04  0.434E-02    0.26       1.0  T
   3   -380.5983564  0.546376E-04  0.134E-02    0.25       1.0  T
   4   -380.5984200 -0.636384E-04  0.309E-03    0.26       2.1  T
   5   -380.5984209 -0.862865E-06  0.200E-03    0.26       3.3  T
   6   -380.5984217 -0.807947E-06  0.755E-04    0.26       8.7  T
   7   -380.5984219 -0.190033E-06  0.271E-04    0.26      24.3  T
     SCC iter.                  ...        0 min,  0.380 sec
     gradient                   ...        0 min,  0.169 sec
 * total energy  :  -374.4642394 Eh     change       -0.8421619E-03 Eh
   gradient norm :     0.0187024 Eh/α   predicted    -0.7132356E-03 ( -15.31%)
   displ. norm   :     0.4023594 α      lambda       -0.1484773E-02
   maximum displ.:     0.1086120 α      in ANC's #1, #20, #24, ...

........................................................................
.............................. CYCLE   25 ..............................
........................................................................
   1   -380.5883014 -0.380588E+03  0.916E-02    0.26       0.0  T
   2   -380.5883303 -0.288883E-04  0.507E-02    0.26       1.0  T
   3   -380.5880556  0.274690E-03  0.280E-02    0.25       1.0  T
   4   -380.5883581 -0.302516E-03  0.587E-03    0.26       1.1  T
   5   -380.5883631 -0.494714E-05  0.343E-03    0.26       1.9  T
   6   -380.5883653 -0.223677E-05  0.133E-03    0.26       5.0  T
   7   -380.5883658 -0.468008E-06  0.574E-04    0.26      11.5  T
   8   -380.5883659 -0.762444E-07  0.261E-04    0.26      25.3  T
     SCC iter.                  ...        0 min,  0.443 sec
     gradient                   ...        0 min,  0.169 sec
 * total energy  :  -374.4648024 Eh     change       -0.5630348E-03 Eh
   gradient norm :     0.0237352 Eh/α   predicted    -0.8625964E-03 (  53.20%)
   displ. norm   :     0.4691770 α      lambda       -0.1244410E-02
   maximum displ.:     0.1378956 α      in ANC's #39, #1, #20, ...

........................................................................
.............................. CYCLE   26 ..............................
........................................................................
   1   -380.5880603 -0.380588E+03  0.800E-02    0.26       0.0  T
   2   -380.5880799 -0.195544E-04  0.436E-02    0.26       1.0  T
   3   -380.5878745  0.205396E-03  0.245E-02    0.26       1.0  T
   4   -380.5881050 -0.230541E-03  0.556E-03    0.26       1.2  T
   5   -380.5881087 -0.363555E-05  0.309E-03    0.26       2.1  T
   6   -380.5881098 -0.111715E-05  0.121E-03    0.26       5.5  T
   7   -380.5881102 -0.443076E-06  0.373E-04    0.26      17.7  T
   8   -380.5881102 -0.248300E-07  0.204E-04    0.26      32.4  T
     SCC iter.                  ...        0 min,  0.445 sec
     gradient                   ...        0 min,  0.168 sec
 * total energy  :  -374.4658148 Eh     change       -0.1012417E-02 Eh
   gradient norm :     0.0137517 Eh/α   predicted    -0.7591826E-03 ( -25.01%)
   displ. norm   :     0.7194037 α      lambda       -0.1687355E-02
   maximum displ.:     0.2086770 α      in ANC's #39, #1, #20, ...

........................................................................
.............................. CYCLE   27 ..............................
........................................................................
   1   -380.5899776 -0.380590E+03  0.125E-01    0.26       0.0  T
   2   -380.5900207 -0.430691E-04  0.688E-02    0.27       1.0  T
   3   -380.5893559  0.664841E-03  0.438E-02    0.24       1.0  T
   4   -380.5901029 -0.746993E-03  0.921E-03    0.27       1.0  T
   5   -380.5901145 -0.116855E-04  0.515E-03    0.26       1.3  T
   6   -380.5901182 -0.364660E-05  0.213E-03    0.26       3.1  T
   7   -380.5901196 -0.141501E-05  0.649E-04    0.26      10.2  T
   8   -380.5901197 -0.736720E-07  0.337E-04    0.26      19.6  T
   9   -380.5901197 -0.190747E-07  0.175E-04    0.26      37.7  T
     SCC iter.                  ...        0 min,  0.501 sec
     gradient                   ...        0 min,  0.169 sec
 * total energy  :  -374.4668083 Eh     change       -0.9934500E-03 Eh
   gradient norm :     0.0161596 Eh/α   predicted    -0.1280317E-02 (  28.88%)
   displ. norm   :     0.6653914 α      lambda       -0.1688711E-02
   maximum displ.:     0.1919532 α      in ANC's #1, #20, #39, ...

........................................................................
.............................. CYCLE   28 ..............................
........................................................................
   1   -380.5891184 -0.380589E+03  0.118E-01    0.26       0.0  T
   2   -380.5891529 -0.344532E-04  0.652E-02    0.26       1.0  T
   3   -380.5884987  0.654138E-03  0.446E-02    0.25       1.0  T
   4   -380.5892485 -0.749792E-03  0.858E-03    0.27       1.0  T
   5   -380.5892584 -0.991142E-05  0.462E-03    0.26       1.4  T
   6   -380.5892606 -0.220880E-05  0.195E-03    0.26       3.4  T
   7   -380.5892617 -0.105871E-05  0.618E-04    0.26      10.7  T
   8   -380.5892618 -0.567372E-07  0.335E-04    0.26      19.7  T
   9   -380.5892618 -0.179627E-07  0.180E-04    0.26      36.6  T
     SCC iter.                  ...        0 min,  0.534 sec
     gradient                   ...        0 min,  0.169 sec
 * total energy  :  -374.4679784 Eh     change       -0.1170171E-02 Eh
   gradient norm :     0.0161272 Eh/α   predicted    -0.1218191E-02 (   4.10%)
   displ. norm   :     0.6550457 α      lambda       -0.1675111E-02
   maximum displ.:     0.1935935 α      in ANC's #1, #20, #39, ...

........................................................................
.............................. CYCLE   29 ..............................
........................................................................
   1   -380.5871942 -0.380587E+03  0.130E-01    0.27       0.0  T
   2   -380.5872317 -0.375188E-04  0.716E-02    0.26       1.0  T
   3   -380.5864640  0.767691E-03  0.478E-02    0.26       1.0  T
   4   -380.5873383 -0.874297E-03  0.812E-03    0.27       1.0  T
   5   -380.5873466 -0.830988E-05  0.440E-03    0.26       1.5  T
   6   -380.5873487 -0.205630E-05  0.177E-03    0.26       3.7  T
   7   -380.5873495 -0.744477E-06  0.593E-04    0.26      11.1  T
   8   -380.5873495 -0.557719E-07  0.293E-04    0.26      22.5  T
     SCC iter.                  ...        0 min,  0.432 sec
     gradient                   ...        0 min,  0.169 sec
 * total energy  :  -374.4689911 Eh     change       -0.1012631E-02 Eh
   gradient norm :     0.0178652 Eh/α   predicted    -0.1196939E-02 (  18.20%)
   displ. norm   :     0.6536614 α      lambda       -0.1497803E-02
   maximum displ.:     0.2002812 α      in ANC's #1, #20, #39, ...

........................................................................
.............................. CYCLE   30 ..............................
........................................................................
   1   -380.5898339 -0.380590E+03  0.869E-02    0.27       0.0  T
   2   -380.5898433 -0.941273E-05  0.481E-02    0.27       1.0  T
   3   -380.5894109  0.432434E-03  0.388E-02    0.25       1.0  T
   4   -380.5899425 -0.531608E-03  0.771E-03    0.27       1.0  T
   5   -380.5899493 -0.680883E-05  0.419E-03    0.26       1.6  T
   6   -380.5899512 -0.191049E-05  0.166E-03    0.27       4.0  T
   7   -380.5899520 -0.736943E-06  0.471E-04    0.26      14.0  T
   8   -380.5899520 -0.481469E-07  0.209E-04    0.26      31.6  T
     SCC iter.                  ...        0 min,  0.430 sec
     gradient                   ...        0 min,  0.168 sec
 * total energy  :  -374.4703028 Eh     change       -0.1311701E-02 Eh
   gradient norm :     0.0127878 Eh/α   predicted    -0.1068902E-02 ( -18.51%)
   displ. norm   :     0.6746923 α      lambda       -0.1841270E-02
   maximum displ.:     0.2264757 α      in ANC's #1, #20, #7, ...

........................................................................
.............................. CYCLE   31 ..............................
........................................................................
   1   -380.6097409 -0.380610E+03  0.986E-02    0.26       0.0  T
   2   -380.6097413 -0.412564E-06  0.554E-02    0.27       1.0  T
   3   -380.6091207  0.620620E-03  0.462E-02    0.25       1.0  T
   4   -380.6098643 -0.743577E-03  0.742E-03    0.27       1.0  T
   5   -380.6098695 -0.524512E-05  0.433E-03    0.26       1.5  T
   6   -380.6098720 -0.252038E-05  0.165E-03    0.27       4.0  T
   7   -380.6098726 -0.613876E-06  0.577E-04    0.26      11.4  T
   8   -380.6098727 -0.633165E-07  0.276E-04    0.26      23.9  T
     SCC iter.                  ...        0 min,  0.430 sec
     gradient                   ...        0 min,  0.172 sec
 * total energy  :  -374.4714339 Eh     change       -0.1131145E-02 Eh
   gradient norm :     0.0119874 Eh/α   predicted    -0.1339718E-02 (  18.44%)
   displ. norm   :     0.8327898 α      lambda       -0.1738264E-02
   maximum displ.:     0.2481280 α      in ANC's #1, #20, #39, ...

........................................................................
.............................. CYCLE   32 ..............................
........................................................................
   1   -380.5899948 -0.380590E+03  0.120E-01    0.27       0.0  T
   2   -380.5899954 -0.602056E-06  0.664E-02    0.27       1.0  T
   3   -380.5890943  0.901059E-03  0.553E-02    0.26       1.0  T
   4   -380.5902008 -0.110650E-02  0.107E-02    0.27       1.0  T
   5   -380.5902133 -0.125068E-04  0.590E-03    0.27       1.1  T
   6   -380.5902171 -0.373914E-05  0.223E-03    0.27       3.0  T
   7   -380.5902183 -0.117854E-05  0.629E-04    0.27      10.5  T
   8   -380.5902183 -0.715132E-07  0.259E-04    0.27      25.4  T
   9   -380.5902183 -0.633008E-08  0.160E-04    0.27      41.2  T
     SCC iter.                  ...        0 min,  0.487 sec
     gradient                   ...        0 min,  0.168 sec
 * total energy  :  -374.4727563 Eh     change       -0.1322350E-02 Eh
   gradient norm :     0.0140885 Eh/α   predicted    -0.1471909E-02 (  11.31%)
   displ. norm   :     0.7909237 α      lambda       -0.1327046E-02
   maximum displ.:     0.2510629 α      in ANC's #1, #20, #7, ...

........................................................................
.............................. CYCLE   33 ..............................
........................................................................
   1   -380.5865450 -0.380587E+03  0.962E-02    0.27       0.0  T
   2   -380.5865365  0.856699E-05  0.534E-02    0.27       1.0  T
   3   -380.5859801  0.556331E-03  0.456E-02    0.27       1.0  T
   4   -380.5866973 -0.717156E-03  0.878E-03    0.27       1.0  T
   5   -380.5867055 -0.823964E-05  0.496E-03    0.27       1.3  T
   6   -380.5867083 -0.273125E-05  0.183E-03    0.27       3.6  T
   7   -380.5867090 -0.789811E-06  0.507E-04    0.27      13.0  T
   8   -380.5867091 -0.543956E-07  0.194E-04    0.27      34.0  T
     SCC iter.                  ...        0 min,  0.433 sec
     gradient                   ...        0 min,  0.168 sec
 * total energy  :  -374.4739223 Eh     change       -0.1166073E-02 Eh
   gradient norm :     0.0127987 Eh/α   predicted    -0.1078601E-02 (  -7.50%)
   displ. norm   :     0.7279875 α      lambda       -0.1558864E-02
   maximum displ.:     0.2430058 α      in ANC's #1, #20, #7, ...

........................................................................
.............................. CYCLE   34 ..............................
........................................................................
   1   -380.5970998 -0.380597E+03  0.982E-02    0.27       0.0  T
   2   -380.5971034 -0.358884E-05  0.547E-02    0.28       1.0  T
   3   -380.5965638  0.539586E-03  0.424E-02    0.27       1.0  T
   4   -380.5971967 -0.632874E-03  0.734E-03    0.28       1.0  T
   5   -380.5972023 -0.564690E-05  0.443E-03    0.28       1.5  T
   6   -380.5972050 -0.270757E-05  0.147E-03    0.28       4.5  T
   7   -380.5972055 -0.461858E-06  0.495E-04    0.28      13.3  T
   8   -380.5972055 -0.431590E-07  0.208E-04    0.28      31.7  T
     SCC iter.                  ...        0 min,  0.436 sec
     gradient                   ...        0 min,  0.169 sec
 * total energy  :  -374.4752275 Eh     change       -0.1305200E-02 Eh
   gradient norm :     0.0096976 Eh/α   predicted    -0.1192505E-02 (  -8.63%)
   displ. norm   :     0.8576860 α      lambda       -0.1455175E-02
   maximum displ.:     0.2808329 α      in ANC's #1, #20, #7, ...

........................................................................
.............................. CYCLE   35 ..............................
........................................................................
   1   -380.5952695 -0.380595E+03  0.114E-01    0.28       0.0  T
   2   -380.5952696 -0.853807E-07  0.629E-02    0.28       1.0  T
   3   -380.5945029  0.766697E-03  0.495E-02    0.27       1.0  T
   4   -380.5953937 -0.890794E-03  0.852E-03    0.28       1.0  T
   5   -380.5953994 -0.568819E-05  0.517E-03    0.28       1.3  T
   6   -380.5954031 -0.378063E-05  0.168E-03    0.28       3.9  T
   7   -380.5954037 -0.602237E-06  0.541E-04    0.28      12.2  T
   8   -380.5954038 -0.529004E-07  0.218E-04    0.28      30.3  T
     SCC iter.                  ...        0 min,  0.441 sec
     gradient                   ...        0 min,  0.169 sec
 * total energy  :  -374.4765524 Eh     change       -0.1324864E-02 Eh
   gradient norm :     0.0095716 Eh/α   predicted    -0.1262824E-02 (  -4.68%)
   displ. norm   :     0.8480848 α      lambda       -0.1473840E-02
   maximum displ.:     0.2638502 α      in ANC's #1, #20, #40, ...

........................................................................
.............................. CYCLE   36 ..............................
........................................................................
   1   -380.6020466 -0.380602E+03  0.105E-01    0.28       0.0  T
   2   -380.6020472 -0.592801E-06  0.583E-02    0.29       1.0  T
   3   -380.6014259  0.621253E-03  0.444E-02    0.28       1.0  T
   4   -380.6021390 -0.713041E-03  0.814E-03    0.29       1.0  T
   5   -380.6021453 -0.635814E-05  0.478E-03    0.28       1.4  T
   6   -380.6021484 -0.311929E-05  0.151E-03    0.29       4.4  T
   7   -380.6021489 -0.485438E-06  0.500E-04    0.28      13.2  T
   8   -380.6021490 -0.449773E-07  0.201E-04    0.29      32.8  T
     SCC iter.                  ...        0 min,  0.437 sec
     gradient                   ...        0 min,  0.168 sec
 * total energy  :  -374.4778585 Eh     change       -0.1306133E-02 Eh
   gradient norm :     0.0091236 Eh/α   predicted    -0.1266952E-02 (  -3.00%)
   displ. norm   :     0.8923745 α      lambda       -0.1394122E-02
   maximum displ.:     0.2698177 α      in ANC's #1, #20, #40, ...

........................................................................
.............................. CYCLE   37 ..............................
........................................................................
   1   -380.6002342 -0.380600E+03  0.112E-01    0.29       0.0  T
   2   -380.6002435 -0.925179E-05  0.611E-02    0.29       1.0  T
   3   -380.5996307  0.612765E-03  0.442E-02    0.28       1.0  T
   4   -380.6003310 -0.700281E-03  0.872E-03    0.29       1.0  T
   5   -380.6003378 -0.680275E-05  0.524E-03    0.29       1.3  T
   6   -380.6003421 -0.426217E-05  0.165E-03    0.29       4.0  T
   7   -380.6003427 -0.595636E-06  0.535E-04    0.29      12.3  T
   8   -380.6003427 -0.511349E-07  0.209E-04    0.29      31.5  T
     SCC iter.                  ...        0 min,  0.433 sec
     gradient                   ...        0 min,  0.169 sec
 * total energy  :  -374.4791193 Eh     change       -0.1260810E-02 Eh
   gradient norm :     0.0098419 Eh/α   predicted    -0.1252156E-02 (  -0.69%)
   displ. norm   :     0.8492698 α      lambda       -0.1351476E-02
   maximum displ.:     0.2339236 α      in ANC's #1, #40, #19, ...

........................................................................
.............................. CYCLE   38 ..............................
........................................................................
   1   -380.6031977 -0.380603E+03  0.108E-01    0.29       0.0  T
   2   -380.6032179 -0.201947E-04  0.586E-02    0.29       1.0  T
   3   -380.6028685  0.349431E-03  0.341E-02    0.29       1.0  T
   4   -380.6032572 -0.388736E-03  0.796E-03    0.29       1.0  T
   5   -380.6032642 -0.700136E-05  0.471E-03    0.29       1.4  T
   6   -380.6032683 -0.404216E-05  0.148E-03    0.29       4.5  T
   7   -380.6032687 -0.478399E-06  0.517E-04    0.29      12.7  T
   8   -380.6032688 -0.471096E-07  0.205E-04    0.29      32.2  T
     SCC iter.                  ...        0 min,  0.434 sec
     gradient                   ...        0 min,  0.168 sec
 * total energy  :  -374.4803032 Eh     change       -0.1183878E-02 Eh
   gradient norm :     0.0096639 Eh/α   predicted    -0.1163123E-02 (  -1.75%)
   displ. norm   :     0.8422627 α      lambda       -0.1271705E-02
   maximum displ.:     0.2213889 α      in ANC's #1, #19, #20, ...

........................................................................
.............................. CYCLE   39 ..............................
........................................................................
   1   -380.6050060 -0.380605E+03  0.103E-01    0.29       0.0  T
   2   -380.6050244 -0.184060E-04  0.561E-02    0.30       1.0  T
   3   -380.6046736  0.350864E-03  0.342E-02    0.29       1.0  T
   4   -380.6050645 -0.390902E-03  0.815E-03    0.29       1.0  T
   5   -380.6050733 -0.886139E-05  0.468E-03    0.29       1.4  T
   6   -380.6050770 -0.363818E-05  0.142E-03    0.29       4.6  T
   7   -380.6050774 -0.428833E-06  0.520E-04    0.29      12.7  T
   8   -380.6050775 -0.487857E-07  0.199E-04    0.29      33.1  T
     SCC iter.                  ...        0 min,  0.433 sec
     gradient                   ...        0 min,  0.168 sec
 * total energy  :  -374.4812378 Eh     change       -0.9345708E-03 Eh
   gradient norm :     0.0114573 Eh/α   predicted    -0.1086934E-02 (  16.30%)
   displ. norm   :     0.7486376 α      lambda       -0.1250322E-02
   maximum displ.:     0.1926742 α      in ANC's #17, #1, #19, ...

........................................................................
.............................. CYCLE   40 ..............................
........................................................................
   1   -380.6082568 -0.380608E+03  0.972E-02    0.30       0.0  T
   2   -380.6082843 -0.274191E-04  0.524E-02    0.30       1.0  T
   3   -380.6082256  0.586687E-04  0.178E-02    0.30       1.0  T
   4   -380.6082943 -0.687178E-04  0.621E-03    0.30       1.1  T
   5   -380.6082967 -0.239866E-05  0.301E-03    0.30       2.2  T
   6   -380.6082986 -0.185425E-05  0.107E-03    0.30       6.2  T
   7   -380.6082989 -0.304436E-06  0.436E-04    0.30      15.1  T
   8   -380.6082989 -0.350408E-07  0.219E-04    0.30      30.2  T
     SCC iter.                  ...        0 min,  0.437 sec
     gradient                   ...        0 min,  0.167 sec
 * total energy  :  -374.4820980 Eh     change       -0.8602576E-03 Eh
   gradient norm :     0.0164999 Eh/α   predicted    -0.9755377E-03 (  13.40%)
   displ. norm   :     0.7300354 α      lambda       -0.1138297E-02
   maximum displ.:     0.2006428 α      in ANC's #1, #7, #19, ...

........................................................................
.............................. CYCLE   41 ..............................
........................................................................
   1   -380.5910399 -0.380591E+03  0.968E-02    0.30       0.0  T
   2   -380.5910608 -0.208132E-04  0.520E-02    0.30       1.0  T
   3   -380.5908306  0.230137E-03  0.278E-02    0.30       1.0  T
   4   -380.5910852 -0.254589E-03  0.721E-03    0.30       1.0  T
   5   -380.5910907 -0.553381E-05  0.395E-03    0.30       1.7  T
   6   -380.5910933 -0.254260E-05  0.144E-03    0.30       4.6  T
   7   -380.5910938 -0.471402E-06  0.473E-04    0.30      14.0  T
   8   -380.5910938 -0.300556E-07  0.237E-04    0.30      27.9  T
     SCC iter.                  ...        0 min,  0.444 sec
     gradient                   ...        0 min,  0.167 sec
 * total energy  :  -374.4826562 Eh     change       -0.5581979E-03 Eh
   gradient norm :     0.0194069 Eh/α   predicted    -0.8724787E-03 (  56.30%)
   displ. norm   :     0.4955219 α      lambda       -0.1213646E-02
   maximum displ.:     0.1424627 α      in ANC's #17, #6, #19, ...

........................................................................
.............................. CYCLE   42 ..............................
........................................................................
   1   -380.6169291 -0.380617E+03  0.659E-02    0.30       0.0  T
   2   -380.6169367 -0.756179E-05  0.373E-02    0.30       1.0  T
   3   -380.6167090  0.227640E-03  0.260E-02    0.30       1.0  T
   4   -380.6169641 -0.255107E-03  0.463E-03    0.30       1.4  T
   5   -380.6169663 -0.223087E-05  0.240E-03    0.30       2.7  T
   6   -380.6169670 -0.654719E-06  0.976E-04    0.30       6.8  T
   7   -380.6169671 -0.135797E-06  0.398E-04    0.30      16.6  T
     SCC iter.                  ...        0 min,  0.388 sec
     gradient                   ...        0 min,  0.168 sec
 * total energy  :  -374.4830904 Eh     change       -0.4341379E-03 Eh
   gradient norm :     0.0269959 Eh/α   predicted    -0.7558244E-03 (  74.10%)
   displ. norm   :     0.5086320 α      lambda       -0.1893096E-02
   maximum displ.:     0.1419611 α      in ANC's #7, #19, #20, ...
 * RMSD in coord.:     0.8802036 α      energy gain  -0.2145182E-01 Eh

generating ANC from model Hessian ...
Using Lindh-Hessian (1995)
 Shifting diagonal of input Hessian by   1.005626094728697E-002
 Lowest  eigenvalues of input Hessian
    0.010000    0.010027    0.010043    0.000000    0.000000    0.000000
    0.000000    0.000000    0.000000    0.010070    0.010092    0.010104
    0.010108    0.010147    0.010161    0.010182    0.010183    0.010198
 Highest eigenvalues
    2.273092    2.277972    2.612609    2.618356    2.665455    2.672885
 

........................................................................
.............................. CYCLE   43 ..............................
........................................................................
   1   -380.6204421 -0.380620E+03  0.780E-02    0.31       0.0  T
   2   -380.6204564 -0.142291E-04  0.438E-02    0.30       1.0  T
   3   -380.6201620  0.294362E-03  0.311E-02    0.30       1.0  T
   4   -380.6204976 -0.335597E-03  0.677E-03    0.30       1.0  T
   5   -380.6205052 -0.758669E-05  0.336E-03    0.30       2.0  T
   6   -380.6205064 -0.120333E-05  0.147E-03    0.30       4.5  T
   7   -380.6205068 -0.381244E-06  0.534E-04    0.30      12.3  T
   8   -380.6205068 -0.403247E-07  0.242E-04    0.30      27.2  T
     SCC iter.                  ...        0 min,  0.454 sec
     gradient                   ...        0 min,  0.168 sec
 * total energy  :  -374.4833002 Eh     change       -0.2097734E-03 Eh
   gradient norm :     0.0285079 Eh/α   predicted     0.0000000E+00 (-100.00%)
   displ. norm   :     0.1606345 α      lambda       -0.1443015E-02
   maximum displ.:     0.0409484 α      in ANC's #7, #50, #48, ...

........................................................................
.............................. CYCLE   44 ..............................
........................................................................
   1   -380.6102181 -0.380610E+03  0.499E-02    0.30       0.0  T
   2   -380.6102272 -0.910067E-05  0.270E-02    0.30       1.0  T
   3   -380.6102118  0.154586E-04  0.987E-03    0.31       1.0  T
   4   -380.6102307 -0.189246E-04  0.293E-03    0.30       2.2  T
   5   -380.6102312 -0.500289E-06  0.144E-03    0.30       4.6  T
   6   -380.6102315 -0.271082E-06  0.704E-04    0.30       9.4  T
   7   -380.6102316 -0.128177E-06  0.247E-04    0.30      26.7  T
     SCC iter.                  ...        0 min,  0.411 sec
     gradient                   ...        0 min,  0.171 sec
 * total energy  :  -374.4842117 Eh     change       -0.9115391E-03 Eh
   gradient norm :     0.0085123 Eh/α   predicted    -0.7401996E-03 ( -18.80%)
   displ. norm   :     0.2751203 α      lambda       -0.8556831E-03
   maximum displ.:     0.0756391 α      in ANC's #61, #7, #50, ...

........................................................................
.............................. CYCLE   45 ..............................
........................................................................
   1   -380.6062851 -0.380606E+03  0.856E-02    0.30       0.0  T
   2   -380.6063048 -0.196621E-04  0.461E-02    0.31       1.0  T
   3   -380.6062594  0.453920E-04  0.146E-02    0.30       1.0  T
   4   -380.6063134 -0.540307E-04  0.434E-03    0.31       1.5  T
   5   -380.6063146 -0.114002E-05  0.253E-03    0.30       2.6  T
   6   -380.6063159 -0.134212E-05  0.857E-04    0.30       7.7  T
   7   -380.6063161 -0.159344E-06  0.320E-04    0.30      20.6  T
   8   -380.6063161 -0.894056E-08  0.176E-04    0.30      37.5  T
     SCC iter.                  ...        0 min,  0.428 sec
     gradient                   ...        0 min,  0.168 sec
 * total energy  :  -374.4843994 Eh     change       -0.1876793E-03 Eh
   gradient norm :     0.0144244 Eh/α   predicted    -0.4611981E-03 ( 145.74%)
   displ. norm   :     0.2681549 α      lambda       -0.9555658E-03
   maximum displ.:     0.0735355 α      in ANC's #7, #50, #16, ...

........................................................................
.............................. CYCLE   46 ..............................
........................................................................
   1   -380.6081111 -0.380608E+03  0.896E-02    0.31       0.0  T
   2   -380.6081310 -0.198903E-04  0.485E-02    0.31       1.0  T
   3   -380.6080884  0.425446E-04  0.133E-02    0.31       1.0  T
   4   -380.6081397 -0.512256E-04  0.391E-03    0.31       1.7  T
   5   -380.6081406 -0.896752E-06  0.255E-03    0.31       2.6  T
   6   -380.6081422 -0.163476E-05  0.657E-04    0.31      10.0  T
   7   -380.6081423 -0.658817E-07  0.329E-04    0.31      20.0  T
   8   -380.6081423 -0.926559E-08  0.176E-04    0.31      37.5  T
     SCC iter.                  ...        0 min,  0.430 sec
     gradient                   ...        0 min,  0.168 sec
 * total energy  :  -374.4849272 Eh     change       -0.5278095E-03 Eh
   gradient norm :     0.0145012 Eh/α   predicted    -0.5121677E-03 (  -2.96%)
   displ. norm   :     0.2975611 α      lambda       -0.8565744E-03
   maximum displ.:     0.0900412 α      in ANC's #7, #16, #50, ...

........................................................................
.............................. CYCLE   47 ..............................
........................................................................
   1   -380.6085668 -0.380609E+03  0.870E-02    0.31       0.0  T
   2   -380.6085841 -0.173709E-04  0.469E-02    0.31       1.0  T
   3   -380.6085305  0.536305E-04  0.137E-02    0.31       1.0  T
   4   -380.6085916 -0.610754E-04  0.436E-03    0.31       1.5  T
   5   -380.6085941 -0.251079E-05  0.233E-03    0.31       2.8  T
   6   -380.6085951 -0.106052E-05  0.540E-04    0.31      12.2  T
   7   -380.6085952 -0.429358E-07  0.253E-04    0.31      26.0  T
   8   -380.6085952 -0.836167E-08  0.127E-04    0.31      51.8  T
     SCC iter.                  ...        0 min,  0.431 sec
     gradient                   ...        0 min,  0.167 sec
 * total energy  :  -374.4854217 Eh     change       -0.4945442E-03 Eh
   gradient norm :     0.0121103 Eh/α   predicted    -0.4662099E-03 (  -5.73%)
   displ. norm   :     0.4441196 α      lambda       -0.9726677E-03
   maximum displ.:     0.1429787 α      in ANC's #7, #16, #50, ...

........................................................................
.............................. CYCLE   48 ..............................
........................................................................
   1   -380.6090546 -0.380609E+03  0.695E-02    0.31       0.0  T
   2   -380.6090675 -0.128490E-04  0.347E-02    0.32       1.0  T
   3   -380.6089756  0.919211E-04  0.178E-02    0.31       1.0  T
   4   -380.6090799 -0.104384E-03  0.537E-03    0.31       1.2  T
   5   -380.6090821 -0.220193E-05  0.314E-03    0.32       2.1  T
   6   -380.6090837 -0.159328E-05  0.803E-04    0.31       8.2  T
   7   -380.6090839 -0.131099E-06  0.325E-04    0.31      20.3  T
   8   -380.6090839 -0.185356E-07  0.150E-04    0.31      44.0  T
     SCC iter.                  ...        0 min,  0.444 sec
     gradient                   ...        0 min,  0.166 sec
 * total energy  :  -374.4862309 Eh     change       -0.8091459E-03 Eh
   gradient norm :     0.0087325 Eh/α   predicted    -0.5822647E-03 ( -28.04%)
   displ. norm   :     0.6905963 α      lambda       -0.1236298E-02
   maximum displ.:     0.2311593 α      in ANC's #7, #16, #50, ...

........................................................................
.............................. CYCLE   49 ..............................
........................................................................
   1   -380.6077948 -0.380608E+03  0.104E-01    0.31       0.0  T
   2   -380.6078243 -0.295738E-04  0.512E-02    0.32       1.0  T
   3   -380.6076706  0.153768E-03  0.239E-02    0.32       1.0  T
   4   -380.6078455 -0.174898E-03  0.779E-03    0.32       1.0  T
   5   -380.6078495 -0.399767E-05  0.465E-03    0.32       1.4  T
   6   -380.6078536 -0.415431E-05  0.112E-03    0.32       5.9  T
   7   -380.6078539 -0.266576E-06  0.442E-04    0.32      14.9  T
   8   -380.6078539 -0.355409E-07  0.194E-04    0.32      34.1  T
     SCC iter.                  ...        0 min,  0.430 sec
     gradient                   ...        0 min,  0.166 sec
 * total energy  :  -374.4872264 Eh     change       -0.9954762E-03 Eh
   gradient norm :     0.0115283 Eh/α   predicted    -0.9129682E-03 (  -8.29%)
   displ. norm   :     0.6296313 α      lambda       -0.1215857E-02
   maximum displ.:     0.2378024 α      in ANC's #7, #16, #9, ...

........................................................................
.............................. CYCLE   50 ..............................
........................................................................
   1   -380.6144392 -0.380614E+03  0.877E-02    0.32       0.0  T
   2   -380.6144590 -0.198424E-04  0.437E-02    0.32       1.0  T
   3   -380.6143371  0.121961E-03  0.212E-02    0.32       1.0  T
   4   -380.6144750 -0.137874E-03  0.681E-03    0.32       1.0  T
   5   -380.6144779 -0.293961E-05  0.394E-03    0.32       1.7  T
   6   -380.6144809 -0.303267E-05  0.941E-04    0.32       7.0  T
   7   -380.6144811 -0.196121E-06  0.391E-04    0.32      16.9  T
   8   -380.6144812 -0.289117E-07  0.168E-04    0.32      39.3  T
     SCC iter.                  ...        0 min,  0.423 sec
     gradient                   ...        0 min,  0.167 sec
 * total energy  :  -374.4879912 Eh     change       -0.7648333E-03 Eh
   gradient norm :     0.0118234 Eh/α   predicted    -0.8489347E-03 (  11.00%)
   displ. norm   :     0.7396030 α      lambda       -0.1183905E-02
   maximum displ.:     0.2617722 α      in ANC's #7, #16, #9, ...

........................................................................
.............................. CYCLE   51 ..............................
........................................................................
   1   -380.6052082 -0.380605E+03  0.113E-01    0.32       0.0  T
   2   -380.6052445 -0.362952E-04  0.560E-02    0.33       1.0  T
   3   -380.6051594  0.850175E-04  0.196E-02    0.33       1.0  T
   4   -380.6052561 -0.966614E-04  0.795E-03    0.33       1.0  T
   5   -380.6052596 -0.349621E-05  0.465E-03    0.33       1.4  T
   6   -380.6052652 -0.555776E-05  0.116E-03    0.33       5.7  T
   7   -380.6052655 -0.304606E-06  0.424E-04    0.33      15.5  T
   8   -380.6052655 -0.210200E-07  0.223E-04    0.33      29.6  T
     SCC iter.                  ...        0 min,  0.415 sec
     gradient                   ...        0 min,  0.160 sec
 * total energy  :  -374.4887916 Eh     change       -0.8004336E-03 Eh
   gradient norm :     0.0138546 Eh/α   predicted    -0.9157683E-03 (  14.41%)
   displ. norm   :     0.4699671 α      lambda       -0.9564066E-03
   maximum displ.:     0.1966945 α      in ANC's #7, #16, #9, ...

........................................................................
.............................. CYCLE   52 ..............................
........................................................................
   1   -380.6085393 -0.380609E+03  0.848E-02    0.33       0.0  T
   2   -380.6085611 -0.218099E-04  0.447E-02    0.33       1.0  T
   3   -380.6085134  0.476989E-04  0.152E-02    0.33       1.0  T
   4   -380.6085702 -0.568153E-04  0.476E-03    0.33       1.4  T
   5   -380.6085709 -0.749949E-06  0.289E-03    0.33       2.3  T
   6   -380.6085732 -0.230010E-05  0.604E-04    0.33      10.9  T
   7   -380.6085733 -0.583408E-07  0.307E-04    0.33      21.5  T
   8   -380.6085733 -0.111243E-07  0.151E-04    0.33      43.6  T
     SCC iter.                  ...        0 min,  0.411 sec
     gradient                   ...        0 min,  0.164 sec
 * total energy  :  -374.4892992 Eh     change       -0.5076179E-03 Eh
   gradient norm :     0.0170573 Eh/α   predicted    -0.5838341E-03 (  15.01%)
   displ. norm   :     0.5327470 α      lambda       -0.1242583E-02
   maximum displ.:     0.2213721 α      in ANC's #7, #16, #9, ...

........................................................................
.............................. CYCLE   53 ..............................
........................................................................
   1   -380.6162962 -0.380616E+03  0.985E-02    0.33       0.0  T
   2   -380.6163241 -0.278491E-04  0.518E-02    0.33       1.0  T
   3   -380.6162879  0.361256E-04  0.152E-02    0.34       1.0  T
   4   -380.6163344 -0.464276E-04  0.523E-03    0.33       1.3  T
   5   -380.6163354 -0.102299E-05  0.258E-03    0.33       2.6  T
   6   -380.6163373 -0.191590E-05  0.718E-04    0.33       9.2  T
   7   -380.6163374 -0.122351E-06  0.320E-04    0.33      20.6  T
   8   -380.6163374 -0.155713E-07  0.159E-04    0.33      41.4  T
     SCC iter.                  ...        0 min,  0.421 sec
     gradient                   ...        0 min,  0.160 sec
 * total energy  :  -374.4899894 Eh     change       -0.6901225E-03 Eh
   gradient norm :     0.0175289 Eh/α   predicted    -0.7976277E-03 (  15.58%)
   displ. norm   :     0.5770041 α      lambda       -0.9308252E-03
   maximum displ.:     0.2449782 α      in ANC's #7, #16, #9, ...

........................................................................
.............................. CYCLE   54 ..............................
........................................................................
   1   -380.6154152 -0.380615E+03  0.865E-02    0.34       0.0  T
   2   -380.6154389 -0.237860E-04  0.438E-02    0.34       1.0  T
   3   -380.6153927  0.462206E-04  0.147E-02    0.34       1.0  T
   4   -380.6154456 -0.529089E-04  0.578E-03    0.34       1.1  T
   5   -380.6154479 -0.222480E-05  0.304E-03    0.34       2.2  T
   6   -380.6154503 -0.246244E-05  0.696E-04    0.34       9.5  T
   7   -380.6154504 -0.978198E-07  0.310E-04    0.34      21.3  T
   8   -380.6154504 -0.149154E-07  0.142E-04    0.34      46.4  T
     SCC iter.                  ...        0 min,  0.415 sec
     gradient                   ...        0 min,  0.160 sec
 * total energy  :  -374.4905871 Eh     change       -0.5977905E-03 Eh
   gradient norm :     0.0147862 Eh/α   predicted    -0.6203618E-03 (   3.78%)
   displ. norm   :     0.6627487 α      lambda       -0.8722452E-03
   maximum displ.:     0.2835308 α      in ANC's #7, #16, #9, ...

........................................................................
.............................. CYCLE   55 ..............................
........................................................................
   1   -380.6135145 -0.380614E+03  0.893E-02    0.34       0.0  T
   2   -380.6135356 -0.210502E-04  0.443E-02    0.34       1.0  T
   3   -380.6135017  0.338706E-04  0.131E-02    0.34       1.0  T
   4   -380.6135392 -0.375148E-04  0.629E-03    0.34       1.0  T
   5   -380.6135425 -0.327022E-05  0.305E-03    0.34       2.2  T
   6   -380.6135450 -0.257373E-05  0.668E-04    0.34       9.9  T
   7   -380.6135451 -0.961210E-07  0.298E-04    0.34      22.1  T
   8   -380.6135452 -0.115129E-07  0.144E-04    0.34      45.9  T
[...]
   216   1 H    0.996 --   115 C    0.969
   217   1 H    0.997 --   115 C    0.976
   218   1 H    0.998 --   116 C    0.969
   219   1 H    0.998 --   117 C    0.968
   220   1 H    0.993 --   120 C    0.948
   221   1 H    0.997 --   125 C    0.964
   222   1 H    0.997 --   128 C    0.959
   223   1 H    0.997 --   136 C    0.961
   224   1 H    0.999 --   137 C    0.972
   225   1 H    0.999 --   138 C    0.972
   226   1 H    0.999 --   139 C    0.972
   227   1 H    0.999 --   140 C    0.972
   228   1 H    0.999 --   141 C    0.978
   229   1 H    0.997 --   141 C    0.977
   230   1 H    0.997 --   142 C    0.961
 ---------------------------------------------------------------------------

Topologies differ in bond orders
Writing corrected topology to xtbtopo.mol

molecular dipole:
                 x           y           z       tot (Debye)
 q only:        1.473       0.403      -0.822
   full:        1.818       0.546      -1.202       5.711
molecular quadrupole (traceless):
                xx          xy          yy          xz          yz          zz
 q only:       93.119      78.440     -37.312     -51.535      69.524     -55.807
  q+dip:       98.845      83.712     -37.387     -57.640      81.331     -61.458
   full:       97.741      79.825     -36.388     -54.895      88.599     -61.353

           -------------------------------------------------
          |                Geometry Summary                 |
           -------------------------------------------------

      molecular mass/u    :     1996.5680415
   center of mass at/Å    :       -0.3027589      -0.1528664       0.0246421
  moments of inertia/u·Å² :        0.3029097E+05   0.1471525E+06   0.1563648E+06
rotational constants/cm⁻¹ :        0.5565233E-03   0.1145589E-03   0.1078097E-03

 * 219 selected distances

     #   Z          #   Z                                           value/Å
     1   6 C        2   6 C                                       1.3788096
     3   6 C        4   8 O                                       1.2175711
     5   6 C        6   6 C                                       1.3906130
     6   6 C        7   6 C                                       1.3751950
     7   6 C        8   6 C                                       1.3998762
     8   6 C        9   6 C                                       1.3745496
     5   6 C       10   6 C                                       1.4094513
     9   6 C       10   6 C                                       1.3959446
     2   6 C       11   6 C                                       1.4331692
    11   6 C       12   6 C                                       1.3770685
    13   6 C       14   7 N                                       1.1499814
    15   6 C       16   7 N                                       1.1504707
     8   6 C       17   6 C                                       1.5079678
    17   6 C       18   6 C                                       1.5482781
    19   6 C       20   6 C                                       1.3262814
    18   6 C       22   6 C                                       1.5370454
    21   6 C       22   6 C                                       1.5370963
     7   6 C       23   6 C                                       1.5086361
    17   6 C       23   6 C                                       1.5613403
    21   6 C       23   6 C                                       1.5486850
     1   6 C       24   6 C                                       1.3935574
    24   6 C       25   6 C                                       1.4105358
    25   6 C       26   7 N                                       1.3693531
    26   7 N       27   6 C                                       1.4152064
    27   6 C       28   6 C                                       1.3935920
    28   6 C       29   6 C                                       1.3758651
    29   6 C       30   6 C                                       1.3948113
    30   6 C       33   6 C                                       1.3895663
    27   6 C       34   6 C                                       1.3895104
    33   6 C       34   6 C                                       1.3815210
    26   7 N       35   6 C                                       1.3922478
    35   6 C       36   6 C                                       1.3999018
    36   6 C       37   6 C                                       1.3737539
    37   6 C       38   6 C                                       1.3958441
    38   6 C       41   6 C                                       1.3884756
    35   6 C       42   6 C                                       1.3943298
    41   6 C       42   6 C                                       1.3824384
    25   6 C       43   6 C                                       1.4177015
    43   6 C       44  16 S                                       1.7263125
    45   6 C       46   6 C                                       1.3900450
    46   6 C       47   7 N                                       1.3844358
    47   7 N       48   6 C                                       1.3899869
    48   6 C       49   6 C                                       1.3947272
    49   6 C       50   6 C                                       1.3793247
    50   6 C       51   6 C                                       1.3871547
    51   6 C       54   6 C                                       1.3922556
    48   6 C       55   6 C                                       1.3961474
    54   6 C       55   6 C                                       1.3767046
    47   7 N       56   6 C                                       1.4090197
    56   6 C       57   6 C                                       1.3935704
    57   6 C       58   6 C                                       1.3805121
    58   6 C       59   6 C                                       1.3887912
    59   6 C       62   6 C                                       1.3937050
    56   6 C       63   6 C                                       1.3939040
    62   6 C       63   6 C                                       1.3775643
    43   6 C       64   6 C                                       1.3854448
    46   6 C       64   6 C                                       1.4183971
    64   6 C       65  16 S                                       1.7242013
    66   6 C       67   6 C                                       1.3887389
    67   6 C       69   6 C                                       1.3943975
    69   6 C       71   6 C                                       1.3892144
    71   6 C       72   6 C                                       1.4270610
    72   6 C       73   7 N                                       1.3365759
    73   7 N       74   6 C                                       1.3106465
    75   6 C       76   6 C                                       1.5303109
    74   6 C       77   6 C                                       1.4199068
    77   6 C       78   7 N                                       1.3112536
    66   6 C       79   6 C                                       1.4255435
    72   6 C       79   6 C                                       1.4172031
    78   7 N       79   6 C                                       1.3426753
    80   6 C       81   6 C                                       1.5307070
    71   6 C       82   6 C                                       1.4290366
    82   6 C       83   6 C                                       1.3955077
    83   6 C       84   7 N                                       1.3765839
    84   7 N       85   6 C                                       1.4033745
    85   6 C       86   6 C                                       1.3912352
    86   6 C       87   6 C                                       1.3811075
    87   6 C       88   6 C                                       1.3889271
    88   6 C       90   6 C                                       1.3907746
    85   6 C       91   6 C                                       1.3934411
    90   6 C       91   6 C                                       1.3791200
    84   7 N       92   6 C                                       1.4041006
    92   6 C       93   6 C                                       1.3913149
    93   6 C       94   6 C                                       1.3810027
    94   6 C       95   6 C                                       1.3888246
    95   6 C       97   6 C                                       1.3913233
    92   6 C       98   6 C                                       1.3935087
    97   6 C       98   6 C                                       1.3793728
    83   6 C       99   6 C                                       1.4152621
    99   6 C      100  16 S                                       1.7227322
   101   6 C      102   6 C                                       1.4107192
   102   6 C      103   7 N                                       1.3688699
   103   7 N      104   6 C                                       1.4022483
   104   6 C      105   6 C                                       1.3948495
   105   6 C      106   6 C                                       1.3783693
   106   6 C      107   6 C                                       1.3933693
   107   6 C      109   6 C                                       1.3879093
   104   6 C      110   6 C                                       1.3936397
   109   6 C      110   6 C                                       1.3826589
   103   7 N      111   6 C                                       1.4071503
   111   6 C      112   6 C                                       1.3905311
   112   6 C      113   6 C                                       1.3813538
   113   6 C      114   6 C                                       1.3897010
   114   6 C      116   6 C                                       1.3908316
   111   6 C      117   6 C                                       1.3924535
   116   6 C      117   6 C                                       1.3797094
    99   6 C      118   6 C                                       1.3877892
   102   6 C      118   6 C                                       1.4158860
    82   6 C      119  16 S                                       1.7572881 (max)
   118   6 C      119  16 S                                       1.7401988
   101   6 C      120   6 C                                       1.3984860
   120   6 C      121   6 C                                       1.3770892
   122   6 C      123   8 O                                       1.2170229
   124   6 C      125   6 C                                       1.3908009
   125   6 C      126   6 C                                       1.3752690
   126   6 C      127   6 C                                       1.3996484
   127   6 C      128   6 C                                       1.3753736
   124   6 C      129   6 C                                       1.4081279
   128   6 C      129   6 C                                       1.3958253
   121   6 C      130   6 C                                       1.4355062
   130   6 C      131   6 C                                       1.3743499
   132   6 C      133   7 N                                       1.1490854
   134   6 C      135   7 N                                       1.1496750
   127   6 C      136   6 C                                       1.5086626
   136   6 C      137   6 C                                       1.5485034
   138   6 C      139   6 C                                       1.3262498
   137   6 C      141   6 C                                       1.5371117
   140   6 C      141   6 C                                       1.5370494
   126   6 C      142   6 C                                       1.5091035
   136   6 C      142   6 C                                       1.5613595
   140   6 C      142   6 C                                       1.5486214
     1   6 C      143   1 H                                       1.0837465
     6   6 C      144   1 H                                       1.0789483
     9   6 C      145   1 H                                       1.0776086
    17   6 C      146   1 H                                       1.0881704
    18   6 C      147   1 H                                       1.0867857
    19   6 C      148   1 H                                       1.0743450
    20   6 C      149   1 H                                       1.0743470
    21   6 C      150   1 H                                       1.0870394
    22   6 C      151   1 H                                       1.0890962
    22   6 C      152   1 H                                       1.0892103
    23   6 C      153   1 H                                       1.0884150
    28   6 C      154   1 H                                       1.0787248
    29   6 C      155   1 H                                       1.0787549
    32   6 C      156   1 H                                       1.0857425
    32   6 C      157   1 H                                       1.0855929
    32   6 C      158   1 H                                       1.0863906
    33   6 C      159   1 H                                       1.0779272
    34   6 C      160   1 H                                       1.0803670
    36   6 C      161   1 H                                       1.0788933
    37   6 C      162   1 H                                       1.0789329
    40   6 C      163   1 H                                       1.0854496
    40   6 C      164   1 H                                       1.0858852
    40   6 C      165   1 H                                       1.0858814
    41   6 C      166   1 H                                       1.0786006
    42   6 C      167   1 H                                       1.0798577
    49   6 C      168   1 H                                       1.0790820
    50   6 C      169   1 H                                       1.0782547
    53   6 C      170   1 H                                       1.0864825
    53   6 C      171   1 H                                       1.0856238
    53   6 C      172   1 H                                       1.0860379
    54   6 C      173   1 H                                       1.0773720
    55   6 C      174   1 H                                       1.0787186
    57   6 C      175   1 H                                       1.0802604
    58   6 C      176   1 H                                       1.0780931
    61   6 C      177   1 H                                       1.0857063
    61   6 C      178   1 H                                       1.0855321
    61   6 C      179   1 H                                       1.0861549
    62   6 C      180   1 H                                       1.0790172
    63   6 C      181   1 H                                       1.0797287
    75   6 C      182   1 H                                       1.0902079
    75   6 C      183   1 H                                       1.0891156
    76   6 C      184   1 H                                       1.0870462
    76   6 C      185   1 H                                       1.0883144
    76   6 C      186   1 H                                       1.0873806
    80   6 C      187   1 H                                       1.0904895
    80   6 C      188   1 H                                       1.0901644
    81   6 C      189   1 H                                       1.0881202
    81   6 C      190   1 H                                       1.0871720
    81   6 C      191   1 H                                       1.0872191
    86   6 C      192   1 H                                       1.0799613
    87   6 C      193   1 H                                       1.0804944
    89   6 C      194   1 H                                       1.0895599
    89   6 C      195   1 H                                       1.0869230
    89   6 C      196   1 H                                       1.0890989
    90   6 C      197   1 H                                       1.0802103
    91   6 C      198   1 H                                       1.0799527
    93   6 C      199   1 H                                       1.0798814
    94   6 C      200   1 H                                       1.0799968
    96   6 C      201   1 H                                       1.0896935
    96   6 C      202   1 H                                       1.0895205
    96   6 C      203   1 H                                       1.0874589
    97   6 C      204   1 H                                       1.0803771
    98   6 C      205   1 H                                       1.0793752
   105   6 C      206   1 H                                       1.0797224
   106   6 C      207   1 H                                       1.0801803
   108   6 C      208   1 H                                       1.0906311
   108   6 C      209   1 H                                       1.0869824
   108   6 C      210   1 H                                       1.0882474
   109   6 C      211   1 H                                       1.0805134
   110   6 C      212   1 H                                       1.0795343
   112   6 C      213   1 H                                       1.0779115
   113   6 C      214   1 H                                       1.0803225
   115   6 C      215   1 H                                       1.0866767
   115   6 C      216   1 H                                       1.0900981
   115   6 C      217   1 H                                       1.0884900
   116   6 C      218   1 H                                       1.0805806
   117   6 C      219   1 H                                       1.0802307
   120   6 C      220   1 H                                       1.0838353
   125   6 C      221   1 H                                       1.0791500
   128   6 C      222   1 H                                       1.0774697
   136   6 C      223   1 H                                       1.0885188
   137   6 C      224   1 H                                       1.0867701
   138   6 C      225   1 H                                       1.0742752 (min)
   139   6 C      226   1 H                                       1.0743023
   140   6 C      227   1 H                                       1.0870894
   141   6 C      228   1 H                                       1.0893400
   141   6 C      229   1 H                                       1.0890644
   142   6 C      230   1 H                                       1.0887071

 * 5 distinct bonds (by element types)

   Z      Z             #   av. dist./Å        max./Å        min./Å
   1 H    6 C          88     1.0836040     1.0906311     1.0742752
   6 C    6 C         104     1.4137443     1.5613595     1.3262498
   6 C    7 N          20     1.3311470     1.4152064     1.1490854
   6 C    8 O           2     1.2172970     1.2175711     1.2170229
   6 C   16 S           5     1.7341466     1.7572881     1.7227322


optimized geometry written to: xtbopt.mol


           -------------------------------------------------
          | TOTAL ENERGY             -374.555980245848 Eh   |
          | GRADIENT NORM               0.000959504357 Eh/α |
          | HOMO-LUMO GAP               0.646625649609 eV   |
           -------------------------------------------------

------------------------------------------------------------------------
 * finished run on 2022/02/13 at 08:11:10.776     
------------------------------------------------------------------------
 total:
 * wall-time:     0 d,  0 h,  4 min, 24.693 sec
 *  cpu-time:     0 d,  0 h, 35 min, 16.228 sec
 * ratio c/w:     7.995 speedup
 SCF:
 * wall-time:     0 d,  0 h,  0 min,  1.103 sec
 *  cpu-time:     0 d,  0 h,  0 min,  8.758 sec
 * ratio c/w:     7.944 speedup
 ANC optimizer:
 * wall-time:     0 d,  0 h,  4 min, 23.466 sec
 *  cpu-time:     0 d,  0 h, 35 min,  6.581 sec
 * ratio c/w:     7.996 speedup

