      -----------------------------------------------------------      
     |                   =====================                   |     
     |                           x T B                           |     
     |                   =====================                   |     
     |                         S. Grimme                         |     
     |          Mulliken Center for Theoretical Chemistry        |     
     |                    University of Bonn                     |     
      -----------------------------------------------------------      

   * xtb version 6.4.1 (unknown) compiled by 'oda6@login1.crc.pitt.edu' on 2021-06-25

   xtb is free software: you can redistribute it and/or modify it under
   the terms of the GNU Lesser General Public License as published by
   the Free Software Foundation, either version 3 of the License, or
   (at your option) any later version.
   
   xtb is distributed in the hope that it will be useful,
   but WITHOUT ANY WARRANTY; without even the implied warranty of
   MERCHANTABILITY or FITNESS FOR A PARTICULAR PURPOSE.  See the
   GNU Lesser General Public License for more details.
   
   Cite this work as:
   * C. Bannwarth, E. Caldeweyher, S. Ehlert, A. Hansen, P. Pracht,
     J. Seibert, S. Spicher, S. Grimme, WIREs Comput. Mol. Sci., 2020, 11,
     e01493. DOI: 10.1002/wcms.1493
   
   for GFN2-xTB:
   * C. Bannwarth, S. Ehlert and S. Grimme., J. Chem. Theory Comput., 2019,
     15, 1652-1671. DOI: 10.1021/acs.jctc.8b01176
   for GFN1-xTB:
   * S. Grimme, C. Bannwarth, P. Shushkov, J. Chem. Theory Comput., 2017,
     13, 1989-2009. DOI: 10.1021/acs.jctc.7b00118
   for GFN0-xTB:
   * P. Pracht, E. Caldeweyher, S. Ehlert, S. Grimme, ChemRxiv, 2019, preprint.
     DOI: 10.26434/chemrxiv.8326202.v1
   for GFN-FF:
   * S. Spicher and S. Grimme, Angew. Chem. Int. Ed., 2020, 59, 15665-15673.
     DOI: 10.1002/anie.202004239
   
   for DFT-D4:
   * E. Caldeweyher, C. Bannwarth and S. Grimme, J. Chem. Phys., 2017,
     147, 034112. DOI: 10.1063/1.4993215
   * E. Caldeweyher, S. Ehlert, A. Hansen, H. Neugebauer, S. Spicher,
     C. Bannwarth and S. Grimme, J. Chem. Phys., 2019, 150, 154122.
     DOI: 10.1063/1.5090222
   * E. Caldeweyher, J.-M. Mewes, S. Ehlert and S. Grimme, Phys. Chem. Chem. Phys.
     2020, 22, 8499-8512. DOI: 10.1039/D0CP00502A
   
   for sTDA-xTB:
   * S. Grimme and C. Bannwarth, J. Chem. Phys., 2016, 145, 054103.
     DOI: 10.1063/1.4959605
   
   in the mass-spec context:
   * V. Asgeirsson, C. Bauer and S. Grimme, Chem. Sci., 2017, 8, 4879.
     DOI: 10.1039/c7sc00601b
   * J. Koopman and S. Grimme, ACS Omega 2019, 4, 12, 15120-15133.
     DOI: 10.1021/acsomega.9b02011
   
   for metadynamics refer to:
   * S. Grimme, J. Chem. Theory Comput., 2019, 155, 2847-2862
     DOI: 10.1021/acs.jctc.9b00143
   
   for SPH calculations refer to:
   * S. Spicher and S. Grimme, J. Chem. Theory Comput., 2021, 17, 1701-1714
     DOI: 10.1021/acs.jctc.0c01306
   
   with help from (in alphabetical order)
   P. Atkinson, C. Bannwarth, F. Bohle, G. Brandenburg, E. Caldeweyher
   M. Checinski, S. Dohm, S. Ehlert, S. Ehrlich, I. Gerasimov, J. Koopman
   C. Lavigne, S. Lehtola, F. März, M. Müller, F. Musil, H. Neugebauer
   J. Pisarek, C. Plett, P. Pracht, J. Seibert, P. Shushkov, S. Spicher
   M. Stahn, M. Steiner, T. Strunk, J. Stückrath, T. Rose, and J. Unsleber
   
 * started run on 2022/02/17 at 20:02:07.145     

           -------------------------------------------------
          |                Calculation Setup                |
           -------------------------------------------------

          program call               : /ihome/ghutchison/oda6/xtb/xtb-641/bin/xtb ../../FF_optimized/39_28_127_28_52.mol -opt
          hostname                   : smp-n1
          coordinate file            : ../../FF_optimized/39_28_127_28_52.mol
          omp threads                :                     8
          number of atoms            :                   216
          number of electrons        :                   646
          charge                     :                     0
          spin                       :                   0.0
          first test random number   :      0.28041392789929

   ID    Z sym.   atoms
    1    6 C      1-3, 5-13, 15, 17-25, 27-41, 43, 44, 46-60, 62, 63, 65, 67,
                  68, 70-73, 75-79, 81-95, 97, 98, 100-114, 116, 117,
                  119-121, 123, 126-132
    2    8 O      4, 133
    3    7 N      14, 16, 26, 45, 69, 74, 80, 99, 122, 124, 125
    4   16 S      42, 61, 96, 115, 118
    5    9 F      64, 66
    6    1 H      134-216
########################################################################
[WARNING] Please study the warnings concerning your input carefully
-1- prog_main_parseArguments: the use of '-opt' is discouraged, please use '--opt' next time
########################################################################

           -------------------------------------------------
          |                 G F N 2 - x T B                 |
           -------------------------------------------------

        Reference                      10.1021/acs.jctc.8b01176
      * Hamiltonian:
        H0-scaling (s, p, d)           1.850000    2.230000    2.230000
        zeta-weighting                 0.500000
      * Dispersion:
        s8                             2.700000
        a1                             0.520000
        a2                             5.000000
        s9                             5.000000
      * Repulsion:
        kExp                           1.500000    1.000000
        rExp                           1.000000
      * Coulomb:
        alpha                          2.000000
        third order                    shell-resolved
        anisotropic                    true
        a3                             3.000000
        a5                             4.000000
        cn-shift                       1.200000
        cn-exp                         4.000000
        max-rad                        5.000000


          ...................................................
          :                      SETUP                      :
          :.................................................:
          :  # basis functions                 645          :
          :  # atomic orbitals                 640          :
          :  # shells                          354          :
          :  # electrons                       646          :
          :  max. iterations                   250          :
          :  Hamiltonian                  GFN2-xTB          :
          :  restarted?                      false          :
          :  GBSA solvation                  false          :
          :  PC potential                    false          :
          :  electronic temp.          300.0000000     K    :
          :  accuracy                    1.0000000          :
          :  -> integral cutoff          0.2500000E+02      :
          :  -> integral neglect         0.1000000E-07      :
          :  -> SCF convergence          0.1000000E-05 Eh   :
          :  -> wf. convergence          0.1000000E-03 e    :
          :  Broyden damping             0.4000000          :
          ...................................................

 iter      E             dE          RMSdq      gap      omega  full diag
   1   -355.1558182 -0.355156E+03  0.444E+00    1.12       0.0  T
   2   -355.3759635 -0.220145E+00  0.271E+00    0.93       1.0  T
   3   -355.0002889  0.375675E+00  0.180E+00    0.44       1.0  T
   4   -355.5018019 -0.501513E+00  0.596E-01    0.41       1.0  T
   5   -355.5548804 -0.530785E-01  0.212E-01    0.30       1.0  T
   6   -355.5614580 -0.657761E-02  0.975E-02    0.37       1.0  T
   7   -355.5627343 -0.127631E-02  0.461E-02    0.39       1.0  T
   8   -355.5629962 -0.261840E-03  0.207E-02    0.38       1.0  T
   9   -355.5630339 -0.377791E-04  0.106E-02    0.39       1.0  T
  10   -355.5630494 -0.154656E-04  0.465E-03    0.39       1.5  T
  11   -355.5630505 -0.106369E-05  0.258E-03    0.39       2.6  T
  12   -355.5630514 -0.925342E-06  0.118E-03    0.39       5.8  T
  13   -355.5630515 -0.689677E-07  0.697E-04    0.39       9.8  T
  14   -355.5630515 -0.494329E-07  0.351E-04    0.39      19.4  T

   *** convergence criteria satisfied after 14 iterations ***

         #    Occupation            Energy/Eh            Energy/eV
      -------------------------------------------------------------
         1        2.0000           -0.8283811             -22.5414
       ...           ...                  ...                  ...
       317        2.0000           -0.3810852             -10.3699
       318        2.0000           -0.3790892             -10.3155
       319        2.0000           -0.3640414              -9.9061
       320        2.0000           -0.3517645              -9.5720
       321        2.0000           -0.3511630              -9.5556
       322        2.0000           -0.3464843              -9.4283
       323        1.9989           -0.3434055              -9.3445 (HOMO)
       324        0.0012           -0.3292087              -8.9582 (LUMO)
       325        0.0000           -0.3218789              -8.7588
       326                         -0.3148172              -8.5666
       327                         -0.3096375              -8.4257
       328                         -0.2789644              -7.5910
       ...                                ...                  ...
       640                          1.0871533              29.5829
      -------------------------------------------------------------
                  HL-Gap            0.0141968 Eh            0.3863 eV
             Fermi-level           -0.3362889 Eh           -9.1509 eV

 SCC (total)                   0 d,  0 h,  0 min,  0.708 sec
 SCC setup                      ...        0 min,  0.003 sec (  0.450%)
 Dispersion                     ...        0 min,  0.012 sec (  1.685%)
 classical contributions        ...        0 min,  0.000 sec (  0.063%)
 integral evaluation            ...        0 min,  0.038 sec (  5.400%)
 iterations                     ...        0 min,  0.515 sec ( 72.685%)
 molecular gradient             ...        0 min,  0.136 sec ( 19.216%)
 printout                       ...        0 min,  0.003 sec (  0.490%)

         :::::::::::::::::::::::::::::::::::::::::::::::::::::
         ::                     SUMMARY                     ::
         :::::::::::::::::::::::::::::::::::::::::::::::::::::
         :: total energy            -350.078763507144 Eh    ::
         :: gradient norm              0.323345344645 Eh/a0 ::
         :: HOMO-LUMO gap              0.386313353864 eV    ::
         ::.................................................::
         :: SCC energy              -355.563051515685 Eh    ::
         :: -> isotropic ES            0.162316597953 Eh    ::
         :: -> anisotropic ES          0.042104479556 Eh    ::
         :: -> anisotropic XC          0.229626798137 Eh    ::
         :: -> dispersion             -0.345324355633 Eh    ::
         :: repulsion energy           5.469867131727 Eh    ::
         :: add. restraining           0.000000000000 Eh    ::
         :: total charge              -0.000000000000 e     ::
         :::::::::::::::::::::::::::::::::::::::::::::::::::::

      ----------------------------------------------------------- 
     |                   =====================                   |
     |                        A N C O P T                        |
     |                   =====================                   |
     |               Approximate Normal Coordinate               |
     |                Rational Function Optimizer                |
      ----------------------------------------------------------- 

          ...................................................
          :                      SETUP                      :
          :.................................................:
          :   optimization level            normal          :
          :   max. optcycles                   648          :
          :   ANC micro-cycles                  20          :
          :   degrees of freedom               642          :
          :.................................................:
          :   RF solver                   davidson          :
          :   write xtbopt.log                true          :
          :   linear?                        false          :
          :   energy convergence         0.5000000E-05 Eh   :
          :   grad. convergence          0.1000000E-02 Eh/α :
          :   maximium RF displ.         1.0000000          :
          :   Hlow (freq-cutoff)         0.1000000E-01      :
          :   Hmax (freq-cutoff)         5.0000000          :
          :   S6 in model hess.         20.0000000          :
          ...................................................

generating ANC from model Hessian ...
Using Lindh-Hessian (1995)
 Shifting diagonal of input Hessian by   1.002058981653016E-002
 Lowest  eigenvalues of input Hessian
    0.010000    0.010017    0.000000    0.000000    0.000000    0.000000
    0.000000    0.000000    0.010027    0.010040    0.010041    0.010059
    0.010071    0.010091    0.010106    0.010109    0.010129    0.010135
 Highest eigenvalues
    2.208140    2.336499    2.506934    2.509339    2.560501    2.571007
 

........................................................................
.............................. CYCLE    1 ..............................
........................................................................
   1   -355.5630515 -0.355563E+03  0.181E-04    0.39       0.0  T
   2   -355.5630515  0.178812E-08  0.175E-04    0.39      38.8  T
   3   -355.5630515 -0.704694E-08  0.694E-05    0.39      98.1  T
     SCC iter.                  ...        0 min,  0.123 sec
     gradient                   ...        0 min,  0.135 sec
 * total energy  :  -350.0787635 Eh     change       -0.1284570E-07 Eh
   gradient norm :     0.3233449 Eh/α   predicted     0.0000000E+00 (-100.00%)
   displ. norm   :     0.4827731 α      lambda       -0.1136336E+00
   maximum displ.:     0.0934366 α      in ANC's #453, #182, #403, ...

........................................................................
.............................. CYCLE    2 ..............................
........................................................................
   1   -355.8051388 -0.355805E+03  0.237E-01    0.47       0.0  T
   2   -355.8069251 -0.178629E-02  0.153E-01    0.51       1.0  T
   3   -355.8068380  0.870925E-04  0.838E-02    0.49       1.0  T
   4   -355.8074172 -0.579167E-03  0.386E-02    0.50       1.0  T
   5   -355.8077262 -0.308973E-03  0.129E-02    0.51       1.0  T
   6   -355.8077482 -0.220342E-04  0.630E-03    0.50       1.1  T
   7   -355.8077541 -0.589334E-05  0.271E-03    0.51       2.5  T
   8   -355.8077554 -0.133589E-05  0.976E-04    0.51       7.0  T
   9   -355.8077555 -0.572193E-07  0.558E-04    0.50      12.2  T
  10   -355.8077555 -0.275490E-07  0.264E-04    0.51      25.7  T
     SCC iter.                  ...        0 min,  0.360 sec
     gradient                   ...        0 min,  0.134 sec
 * total energy  :  -350.1623100 Eh     change       -0.8354649E-01 Eh
   gradient norm :     0.1531933 Eh/α   predicted    -0.7010041E-01 ( -16.09%)
   displ. norm   :     0.5044816 α      lambda       -0.4944259E-01
   maximum displ.:     0.1111708 α      in ANC's #82, #122, #182, ...

........................................................................
.............................. CYCLE    3 ..............................
........................................................................
   1   -355.9665132 -0.355967E+03  0.200E-01    0.56       0.0  T
   2   -355.9679044 -0.139121E-02  0.132E-01    0.60       1.0  T
   3   -355.9680800 -0.175557E-03  0.771E-02    0.58       1.0  T
   4   -355.9685904 -0.510430E-03  0.363E-02    0.59       1.0  T
   5   -355.9688734 -0.283010E-03  0.128E-02    0.59       1.0  T
   6   -355.9689008 -0.274052E-04  0.505E-03    0.59       1.3  T
   7   -355.9689045 -0.362157E-05  0.232E-03    0.59       2.9  T
   8   -355.9689052 -0.714425E-06  0.890E-04    0.59       7.6  T
   9   -355.9689052 -0.396616E-07  0.514E-04    0.59      13.2  T
     SCC iter.                  ...        0 min,  0.325 sec
     gradient                   ...        0 min,  0.134 sec
 * total energy  :  -350.1938436 Eh     change       -0.3153363E-01 Eh
   gradient norm :     0.0438746 Eh/α   predicted    -0.3101292E-01 (  -1.65%)
   displ. norm   :     0.5626962 α      lambda       -0.1445351E-01
   maximum displ.:     0.2012599 α      in ANC's #82, #122, #151, ...

........................................................................
.............................. CYCLE    4 ..............................
........................................................................
   1   -356.0322236 -0.356032E+03  0.160E-01    0.57       0.0  T
   2   -356.0324402 -0.216682E-03  0.984E-02    0.61       1.0  T
   3   -356.0315915  0.848773E-03  0.656E-02    0.59       1.0  T
   4   -356.0327446 -0.115311E-02  0.171E-02    0.60       1.0  T
   5   -356.0328153 -0.707340E-04  0.721E-03    0.61       1.0  T
   6   -356.0328244 -0.910239E-05  0.268E-03    0.60       2.5  T
   7   -356.0328250 -0.548507E-06  0.136E-03    0.60       5.0  T
   8   -356.0328252 -0.205325E-06  0.528E-04    0.60      12.9  T
   9   -356.0328252 -0.172093E-07  0.305E-04    0.60      22.3  T
     SCC iter.                  ...        0 min,  0.326 sec
     gradient                   ...        0 min,  0.134 sec
 * total energy  :  -350.2032002 Eh     change       -0.9356558E-02 Eh
   gradient norm :     0.0309916 Eh/α   predicted    -0.9514991E-02 (   1.69%)
   displ. norm   :     0.7318566 α      lambda       -0.1359181E-01
   maximum displ.:     0.2384298 α      in ANC's #82, #122, #115, ...

........................................................................
.............................. CYCLE    5 ..............................
........................................................................
   1   -356.0797114 -0.356080E+03  0.287E-01    0.57       0.0  T
   2   -356.0800053 -0.293863E-03  0.166E-01    0.62       1.0  T
   3   -356.0762503  0.375499E-02  0.108E-01    0.58       1.0  T
   4   -356.0805063 -0.425607E-02  0.200E-02    0.61       1.0  T
   5   -356.0806096 -0.103219E-03  0.948E-03    0.61       1.0  T
   6   -356.0806245 -0.149009E-04  0.357E-03    0.61       1.9  T
   7   -356.0806250 -0.562595E-06  0.163E-03    0.61       4.2  T
   8   -356.0806254 -0.362545E-06  0.669E-04    0.61      10.2  T
   9   -356.0806254 -0.409192E-07  0.351E-04    0.61      19.4  T
     SCC iter.                  ...        0 min,  0.325 sec
     gradient                   ...        0 min,  0.134 sec
 * total energy  :  -350.2069073 Eh     change       -0.3707082E-02 Eh
   gradient norm :     0.0420798 Eh/α   predicted    -0.1043589E-01 ( 181.51%)
   displ. norm   :     0.3733463 α      lambda       -0.7819927E-02
   maximum displ.:     0.1392712 α      in ANC's #82, #60, #88, ...

........................................................................
.............................. CYCLE    6 ..............................
........................................................................
   1   -356.0931590 -0.356093E+03  0.166E-01    0.60       0.0  T
   2   -356.0932317 -0.726862E-04  0.932E-02    0.61       1.0  T
   3   -356.0929556  0.276138E-03  0.296E-02    0.60       1.0  T
   4   -356.0932728 -0.317230E-03  0.622E-03    0.61       1.1  T
   5   -356.0932793 -0.648786E-05  0.293E-03    0.61       2.3  T
   6   -356.0932798 -0.535809E-06  0.144E-03    0.61       4.7  T
   7   -356.0932801 -0.331829E-06  0.548E-04    0.61      12.4  T
   8   -356.0932802 -0.429283E-07  0.230E-04    0.61      29.6  T
     SCC iter.                  ...        0 min,  0.291 sec
     gradient                   ...        0 min,  0.134 sec
 * total energy  :  -350.2118022 Eh     change       -0.4894971E-02 Eh
   gradient norm :     0.0303024 Eh/α   predicted    -0.4454968E-02 (  -8.99%)
   displ. norm   :     0.4630090 α      lambda       -0.3664260E-02
   maximum displ.:     0.1536585 α      in ANC's #82, #41, #68, ...

........................................................................
.............................. CYCLE    7 ..............................
........................................................................
   1   -356.0864120 -0.356086E+03  0.115E-01    0.60       0.0  T
   2   -356.0864288 -0.168109E-04  0.666E-02    0.62       1.0  T
   3   -356.0857980  0.630793E-03  0.463E-02    0.61       1.0  T
   4   -356.0864970 -0.698991E-03  0.547E-03    0.62       1.2  T
   5   -356.0865009 -0.390487E-05  0.287E-03    0.62       2.4  T
   6   -356.0865019 -0.985595E-06  0.129E-03    0.62       5.3  T
   7   -356.0865021 -0.167884E-06  0.531E-04    0.62      12.8  T
   8   -356.0865021 -0.331075E-07  0.226E-04    0.62      30.1  T
     SCC iter.                  ...        0 min,  0.292 sec
     gradient                   ...        0 min,  0.135 sec
 * total energy  :  -350.2138061 Eh     change       -0.2003824E-02 Eh
   gradient norm :     0.0201197 Eh/α   predicted    -0.2224914E-02 (  11.03%)
   displ. norm   :     0.5867731 α      lambda       -0.3668963E-02
   maximum displ.:     0.1854874 α      in ANC's #82, #41, #43, ...

........................................................................
.............................. CYCLE    8 ..............................
........................................................................
   1   -356.0873727 -0.356087E+03  0.211E-01    0.60       0.0  T
   2   -356.0874565 -0.838452E-04  0.119E-01    0.63       1.0  T
   3   -356.0858759  0.158063E-02  0.677E-02    0.62       1.0  T
   4   -356.0876147 -0.173880E-02  0.797E-03    0.63       1.0  T
   5   -356.0876227 -0.804300E-05  0.440E-03    0.63       1.5  T
   6   -356.0876251 -0.236660E-05  0.183E-03    0.63       3.7  T
   7   -356.0876254 -0.299613E-06  0.717E-04    0.63       9.5  T
   8   -356.0876255 -0.811507E-07  0.311E-04    0.63      21.9  T
     SCC iter.                  ...        0 min,  0.290 sec
     gradient                   ...        0 min,  0.134 sec
 * total energy  :  -350.2145525 Eh     change       -0.7464152E-03 Eh
   gradient norm :     0.0486421 Eh/α   predicted    -0.2466097E-02 ( 230.39%)
   displ. norm   :     0.3333779 α      lambda       -0.3870902E-02
   maximum displ.:     0.0872742 α      in ANC's #25, #41, #68, ...

........................................................................
.............................. CYCLE    9 ..............................
........................................................................
   1   -356.1111567 -0.356111E+03  0.136E-01    0.62       0.0  T
   2   -356.1112095 -0.528494E-04  0.759E-02    0.63       1.0  T
   3   -356.1110424  0.167117E-03  0.257E-02    0.63       1.0  T
   4   -356.1112393 -0.196866E-03  0.438E-03    0.64       1.6  T
   5   -356.1112423 -0.298229E-05  0.230E-03    0.64       3.0  T
   6   -356.1112428 -0.532846E-06  0.124E-03    0.63       5.5  T
   7   -356.1112431 -0.305862E-06  0.457E-04    0.63      14.9  T
   8   -356.1112431 -0.400103E-07  0.170E-04    0.63      40.1  T
     SCC iter.                  ...        0 min,  0.292 sec
     gradient                   ...        0 min,  0.134 sec
 * total energy  :  -350.2163555 Eh     change       -0.1803000E-02 Eh
   gradient norm :     0.0191493 Eh/α   predicted    -0.2150559E-02 (  19.28%)
   displ. norm   :     0.4499720 α      lambda       -0.3440528E-02
   maximum displ.:     0.1086724 α      in ANC's #30, #65, #25, ...

........................................................................
.............................. CYCLE   10 ..............................
........................................................................
   1   -356.1162030 -0.356116E+03  0.220E-01    0.63       0.0  T
   2   -356.1163201 -0.117136E-03  0.122E-01    0.65       1.0  T
   3   -356.1159085  0.411633E-03  0.472E-02    0.63       1.0  T
   4   -356.1164032 -0.494696E-03  0.647E-03    0.65       1.1  T
   5   -356.1164057 -0.257295E-05  0.382E-03    0.65       1.8  T
   6   -356.1164075 -0.171727E-05  0.151E-03    0.65       4.5  T
   7   -356.1164078 -0.300228E-06  0.546E-04    0.65      12.5  T
   8   -356.1164078 -0.320011E-07  0.259E-04    0.65      26.3  T
     SCC iter.                  ...        0 min,  0.291 sec
     gradient                   ...        0 min,  0.134 sec
 * total energy  :  -350.2161091 Eh     change        0.2463723E-03 Eh
   gradient norm :     0.0419103 Eh/α   predicted    -0.2068576E-02 (-939.61%)
   displ. norm   :     0.2961430 α      lambda       -0.3995859E-02
   maximum displ.:     0.0726513 α      in ANC's #63, #41, #25, ...

........................................................................
.............................. CYCLE   11 ..............................
........................................................................
   1   -356.1164870 -0.356116E+03  0.133E-01    0.65       0.0  T
   2   -356.1165336 -0.466253E-04  0.740E-02    0.65       1.0  T
   3   -356.1164009  0.132718E-03  0.266E-02    0.66       1.0  T
   4   -356.1165604 -0.159528E-03  0.378E-03    0.65       1.8  T
   5   -356.1165615 -0.111566E-05  0.244E-03    0.65       2.8  T
   6   -356.1165625 -0.938269E-06  0.936E-04    0.65       7.3  T
   7   -356.1165626 -0.959774E-07  0.428E-04    0.65      15.9  T
     SCC iter.                  ...        0 min,  0.256 sec
     gradient                   ...        0 min,  0.134 sec
 * total energy  :  -350.2184093 Eh     change       -0.2300154E-02 Eh
   gradient norm :     0.0166164 Eh/α   predicted    -0.2173158E-02 (  -5.52%)
   displ. norm   :     0.5055895 α      lambda       -0.1489506E-02
   maximum displ.:     0.1462660 α      in ANC's #25, #41, #18, ...

........................................................................
.............................. CYCLE   12 ..............................
........................................................................
   1   -356.1097447 -0.356110E+03  0.764E-02    0.65       0.0  T
   2   -356.1097556 -0.108667E-04  0.440E-02    0.66       1.0  T
   3   -356.1096189  0.136618E-03  0.214E-02    0.65       1.0  T
   4   -356.1097676 -0.148651E-03  0.384E-03    0.66       1.8  T
   5   -356.1097696 -0.201332E-05  0.208E-03    0.66       3.3  T
   6   -356.1097702 -0.629921E-06  0.829E-04    0.66       8.2  T
   7   -356.1097703 -0.966326E-07  0.327E-04    0.66      20.8  T
     SCC iter.                  ...        0 min,  0.263 sec
     gradient                   ...        0 min,  0.135 sec
 * total energy  :  -350.2196197 Eh     change       -0.1210414E-02 Eh
   gradient norm :     0.0096925 Eh/α   predicted    -0.9351291E-03 ( -22.74%)
   displ. norm   :     0.7257054 α      lambda       -0.1687933E-02
   maximum displ.:     0.2183093 α      in ANC's #25, #18, #41, ...

........................................................................
.............................. CYCLE   13 ..............................
........................................................................
   1   -356.1083676 -0.356108E+03  0.909E-02    0.66       0.0  T
   2   -356.1083809 -0.133380E-04  0.529E-02    0.68       1.0  T
   3   -356.1082649  0.116043E-03  0.216E-02    0.67       1.0  T
   4   -356.1083921 -0.127189E-03  0.413E-03    0.68       1.6  T
   5   -356.1083939 -0.187746E-05  0.239E-03    0.68       2.8  T
   6   -356.1083948 -0.888075E-06  0.999E-04    0.68       6.8  T
   7   -356.1083950 -0.203726E-06  0.330E-04    0.68      20.6  T
     SCC iter.                  ...        0 min,  0.255 sec
     gradient                   ...        0 min,  0.135 sec
 * total energy  :  -350.2210786 Eh     change       -0.1458876E-02 Eh
   gradient norm :     0.0113358 Eh/α   predicted    -0.1288445E-02 ( -11.68%)
   displ. norm   :     0.7652787 α      lambda       -0.1566955E-02
   maximum displ.:     0.2438871 α      in ANC's #18, #25, #15, ...

........................................................................
.............................. CYCLE   14 ..............................
........................................................................
   1   -356.1096086 -0.356110E+03  0.933E-02    0.68       0.0  T
   2   -356.1096228 -0.141173E-04  0.542E-02    0.69       1.0  T
   3   -356.1095094  0.113356E-03  0.220E-02    0.68       1.0  T
   4   -356.1096353 -0.125883E-03  0.375E-03    0.69       1.8  T
   5   -356.1096365 -0.121129E-05  0.222E-03    0.69       3.1  T
   6   -356.1096372 -0.660732E-06  0.964E-04    0.69       7.1  T
   7   -356.1096373 -0.171474E-06  0.330E-04    0.69      20.6  T
     SCC iter.                  ...        0 min,  0.255 sec
     gradient                   ...        0 min,  0.135 sec
 * total energy  :  -350.2224023 Eh     change       -0.1323776E-02 Eh
   gradient norm :     0.0094242 Eh/α   predicted    -0.1242328E-02 (  -6.15%)
   displ. norm   :     0.7663778 α      lambda       -0.1377560E-02
   maximum displ.:     0.2617983 α      in ANC's #18, #25, #15, ...

........................................................................
.............................. CYCLE   15 ..............................
........................................................................
   1   -356.1160851 -0.356116E+03  0.847E-02    0.69       0.0  T
   2   -356.1160948 -0.965843E-05  0.494E-02    0.70       1.0  T
   3   -356.1159915  0.103256E-03  0.208E-02    0.69       1.0  T
   4   -356.1161039 -0.112388E-03  0.349E-03    0.70       1.9  T
   5   -356.1161055 -0.157333E-05  0.211E-03    0.70       3.2  T
   6   -356.1161064 -0.874705E-06  0.871E-04    0.70       7.8  T
   7   -356.1161065 -0.129041E-06  0.343E-04    0.70      19.9  T
     SCC iter.                  ...        0 min,  0.257 sec
     gradient                   ...        0 min,  0.134 sec
 * total energy  :  -350.2234766 Eh     change       -0.1074259E-02 Eh
   gradient norm :     0.0133156 Eh/α   predicted    -0.1093325E-02 (   1.77%)
   displ. norm   :     0.7434972 α      lambda       -0.1199801E-02
   maximum displ.:     0.2650642 α      in ANC's #18, #25, #15, ...

........................................................................
.............................. CYCLE   16 ..............................
........................................................................
   1   -356.1144105 -0.356114E+03  0.830E-02    0.69       0.0  T
   2   -356.1144199 -0.938828E-05  0.483E-02    0.70       1.0  T
   3   -356.1143176  0.102294E-03  0.203E-02    0.69       1.0  T
   4   -356.1144302 -0.112574E-03  0.304E-03    0.70       2.2  T
   5   -356.1144310 -0.891693E-06  0.184E-03    0.70       3.7  T
   6   -356.1144315 -0.491950E-06  0.791E-04    0.70       8.6  T
   7   -356.1144316 -0.892202E-07  0.307E-04    0.70      22.2  T
     SCC iter.                  ...        0 min,  0.258 sec
     gradient                   ...        0 min,  0.134 sec
 * total energy  :  -350.2244648 Eh     change       -0.9881692E-03 Eh
   gradient norm :     0.0068955 Eh/α   predicted    -0.9315195E-03 (  -5.73%)
   displ. norm   :     0.7182898 α      lambda       -0.1031948E-02
   maximum displ.:     0.2741462 α      in ANC's #18, #15, #12, ...

........................................................................
.............................. CYCLE   17 ..............................
........................................................................
   1   -356.1184710 -0.356118E+03  0.678E-02    0.69       0.0  T
   2   -356.1184755 -0.446585E-05  0.396E-02    0.70       1.0  T
   3   -356.1184109  0.645588E-04  0.156E-02    0.69       1.0  T
   4   -356.1184806 -0.696613E-04  0.248E-03    0.70       2.7  T
   5   -356.1184815 -0.868263E-06  0.145E-03    0.70       4.7  T
   6   -356.1184819 -0.384916E-06  0.611E-04    0.70      11.1  T
   7   -356.1184819 -0.570633E-07  0.262E-04    0.70      26.0  T
     SCC iter.                  ...        0 min,  0.257 sec
     gradient                   ...        0 min,  0.134 sec
 * total energy  :  -350.2253631 Eh     change       -0.8983585E-03 Eh
   gradient norm :     0.0098371 Eh/α   predicted    -0.7821861E-03 ( -12.93%)
   displ. norm   :     0.7660651 α      lambda       -0.1165978E-02
   maximum displ.:     0.2978097 α      in ANC's #18, #15, #12, ...

........................................................................
.............................. CYCLE   18 ..............................
........................................................................
   1   -356.1237450 -0.356124E+03  0.727E-02    0.69       0.0  T
   2   -356.1237538 -0.879424E-05  0.421E-02    0.70       1.0  T
   3   -356.1237111  0.426624E-04  0.134E-02    0.69       1.0  T
   4   -356.1237590 -0.478699E-04  0.264E-03    0.70       2.6  T
   5   -356.1237596 -0.665211E-06  0.156E-03    0.70       4.4  T
   6   -356.1237600 -0.331433E-06  0.699E-04    0.70       9.7  T
   7   -356.1237600 -0.788406E-07  0.297E-04    0.70      22.9  T
     SCC iter.                  ...        0 min,  0.256 sec
     gradient                   ...        0 min,  0.134 sec
 * total energy  :  -350.2263205 Eh     change       -0.9573319E-03 Eh
   gradient norm :     0.0108113 Eh/α   predicted    -0.9251243E-03 (  -3.36%)
   displ. norm   :     0.7608861 α      lambda       -0.1134296E-02
   maximum displ.:     0.2969368 α      in ANC's #18, #15, #12, ...

........................................................................
.............................. CYCLE   19 ..............................
........................................................................
   1   -356.1228640 -0.356123E+03  0.611E-02    0.69       0.0  T
   2   -356.1228689 -0.494633E-05  0.355E-02    0.70       1.0  T
   3   -356.1228424  0.264541E-04  0.105E-02    0.70       1.0  T
   4   -356.1228708 -0.283656E-04  0.262E-03    0.70       2.6  T
   5   -356.1228719 -0.107758E-05  0.141E-03    0.70       4.8  T
   6   -356.1228723 -0.365512E-06  0.558E-04    0.70      12.2  T
   7   -356.1228723 -0.493111E-07  0.251E-04    0.70      27.1  T
     SCC iter.                  ...        0 min,  0.257 sec
     gradient                   ...        0 min,  0.134 sec
 * total energy  :  -350.2273116 Eh     change       -0.9911187E-03 Eh
   gradient norm :     0.0085616 Eh/α   predicted    -0.8955017E-03 (  -9.65%)
   displ. norm   :     0.7955268 α      lambda       -0.1100757E-02
   maximum displ.:     0.3091731 α      in ANC's #15, #18, #12, ...

........................................................................
.............................. CYCLE   20 ..............................
........................................................................
   1   -356.1219810 -0.356122E+03  0.599E-02    0.70       0.0  T
   2   -356.1219866 -0.551728E-05  0.346E-02    0.70       1.0  T
   3   -356.1219707  0.158185E-04  0.888E-03    0.70       1.0  T
   4   -356.1219883 -0.176039E-04  0.251E-03    0.70       2.7  T
   5   -356.1219890 -0.643615E-06  0.142E-03    0.70       4.8  T
   6   -356.1219893 -0.338511E-06  0.576E-04    0.70      11.8  T
   7   -356.1219894 -0.625418E-07  0.233E-04    0.70      29.2  T
     SCC iter.                  ...        0 min,  0.262 sec
     gradient                   ...        0 min,  0.135 sec
 * total energy  :  -350.2283071 Eh     change       -0.9954915E-03 Eh
   gradient norm :     0.0089271 Eh/α   predicted    -0.8986999E-03 (  -9.72%)
   displ. norm   :     0.8127390 α      lambda       -0.1165194E-02
   maximum displ.:     0.3278472 α      in ANC's #15, #18, #12, ...
 * RMSD in coord.:     0.6128396 α      energy gain  -0.1495436E+00 Eh

generating ANC from model Hessian ...
Using Lindh-Hessian (1995)
 Shifting diagonal of input Hessian by   1.010271930837279E-002
 Lowest  eigenvalues of input Hessian
    0.010000    0.010093    0.000000    0.000000    0.000000    0.000000
    0.000000    0.000000    0.010105    0.010114    0.010123    0.010147
    0.010149    0.010177    0.010195    0.010198    0.010214    0.010224
 Highest eigenvalues
    2.271577    2.403906    2.600832    2.612113    2.649883    2.671978
 

........................................................................
.............................. CYCLE   21 ..............................
........................................................................
   1   -356.1164438 -0.356116E+03  0.580E-02    0.70       0.0  T
   2   -356.1164497 -0.588722E-05  0.336E-02    0.70       1.0  T
   3   -356.1164247  0.249991E-04  0.102E-02    0.70       1.0  T
   4   -356.1164517 -0.269430E-04  0.271E-03    0.70       2.5  T
   5   -356.1164529 -0.121223E-05  0.145E-03    0.70       4.7  T
   6   -356.1164532 -0.306777E-06  0.659E-04    0.70      10.3  T
   7   -356.1164533 -0.819931E-07  0.253E-04    0.70      26.9  T
     SCC iter.                  ...        0 min,  0.256 sec
     gradient                   ...        0 min,  0.135 sec
 * total energy  :  -350.2293406 Eh     change       -0.1033503E-02 Eh
   gradient norm :     0.0082715 Eh/α   predicted     0.0000000E+00 (-100.00%)
   displ. norm   :     0.1453167 α      lambda       -0.3352798E-03
   maximum displ.:     0.0652005 α      in ANC's #18, #13, #12, ...

........................................................................
.............................. CYCLE   22 ..............................
........................................................................
   1   -356.1210001 -0.356121E+03  0.273E-02    0.70       0.0  T
   2   -356.1210020 -0.190432E-05  0.153E-02    0.70       1.0  T
   3   -356.1209999  0.213635E-05  0.373E-03    0.70       1.8  T
   4   -356.1210027 -0.287559E-05  0.873E-04    0.70       7.8  T
   5   -356.1210028 -0.524138E-07  0.515E-04    0.70      13.2  T
   6   -356.1210028 -0.309793E-07  0.221E-04    0.70      30.8  T
     SCC iter.                  ...        0 min,  0.222 sec
     gradient                   ...        0 min,  0.134 sec
 * total energy  :  -350.2296089 Eh     change       -0.2683265E-03 Eh
   gradient norm :     0.0043283 Eh/α   predicted    -0.1711810E-03 ( -36.20%)
   displ. norm   :     0.6042842 α      lambda       -0.1195545E-02
   maximum displ.:     0.2517928 α      in ANC's #18, #13, #16, ...

........................................................................
.............................. CYCLE   23 ..............................
........................................................................
   1   -356.1350059 -0.356135E+03  0.849E-02    0.71       0.0  T
   2   -356.1350230 -0.171154E-04  0.483E-02    0.71       1.0  T
   3   -356.1349965  0.265214E-04  0.127E-02    0.71       1.0  T
   4   -356.1350294 -0.328567E-04  0.315E-03    0.71       2.2  T
   5   -356.1350302 -0.874947E-06  0.181E-03    0.71       3.8  T
   6   -356.1350307 -0.439213E-06  0.751E-04    0.71       9.1  T
   7   -356.1350307 -0.619420E-07  0.322E-04    0.71      21.1  T
     SCC iter.                  ...        0 min,  0.257 sec
     gradient                   ...        0 min,  0.135 sec
 * total energy  :  -350.2300394 Eh     change       -0.4305196E-03 Eh
   gradient norm :     0.0200948 Eh/α   predicted    -0.8160588E-03 (  89.55%)
   displ. norm   :     0.3443759 α      lambda       -0.9529486E-03
   maximum displ.:     0.1541287 α      in ANC's #18, #13, #12, ...

........................................................................
.............................. CYCLE   24 ..............................
........................................................................
   1   -356.1319381 -0.356132E+03  0.666E-02    0.71       0.0  T
   2   -356.1319479 -0.977553E-05  0.372E-02    0.71       1.0  T
   3   -356.1319469  0.928142E-06  0.487E-03    0.71       1.4  T
   4   -356.1319517 -0.476303E-05  0.161E-03    0.71       4.2  T
   5   -356.1319518 -0.913324E-07  0.857E-04    0.71       7.9  T
   6   -356.1319519 -0.103928E-06  0.290E-04    0.71      23.4  T
     SCC iter.                  ...        0 min,  0.221 sec
     gradient                   ...        0 min,  0.135 sec
 * total energy  :  -350.2307016 Eh     change       -0.6621988E-03 Eh
   gradient norm :     0.0132141 Eh/α   predicted    -0.5329907E-03 ( -19.51%)
   displ. norm   :     0.4854464 α      lambda       -0.9758681E-03
   maximum displ.:     0.2104314 α      in ANC's #18, #13, #12, ...

........................................................................
.............................. CYCLE   25 ..............................
........................................................................
   1   -356.1224660 -0.356122E+03  0.814E-02    0.71       0.0  T
   2   -356.1224810 -0.150477E-04  0.456E-02    0.72       1.0  T
   3   -356.1224699  0.111031E-04  0.885E-03    0.72       1.0  T
   4   -356.1224871 -0.171881E-04  0.238E-03    0.72       2.9  T
   5   -356.1224875 -0.431348E-06  0.141E-03    0.72       4.8  T
   6   -356.1224878 -0.250609E-06  0.577E-04    0.72      11.8  T
   7   -356.1224879 -0.627103E-07  0.235E-04    0.72      29.0  T
     SCC iter.                  ...        0 min,  0.257 sec
     gradient                   ...        0 min,  0.134 sec
 * total energy  :  -350.2311209 Eh     change       -0.4193036E-03 Eh
   gradient norm :     0.0120961 Eh/α   predicted    -0.6029202E-03 (  43.79%)
   displ. norm   :     0.5001904 α      lambda       -0.1177819E-02
   maximum displ.:     0.2289344 α      in ANC's #18, #13, #12, ...

........................................................................
.............................. CYCLE   26 ..............................
........................................................................
   1   -356.1164868 -0.356116E+03  0.882E-02    0.72       0.0  T
   2   -356.1165071 -0.203284E-04  0.492E-02    0.72       1.0  T
   3   -356.1164927  0.143982E-04  0.966E-03    0.72       1.0  T
   4   -356.1165151 -0.224553E-04  0.262E-03    0.72       2.6  T
   5   -356.1165157 -0.552604E-06  0.172E-03    0.72       4.0  T
   6   -356.1165162 -0.531421E-06  0.574E-04    0.72      11.9  T
   7   -356.1165163 -0.572966E-07  0.230E-04    0.72      29.5  T
     SCC iter.                  ...        0 min,  0.256 sec
     gradient                   ...        0 min,  0.135 sec
 * total energy  :  -350.2317316 Eh     change       -0.6107022E-03 Eh
   gradient norm :     0.0138018 Eh/α   predicted    -0.7362528E-03 (  20.56%)
   displ. norm   :     0.4897256 α      lambda       -0.1374927E-02
   maximum displ.:     0.2156252 α      in ANC's #18, #13, #16, ...

........................................................................
.............................. CYCLE   27 ..............................
........................................................................
   1   -356.1194549 -0.356119E+03  0.116E-01    0.72       0.0  T
   2   -356.1194836 -0.286670E-04  0.642E-02    0.72       1.0  T
   3   -356.1194806  0.298368E-05  0.806E-03    0.72       1.0  T
   4   -356.1194948 -0.141730E-04  0.249E-03    0.72       2.7  T
   5   -356.1194950 -0.214996E-06  0.150E-03    0.72       4.5  T
   6   -356.1194953 -0.308636E-06  0.617E-04    0.72      11.0  T
   7   -356.1194954 -0.833236E-07  0.229E-04    0.72      29.7  T
     SCC iter.                  ...        0 min,  0.256 sec
     gradient                   ...        0 min,  0.134 sec
 * total energy  :  -350.2323137 Eh     change       -0.5820896E-03 Eh
   gradient norm :     0.0132203 Eh/α   predicted    -0.8523387E-03 (  46.43%)
   displ. norm   :     0.5134729 α      lambda       -0.1052254E-02
   maximum displ.:     0.2360651 α      in ANC's #18, #13, #16, ...

........................................................................
.............................. CYCLE   28 ..............................
........................................................................
   1   -356.1245630 -0.356125E+03  0.553E-02    0.72       0.0  T
   2   -356.1245688 -0.581683E-05  0.313E-02    0.72       1.0  T
   3   -356.1245523  0.164932E-04  0.802E-03    0.72       1.0  T
   4   -356.1245713 -0.190448E-04  0.201E-03    0.72       3.4  T
   5   -356.1245719 -0.618102E-06  0.116E-03    0.72       5.9  T
   6   -356.1245721 -0.178682E-06  0.454E-04    0.72      15.0  T
   7   -356.1245722 -0.327529E-07  0.185E-04    0.72      36.7  T
     SCC iter.                  ...        0 min,  0.256 sec
     gradient                   ...        0 min,  0.134 sec
 * total energy  :  -350.2331794 Eh     change       -0.8656768E-03 Eh
   gradient norm :     0.0088550 Eh/α   predicted    -0.6648441E-03 ( -23.20%)
   displ. norm   :     0.7375519 α      lambda       -0.1182192E-02
   maximum displ.:     0.3538863 α      in ANC's #18, #13, #12, ...

........................................................................
.............................. CYCLE   29 ..............................
........................................................................
   1   -356.1272784 -0.356127E+03  0.778E-02    0.73       0.0  T
   2   -356.1272902 -0.118575E-04  0.439E-02    0.72       1.0  T
   3   -356.1272368  0.534143E-04  0.137E-02    0.72       1.0  T
   4   -356.1272970 -0.602123E-04  0.292E-03    0.72       2.3  T
   5   -356.1272983 -0.132662E-05  0.161E-03    0.72       4.2  T
   6   -356.1272986 -0.291155E-06  0.606E-04    0.72      11.2  T
   7   -356.1272987 -0.515756E-07  0.233E-04    0.72      29.2  T
     SCC iter.                  ...        0 min,  0.256 sec
     gradient                   ...        0 min,  0.135 sec
 * total energy  :  -350.2340035 Eh     change       -0.8240918E-03 Eh
   gradient norm :     0.0075332 Eh/α   predicted    -0.9126423E-03 (  10.75%)
   displ. norm   :     0.7289156 α      lambda       -0.1336223E-02
   maximum displ.:     0.3483553 α      in ANC's #18, #13, #16, ...

........................................................................
.............................. CYCLE   30 ..............................
........................................................................
   1   -356.1293068 -0.356129E+03  0.852E-02    0.72       0.0  T
   2   -356.1293234 -0.166622E-04  0.478E-02    0.72       1.0  T
   3   -356.1292838  0.396096E-04  0.126E-02    0.72       1.0  T
   4   -356.1293307 -0.469191E-04  0.322E-03    0.72       2.1  T
   5   -356.1293324 -0.170105E-05  0.174E-03    0.72       3.9  T
   6   -356.1293328 -0.372730E-06  0.640E-04    0.72      10.6  T
   7   -356.1293329 -0.622232E-07  0.240E-04    0.72      28.3  T
     SCC iter.                  ...        0 min,  0.256 sec
     gradient                   ...        0 min,  0.134 sec
 * total energy  :  -350.2347775 Eh     change       -0.7740741E-03 Eh
   gradient norm :     0.0136318 Eh/α   predicted    -0.1023093E-02 (  32.17%)
   displ. norm   :     0.7150481 α      lambda       -0.1152408E-02
   maximum displ.:     0.3369995 α      in ANC's #18, #13, #12, ...

........................................................................
.............................. CYCLE   31 ..............................
........................................................................
   1   -356.1261266 -0.356126E+03  0.510E-02    0.72       0.0  T
   2   -356.1261324 -0.581627E-05  0.293E-02    0.72       1.0  T
   3   -356.1261180  0.143841E-04  0.809E-03    0.72       1.0  T
   4   -356.1261339 -0.158631E-04  0.226E-03    0.72       3.0  T
   5   -356.1261348 -0.944351E-06  0.116E-03    0.72       5.9  T
   6   -356.1261350 -0.176142E-06  0.569E-04    0.72      12.0  T
   7   -356.1261351 -0.434902E-07  0.259E-04    0.72      26.3  T
     SCC iter.                  ...        0 min,  0.256 sec
     gradient                   ...        0 min,  0.135 sec
 * total energy  :  -350.2357435 Eh     change       -0.9659775E-03 Eh
   gradient norm :     0.0096874 Eh/α   predicted    -0.8708153E-03 (  -9.85%)
   displ. norm   :     0.7080208 α      lambda       -0.1186271E-02
   maximum displ.:     0.3450789 α      in ANC's #18, #13, #16, ...

........................................................................
.............................. CYCLE   32 ..............................
........................................................................
   1   -356.1354451 -0.356135E+03  0.599E-02    0.72       0.0  T
   2   -356.1354528 -0.774863E-05  0.339E-02    0.72       1.0  T
   3   -356.1354401  0.127284E-04  0.813E-03    0.72       1.0  T
   4   -356.1354559 -0.157874E-04  0.211E-03    0.72       3.2  T
   5   -356.1354564 -0.475998E-06  0.115E-03    0.72       5.9  T
   6   -356.1354565 -0.125668E-06  0.553E-04    0.72      12.3  T
   7   -356.1354566 -0.536105E-07  0.230E-04    0.72      29.6  T
     SCC iter.                  ...        0 min,  0.257 sec
     gradient                   ...        0 min,  0.134 sec
 * total energy  :  -350.2366849 Eh     change       -0.9413886E-03 Eh
   gradient norm :     0.0125287 Eh/α   predicted    -0.8904720E-03 (  -5.41%)
   displ. norm   :     0.8601537 α      lambda       -0.1082700E-02
   maximum displ.:     0.4155841 α      in ANC's #18, #13, #16, ...

........................................................................
.............................. CYCLE   33 ..............................
........................................................................
   1   -356.1309455 -0.356131E+03  0.472E-02    0.72       0.0  T
   2   -356.1309483 -0.280462E-05  0.275E-02    0.72       1.0  T
   3   -356.1309336  0.146905E-04  0.768E-03    0.72       1.0  T
   4   -356.1309494 -0.157623E-04  0.185E-03    0.72       3.7  T
   5   -356.1309500 -0.561649E-06  0.997E-04    0.72       6.8  T
   6   -356.1309501 -0.153706E-06  0.439E-04    0.72      15.5  T
     SCC iter.                  ...        0 min,  0.220 sec
     gradient                   ...        0 min,  0.134 sec
 * total energy  :  -350.2377023 Eh     change       -0.1017426E-02 Eh
   gradient norm :     0.0069644 Eh/α   predicted    -0.9418835E-03 (  -7.42%)
   displ. norm   :     0.8686986 α      lambda       -0.1141016E-02
   maximum displ.:     0.4248665 α      in ANC's #18, #13, #16, ...

........................................................................
.............................. CYCLE   34 ..............................
........................................................................
   1   -356.1314426 -0.356131E+03  0.477E-02    0.72       0.0  T
   2   -356.1314453 -0.272001E-05  0.278E-02    0.72       1.0  T
   3   -356.1314334  0.119111E-04  0.720E-03    0.72       1.0  T
   4   -356.1314465 -0.131094E-04  0.172E-03    0.72       3.9  T
   5   -356.1314469 -0.365580E-06  0.953E-04    0.72       7.1  T
   6   -356.1314470 -0.115787E-06  0.454E-04    0.72      15.0  T
     SCC iter.                  ...        0 min,  0.221 sec
     gradient                   ...        0 min,  0.134 sec
 * total energy  :  -350.2387537 Eh     change       -0.1051328E-02 Eh
   gradient norm :     0.0053757 Eh/α   predicted    -0.1001015E-02 (  -4.79%)
   displ. norm   :     0.9157746 α      lambda       -0.1061368E-02
   maximum displ.:     0.4472702 α      in ANC's #18, #13, #16, ...

........................................................................
.............................. CYCLE   35 ..............................
........................................................................
   1   -356.1302948 -0.356130E+03  0.495E-02    0.72       0.0  T
   2   -356.1302975 -0.265207E-05  0.288E-02    0.72       1.0  T
   3   -356.1302876  0.984810E-05  0.632E-03    0.72       1.1  T
   4   -356.1302986 -0.109658E-04  0.172E-03    0.72       4.0  T
   5   -356.1302990 -0.383278E-06  0.934E-04    0.72       7.3  T
   6   -356.1302991 -0.824950E-07  0.451E-04    0.72      15.1  T
     SCC iter.                  ...        0 min,  0.221 sec
     gradient                   ...        0 min,  0.134 sec
 * total energy  :  -350.2397567 Eh     change       -0.1003038E-02 Eh
   gradient norm :     0.0055129 Eh/α   predicted    -0.9757393E-03 (  -2.72%)
   displ. norm   :     0.9022339 α      lambda       -0.9998773E-03
   maximum displ.:     0.4404511 α      in ANC's #18, #13, #16, ...

........................................................................
.............................. CYCLE   36 ..............................
........................................................................
   1   -356.1330491 -0.356133E+03  0.484E-02    0.72       0.0  T
   2   -356.1330516 -0.254433E-05  0.283E-02    0.72       1.0  T
   3   -356.1330400  0.116446E-04  0.671E-03    0.72       1.0  T
   4   -356.1330528 -0.128027E-04  0.173E-03    0.72       3.9  T
   5   -356.1330532 -0.452563E-06  0.856E-04    0.72       8.0  T
   6   -356.1330533 -0.535156E-07  0.444E-04    0.72      15.3  T
     SCC iter.                  ...        0 min,  0.224 sec
     gradient                   ...        0 min,  0.135 sec
 * total energy  :  -350.2406857 Eh     change       -0.9290184E-03 Eh
   gradient norm :     0.0044577 Eh/α   predicted    -0.9069054E-03 (  -2.38%)
   displ. norm   :     0.9028386 α      lambda       -0.9026246E-03
   maximum displ.:     0.4353172 α      in ANC's #18, #13, #16, ...

........................................................................
.............................. CYCLE   37 ..............................
........................................................................
   1   -356.1317874 -0.356132E+03  0.473E-02    0.72       0.0  T
   2   -356.1317901 -0.265639E-05  0.276E-02    0.73       1.0  T
   3   -356.1317773  0.127795E-04  0.710E-03    0.73       1.0  T
   4   -356.1317912 -0.139260E-04  0.183E-03    0.73       3.7  T
   5   -356.1317918 -0.539707E-06  0.858E-04    0.73       7.9  T
   6   -356.1317918 -0.488985E-07  0.456E-04    0.73      14.9  T
     SCC iter.                  ...        0 min,  0.221 sec
     gradient                   ...        0 min,  0.135 sec
 * total energy  :  -350.2415064 Eh     change       -0.8207000E-03 Eh
   gradient norm :     0.0035739 Eh/α   predicted    -0.8191864E-03 (  -0.18%)
   displ. norm   :     0.8484932 α      lambda       -0.7945784E-03
   maximum displ.:     0.3975748 α      in ANC's #18, #13, #12, ...

........................................................................
.............................. CYCLE   38 ..............................
........................................................................
   1   -356.1383127 -0.356138E+03  0.493E-02    0.73       0.0  T
   2   -356.1383162 -0.348823E-05  0.288E-02    0.73       1.0  T
   3   -356.1382853  0.309044E-04  0.110E-02    0.73       1.0  T
   4   -356.1383186 -0.332700E-04  0.220E-03    0.73       3.1  T
   5   -356.1383194 -0.829197E-06  0.105E-03    0.73       6.5  T
   6   -356.1383195 -0.112854E-06  0.585E-04    0.73      11.6  T
   7   -356.1383196 -0.478935E-07  0.268E-04    0.73      25.4  T
     SCC iter.                  ...        0 min,  0.256 sec
     gradient                   ...        0 min,  0.134 sec
 * total energy  :  -350.2421775 Eh     change       -0.6710867E-03 Eh
   gradient norm :     0.0042736 Eh/α   predicted    -0.6833171E-03 (   1.82%)
   displ. norm   :     0.8131973 α      lambda       -0.6391851E-03
   maximum displ.:     0.3711100 α      in ANC's #18, #13, #12, ...

........................................................................
.............................. CYCLE   39 ..............................
........................................................................
   1   -356.1355330 -0.356136E+03  0.451E-02    0.73       0.0  T
   2   -356.1355368 -0.374500E-05  0.263E-02    0.74       1.0  T
   3   -356.1355181  0.186758E-04  0.893E-03    0.74       1.0  T
   4   -356.1355383 -0.201426E-04  0.217E-03    0.74       3.1  T
   5   -356.1355390 -0.780389E-06  0.957E-04    0.74       7.1  T
   6   -356.1355391 -0.685994E-07  0.517E-04    0.74      13.2  T
     SCC iter.                  ...        0 min,  0.220 sec
     gradient                   ...        0 min,  0.134 sec
 * total energy  :  -350.2426862 Eh     change       -0.5086539E-03 Eh
   gradient norm :     0.0048127 Eh/α   predicted    -0.5309371E-03 (   4.38%)
   displ. norm   :     0.7057008 α      lambda       -0.4907227E-03
   maximum displ.:     0.3358728 α      in ANC's #13, #18, #12, ...

........................................................................
.............................. CYCLE   40 ..............................
........................................................................
   1   -356.1345421 -0.356135E+03  0.419E-02    0.74       0.0  T
   2   -356.1345462 -0.411732E-05  0.244E-02    0.74       1.0  T
   3   -356.1345263  0.199270E-04  0.926E-03    0.74       1.0  T
   4   -356.1345477 -0.213872E-04  0.224E-03    0.74       3.0  T
   5   -356.1345485 -0.884922E-06  0.976E-04    0.74       7.0  T
   6   -356.1345486 -0.891047E-07  0.509E-04    0.74      13.4  T
     SCC iter.                  ...        0 min,  0.220 sec
     gradient                   ...        0 min,  0.134 sec
 * total energy  :  -350.2430478 Eh     change       -0.3615945E-03 Eh
   gradient norm :     0.0053914 Eh/α   predicted    -0.3675563E-03 (   1.65%)
   displ. norm   :     0.6294326 α      lambda       -0.4738616E-03
   maximum displ.:     0.3161283 α      in ANC's #13, #18, #12, ...

........................................................................
.............................. CYCLE   41 ..............................
........................................................................
   1   -356.1429149 -0.356143E+03  0.458E-02    0.74       0.0  T
   2   -356.1429199 -0.496014E-05  0.267E-02    0.75       1.0  T
   3   -356.1428887  0.311526E-04  0.117E-02    0.75       1.0  T
   4   -356.1429226 -0.338694E-04  0.237E-03    0.75       2.9  T
   5   -356.1429235 -0.929089E-06  0.109E-03    0.75       6.2  T
   6   -356.1429236 -0.128495E-06  0.523E-04    0.75      13.0  T
   7   -356.1429237 -0.235880E-07  0.253E-04    0.75      26.8  T
     SCC iter.                  ...        0 min,  0.257 sec
     gradient                   ...        0 min,  0.134 sec
 * total energy  :  -350.2433960 Eh     change       -0.3482540E-03 Eh
   gradient norm :     0.0052153 Eh/α   predicted    -0.3308040E-03 (  -5.01%)
   displ. norm   :     0.5917347 α      lambda       -0.4041854E-03
   maximum displ.:     0.3032350 α      in ANC's #13, #12, #7, ...

........................................................................
.............................. CYCLE   42 ..............................
........................................................................
   1   -356.1438395 -0.356144E+03  0.392E-02    0.75       0.0  T
   2   -356.1438418 -0.232713E-05  0.227E-02    0.75       1.0  T
   3   -356.1438236  0.181855E-04  0.853E-03    0.75       1.0  T
   4   -356.1438433 -0.196971E-04  0.175E-03    0.75       3.9  T
   5   -356.1438438 -0.493821E-06  0.890E-04    0.75       7.6  T
   6   -356.1438439 -0.808647E-07  0.400E-04    0.75      17.0  T
     SCC iter.                  ...        0 min,  0.220 sec
     gradient                   ...        0 min,  0.134 sec
 * total energy  :  -350.2437665 Eh     change       -0.3704893E-03 Eh
   gradient norm :     0.0051362 Eh/α   predicted    -0.2728618E-03 ( -26.35%)
   displ. norm   :     0.6847102 α      lambda       -0.6179349E-03
   maximum displ.:     0.3416913 α      in ANC's #13, #12, #7, ...
 * RMSD in coord.:     0.9389717 α      energy gain  -0.1545944E-01 Eh

generating ANC from model Hessian ...
Using Lindh-Hessian (1995)
 Shifting diagonal of input Hessian by   1.005089122674475E-002
 Lowest  eigenvalues of input Hessian
    0.010000    0.010038    0.010045    0.000000    0.000000    0.000000
    0.000000    0.000000    0.000000    0.010058    0.010064    0.010087
    0.010101    0.010116    0.010137    0.010148    0.010155    0.010188
 Highest eigenvalues
    2.269257    2.408294    2.599567    2.613997    2.644849    2.670606
 

........................................................................
.............................. CYCLE   43 ..............................
........................................................................
   1   -356.1435842 -0.356144E+03  0.478E-02    0.76       0.0  T
   2   -356.1435876 -0.346280E-05  0.276E-02    0.76       1.0  T
   3   -356.1435652  0.224350E-04  0.900E-03    0.76       1.0  T
   4   -356.1435891 -0.238737E-04  0.225E-03    0.76       3.0  T
   5   -356.1435901 -0.100975E-05  0.113E-03    0.76       6.0  T
   6   -356.1435902 -0.168540E-06  0.457E-04    0.76      14.9  T
   7   -356.1435903 -0.232196E-07  0.236E-04    0.76      28.9  T
     SCC iter.                  ...        0 min,  0.257 sec
     gradient                   ...        0 min,  0.135 sec
 * total energy  :  -350.2443123 Eh     change       -0.5457754E-03 Eh
   gradient norm :     0.0050307 Eh/α   predicted     0.0000000E+00 (-100.00%)
   displ. norm   :     0.0996577 α      lambda       -0.1591874E-03
   maximum displ.:     0.0428745 α      in ANC's #13, #8, #4, ...

........................................................................
.............................. CYCLE   44 ..............................
........................................................................
   1   -356.1417371 -0.356142E+03  0.157E-02    0.76       0.0  T
   2   -356.1417379 -0.730665E-06  0.895E-03    0.76       1.0  T
   3   -356.1417360  0.192222E-05  0.310E-03    0.76       2.2  T
   4   -356.1417381 -0.219598E-05  0.783E-04    0.76       8.7  T
   5   -356.1417382 -0.883725E-07  0.459E-04    0.76      14.8  T
   6   -356.1417383 -0.365595E-07  0.199E-04    0.76      34.2  T
     SCC iter.                  ...        0 min,  0.220 sec
     gradient                   ...        0 min,  0.134 sec
 * total energy  :  -350.2444474 Eh     change       -0.1351517E-03 Eh
   gradient norm :     0.0029635 Eh/α   predicted    -0.8147307E-04 ( -39.72%)
   displ. norm   :     0.4293252 α      lambda       -0.5481923E-03
   maximum displ.:     0.1802336 α      in ANC's #13, #4, #8, ...

........................................................................
.............................. CYCLE   45 ..............................
........................................................................
   1   -356.1341397 -0.356134E+03  0.487E-02    0.76       0.0  T
   2   -356.1341452 -0.551696E-05  0.282E-02    0.76       1.0  T
   3   -356.1341160  0.291933E-04  0.112E-02    0.76       1.0  T
   4   -356.1341478 -0.317951E-04  0.267E-03    0.76       2.5  T
   5   -356.1341491 -0.124275E-05  0.134E-03    0.76       5.1  T
   6   -356.1341493 -0.218179E-06  0.659E-04    0.76      10.3  T
   7   -356.1341493 -0.529871E-07  0.318E-04    0.76      21.4  T
     SCC iter.                  ...        0 min,  0.257 sec
     gradient                   ...        0 min,  0.134 sec
 * total energy  :  -350.2446933 Eh     change       -0.2458531E-03 Eh
   gradient norm :     0.0088241 Eh/α   predicted    -0.3246179E-03 (  32.04%)
   displ. norm   :     0.3196721 α      lambda       -0.4394194E-03
   maximum displ.:     0.1382570 α      in ANC's #13, #8, #4, ...

........................................................................
.............................. CYCLE   46 ..............................
........................................................................
   1   -356.1312274 -0.356131E+03  0.716E-02    0.76       0.0  T
   2   -356.1312395 -0.121843E-04  0.397E-02    0.76       1.0  T
   3   -356.1312358  0.373604E-05  0.600E-03    0.76       1.1  T
   4   -356.1312443 -0.853710E-05  0.185E-03    0.76       3.7  T
   5   -356.1312445 -0.209783E-06  0.105E-03    0.76       6.5  T
   6   -356.1312447 -0.176318E-06  0.433E-04    0.76      15.7  T
   7   -356.1312448 -0.381642E-07  0.184E-04    0.76      37.1  T
     SCC iter.                  ...        0 min,  0.256 sec
     gradient                   ...        0 min,  0.134 sec
 * total energy  :  -350.2448380 Eh     change       -0.1446789E-03 Eh
   gradient norm :     0.0097327 Eh/α   predicted    -0.2421677E-03 (  67.38%)
   displ. norm   :     0.2166100 α      lambda       -0.4424683E-03
   maximum displ.:     0.0946972 α      in ANC's #13, #4, #10, ...

........................................................................
.............................. CYCLE   47 ..............................
........................................................................
   1   -356.1353966 -0.356135E+03  0.486E-02    0.76       0.0  T
   2   -356.1354029 -0.633639E-05  0.271E-02    0.76       1.0  T
   3   -356.1353979  0.499835E-05  0.571E-03    0.76       1.2  T
   4   -356.1354054 -0.745687E-05  0.163E-03    0.76       4.2  T
   5   -356.1354056 -0.204323E-06  0.103E-03    0.76       6.6  T
   6   -356.1354058 -0.180825E-06  0.370E-04    0.76      18.4  T
   7   -356.1354058 -0.167704E-07  0.190E-04    0.76      35.8  T
     SCC iter.                  ...        0 min,  0.257 sec
     gradient                   ...        0 min,  0.134 sec
 * total energy  :  -350.2450449 Eh     change       -0.2069636E-03 Eh
   gradient norm :     0.0067993 Eh/α   predicted    -0.2316145E-03 (  11.91%)
   displ. norm   :     0.2387799 α      lambda       -0.3824282E-03
   maximum displ.:     0.1090663 α      in ANC's #13, #4, #8, ...

........................................................................
.............................. CYCLE   48 ..............................
........................................................................
   1   -356.1398486 -0.356140E+03  0.580E-02    0.76       0.0  T
   2   -356.1398566 -0.803817E-05  0.322E-02    0.76       1.0  T
   3   -356.1398521  0.452220E-05  0.530E-03    0.76       1.3  T
   4   -356.1398598 -0.770642E-05  0.154E-03    0.76       4.4  T
   5   -356.1398601 -0.233521E-06  0.983E-04    0.76       6.9  T
   6   -356.1398603 -0.188998E-06  0.317E-04    0.76      21.4  T
     SCC iter.                  ...        0 min,  0.221 sec
     gradient                   ...        0 min,  0.134 sec
 * total energy  :  -350.2451852 Eh     change       -0.1403087E-03 Eh
   gradient norm :     0.0067346 Eh/α   predicted    -0.2021232E-03 (  44.06%)
   displ. norm   :     0.3435581 α      lambda       -0.5702294E-03
   maximum displ.:     0.1551608 α      in ANC's #13, #4, #12, ...

........................................................................
.............................. CYCLE   49 ..............................
........................................................................
   1   -356.1426230 -0.356143E+03  0.715E-02    0.76       0.0  T
   2   -356.1426367 -0.136863E-04  0.398E-02    0.76       1.0  T
   3   -356.1426263  0.103417E-04  0.853E-03    0.76       1.0  T
   4   -356.1426428 -0.164396E-04  0.197E-03    0.76       3.5  T
   5   -356.1426429 -0.795048E-07  0.138E-03    0.76       4.9  T
   6   -356.1426432 -0.370654E-06  0.461E-04    0.76      14.8  T
   7   -356.1426433 -0.308009E-07  0.233E-04    0.76      29.3  T
     SCC iter.                  ...        0 min,  0.256 sec
     gradient                   ...        0 min,  0.134 sec
 * total energy  :  -350.2454569 Eh     change       -0.2716956E-03 Eh
   gradient norm :     0.0076251 Eh/α   predicted    -0.3187705E-03 (  17.33%)
   displ. norm   :     0.4032841 α      lambda       -0.3315913E-03
   maximum displ.:     0.1883685 α      in ANC's #13, #4, #8, ...

........................................................................
.............................. CYCLE   50 ..............................
........................................................................
   1   -356.1398064 -0.356140E+03  0.322E-02    0.76       0.0  T
   2   -356.1398083 -0.190717E-05  0.184E-02    0.76       1.0  T
   3   -356.1398039  0.443199E-05  0.441E-03    0.76       1.5  T
   4   -356.1398089 -0.503170E-05  0.135E-03    0.76       5.0  T
   5   -356.1398092 -0.257770E-06  0.747E-04    0.76       9.1  T
   6   -356.1398092 -0.786143E-07  0.323E-04    0.76      21.1  T
     SCC iter.                  ...        0 min,  0.221 sec
     gradient                   ...        0 min,  0.134 sec
 * total energy  :  -350.2457339 Eh     change       -0.2769271E-03 Eh
   gradient norm :     0.0047996 Eh/α   predicted    -0.1927607E-03 ( -30.39%)
   displ. norm   :     0.5986493 α      lambda       -0.4398643E-03
   maximum displ.:     0.2853857 α      in ANC's #13, #4, #12, ...

........................................................................
.............................. CYCLE   51 ..............................
........................................................................
   1   -356.1387274 -0.356139E+03  0.389E-02    0.76       0.0  T
   2   -356.1387296 -0.217109E-05  0.225E-02    0.76       1.0  T
   3   -356.1387065  0.230801E-04  0.920E-03    0.76       1.0  T
   4   -356.1387314 -0.248762E-04  0.176E-03    0.76       3.9  T
   5   -356.1387319 -0.545330E-06  0.916E-04    0.76       7.4  T
   6   -356.1387320 -0.968709E-07  0.432E-04    0.76      15.8  T
     SCC iter.                  ...        0 min,  0.221 sec
     gradient                   ...        0 min,  0.134 sec
 * total energy  :  -350.2460986 Eh     change       -0.3647535E-03 Eh
   gradient norm :     0.0056175 Eh/α   predicted    -0.2987522E-03 ( -18.09%)
   displ. norm   :     0.6944884 α      lambda       -0.4620822E-03
   maximum displ.:     0.3320694 α      in ANC's #13, #4, #12, ...

........................................................................
.............................. CYCLE   52 ..............................
........................................................................
   1   -356.1381434 -0.356138E+03  0.451E-02    0.76       0.0  T
   2   -356.1381470 -0.358452E-05  0.260E-02    0.77       1.0  T
   3   -356.1381238  0.231824E-04  0.990E-03    0.77       1.0  T
   4   -356.1381493 -0.255465E-04  0.192E-03    0.77       3.5  T
   5   -356.1381498 -0.499412E-06  0.107E-03    0.77       6.3  T
   6   -356.1381500 -0.129672E-06  0.510E-04    0.77      13.4  T
   7   -356.1381500 -0.427075E-07  0.217E-04    0.77      31.4  T
     SCC iter.                  ...        0 min,  0.257 sec
     gradient                   ...        0 min,  0.134 sec
 * total energy  :  -350.2464899 Eh     change       -0.3913069E-03 Eh
   gradient norm :     0.0077991 Eh/α   predicted    -0.3424819E-03 ( -12.48%)
   displ. norm   :     0.7359644 α      lambda       -0.5520311E-03
   maximum displ.:     0.3516847 α      in ANC's #13, #4, #9, ...

........................................................................
.............................. CYCLE   53 ..............................
........................................................................
   1   -356.1394558 -0.356139E+03  0.443E-02    0.77       0.0  T
   2   -356.1394592 -0.338609E-05  0.258E-02    0.77       1.0  T
   3   -356.1394268  0.323737E-04  0.117E-02    0.77       1.0  T
   4   -356.1394622 -0.354132E-04  0.201E-03    0.78       3.4  T
   5   -356.1394628 -0.582552E-06  0.110E-03    0.77       6.2  T
   6   -356.1394630 -0.145824E-06  0.515E-04    0.77      13.2  T
   7   -356.1394630 -0.415171E-07  0.236E-04    0.77      28.9  T
     SCC iter.                  ...        0 min,  0.257 sec
     gradient                   ...        0 min,  0.134 sec
 * total energy  :  -350.2469770 Eh     change       -0.4870397E-03 Eh
   gradient norm :     0.0062914 Eh/α   predicted    -0.4255209E-03 ( -12.63%)
   displ. norm   :     0.7707880 α      lambda       -0.6057783E-03
   maximum displ.:     0.3667463 α      in ANC's #13, #4, #9, ...

........................................................................
.............................. CYCLE   54 ..............................
........................................................................
   1   -356.1409631 -0.356141E+03  0.495E-02    0.77       0.0  T
   2   -356.1409678 -0.470109E-05  0.286E-02    0.78       1.0  T
   3   -356.1409390  0.288005E-04  0.114E-02    0.78       1.0  T
   4   -356.1409713 -0.323060E-04  0.203E-03    0.78       3.4  T
   5   -356.1409717 -0.381721E-06  0.116E-03    0.78       5.8  T
   6   -356.1409718 -0.152954E-06  0.513E-04    0.78      13.3  T
   7   -356.1409719 -0.350747E-07  0.226E-04    0.78      30.1  T
     SCC iter.                  ...        0 min,  0.257 sec
     gradient                   ...        0 min,  0.134 sec
 * total energy  :  -350.2475318 Eh     change       -0.5547931E-03 Eh
   gradient norm :     0.0054004 Eh/α   predicted    -0.4828447E-03 ( -12.97%)
   displ. norm   :     0.8279596 α      lambda       -0.6441442E-03
   maximum displ.:     0.3938896 α      in ANC's #13, #4, #9, ...

........................................................................
.............................. CYCLE   55 ..............................
........................................................................
   1   -356.1414578 -0.356141E+03  0.536E-02    0.78       0.0  T
   2   -356.1414627 -0.494115E-05  0.309E-02    0.79       1.0  T
   3   -356.1414312  0.315503E-04  0.114E-02    0.78       1.0  T
   4   -356.1414663 -0.350848E-04  0.220E-03    0.79       3.1  T
   5   -356.1414667 -0.458214E-06  0.131E-03    0.79       5.2  T
   6   -356.1414670 -0.264559E-06  0.625E-04    0.79      10.9  T
   7   -356.1414671 -0.718082E-07  0.256E-04    0.79      26.5  T
     SCC iter.                  ...        0 min,  0.256 sec
     gradient                   ...        0 min,  0.134 sec
 * total energy  :  -350.2481172 Eh     change       -0.5854435E-03 Eh
   gradient norm :     0.0051427 Eh/α   predicted    -0.5428608E-03 (  -7.27%)
   displ. norm   :     0.8300844 α      lambda       -0.6392365E-03
   maximum displ.:     0.3858197 α      in ANC's #13, #4, #9, ...

........................................................................
.............................. CYCLE   56 ..............................
........................................................................
   1   -356.1452189 -0.356145E+03  0.546E-02    0.79       0.0  T
   2   -356.1452241 -0.522977E-05  0.315E-02    0.80       1.0  T
   3   -356.1451867  0.374800E-04  0.122E-02    0.79       1.0  T
   4   -356.1452279 -0.412755E-04  0.239E-03    0.80       2.9  T
   5   -356.1452285 -0.598834E-06  0.139E-03    0.80       4.9  T
   6   -356.1452289 -0.317433E-06  0.681E-04    0.80      10.0  T
   7   -356.1452289 -0.876556E-07  0.277E-04    0.80      24.6  T
     SCC iter.                  ...        0 min,  0.258 sec
     gradient                   ...        0 min,  0.134 sec
 * total energy  :  -350.2486506 Eh     change       -0.5334319E-03 Eh
   gradient norm :     0.0060850 Eh/α   predicted    -0.5398488E-03 (   1.20%)
   displ. norm   :     0.8699438 α      lambda       -0.6331652E-03
   maximum displ.:     0.4187432 α      in ANC's #13, #4, #9, ...

........................................................................
.............................. CYCLE   57 ..............................
........................................................................
   1   -356.1372068 -0.356137E+03  0.499E-02    0.80       0.0  T
   2   -356.1372121 -0.529663E-05  0.289E-02    0.80       1.0  T
   3   -356.1371952  0.169412E-04  0.882E-03    0.80       1.0  T
   4   -356.1372135 -0.183376E-04  0.240E-03    0.80       2.8  T
   5   -356.1372145 -0.935291E-06  0.102E-03    0.80       6.7  T
   6   -356.1372145 -0.717483E-07  0.553E-04    0.80      12.3  T
   7   -356.1372146 -0.428236E-07  0.229E-04    0.80      29.7  T
     SCC iter.                  ...        0 min,  0.257 sec
     gradient                   ...        0 min,  0.134 sec
 * total energy  :  -350.2491764 Eh     change       -0.5258087E-03 Eh
   gradient norm :     0.0070958 Eh/α   predicted    -0.5561719E-03 (   5.77%)
   displ. norm   :     0.7876258 α      lambda       -0.5339526E-03
   maximum displ.:     0.3772902 α      in ANC's #13, #4, #9, ...

........................................................................
.............................. CYCLE   58 ..............................
........................................................................
   1   -356.1359602 -0.356136E+03  0.434E-02    0.80       0.0  T
   2   -356.1359622 -0.195475E-05  0.253E-02    0.81       1.0  T
   3   -356.1359430  0.191398E-04  0.880E-03    0.80       1.0  T
   4   -356.1359637 -0.206476E-04  0.178E-03    0.81       3.8  T
   5   -356.1359641 -0.442470E-06  0.895E-04    0.81       7.6  T
   6   -356.1359642 -0.799641E-07  0.434E-04    0.81      15.7  T
     SCC iter.                  ...        0 min,  0.221 sec
     gradient                   ...        0 min,  0.133 sec
 * total energy  :  -350.2496764 Eh     change       -0.4999737E-03 Eh
   gradient norm :     0.0068266 Eh/α   predicted    -0.4326007E-03 ( -13.48%)
   displ. norm   :     0.7565844 α      lambda       -0.6612607E-03
   maximum displ.:     0.3574187 α      in ANC's #13, #4, #9, ...

........................................................................
.............................. CYCLE   59 ..............................
........................................................................
   1   -356.1431589 -0.356143E+03  0.460E-02    0.81       0.0  T
   2   -356.1431623 -0.339811E-05  0.268E-02    0.81       1.0  T
   3   -356.1431199  0.423930E-04  0.118E-02    0.81       1.0  T
   4   -356.1431643 -0.443495E-04  0.272E-03    0.81       2.5  T
   5   -356.1431661 -0.187729E-05  0.104E-03    0.81       6.6  T
   6   -356.1431663 -0.118321E-06  0.486E-04    0.81      14.0  T
   7   -356.1431663 -0.232439E-07  0.228E-04    0.81      29.8  T
     SCC iter.                  ...        0 min,  0.258 sec
     gradient                   ...        0 min,  0.134 sec
 * total energy  :  -350.2502273 Eh     change       -0.5508431E-03 Eh
   gradient norm :     0.0050598 Eh/α   predicted    -0.5198913E-03 (  -5.62%)
   displ. norm   :     0.8890601 α      lambda       -0.5862433E-03
   maximum displ.:     0.4328814 α      in ANC's #13, #4, #9, ...

........................................................................
.............................. CYCLE   60 ..............................
........................................................................
   1   -356.1378776 -0.356138E+03  0.498E-02    0.81       0.0  T
   2   -356.1378802 -0.265994E-05  0.291E-02    0.81       1.0  T
   3   -356.1378286  0.516922E-04  0.135E-02    0.81       1.0  T
   4   -356.1378837 -0.551409E-04  0.240E-03    0.81       2.8  T
   5   -356.1378849 -0.121784E-05  0.108E-03    0.81       6.3  T
   6   -356.1378850 -0.120021E-06  0.534E-04    0.81      12.7  T
   7   -356.1378851 -0.429080E-07  0.230E-04    0.81      29.6  T
     SCC iter.                  ...        0 min,  0.258 sec
     gradient                   ...        0 min,  0.134 sec
 * total energy  :  -350.2507680 Eh     change       -0.5407103E-03 Eh
   gradient norm :     0.0054097 Eh/α   predicted    -0.5248148E-03 (  -2.94%)
   displ. norm   :     0.8547191 α      lambda       -0.5827449E-03
   maximum displ.:     0.4151082 α      in ANC's #13, #4, #9, ...

........................................................................
.............................. CYCLE   61 ..............................
........................................................................
   1   -356.1397285 -0.356140E+03  0.521E-02    0.81       0.0  T
   2   -356.1397324 -0.394503E-05  0.302E-02    0.81       1.0  T
[...]
   182   1 H    0.997 --    77 C    0.985
   183   1 H    0.998 --    82 C    0.967
   184   1 H    0.998 --    83 C    0.969
   185   1 H    0.997 --    85 C    0.979
   186   1 H    0.997 --    85 C    0.981
   187   1 H    0.996 --    85 C    0.967
   188   1 H    0.999 --    86 C    0.969
   189   1 H    0.999 --    87 C    0.968
   190   1 H    0.999 --    89 C    0.968
   191   1 H    0.998 --    90 C    0.969
   192   1 H    0.998 --    92 C    0.984
   193   1 H    0.996 --    92 C    0.964
   194   1 H    0.997 --    92 C    0.980
   195   1 H    0.998 --    93 C    0.969
   196   1 H    0.998 --    94 C    0.968
   197   1 H    0.998 --   101 C    0.968
   198   1 H    0.998 --   102 C    0.969
   199   1 H    0.997 --   104 C    0.983
   200   1 H    0.997 --   104 C    0.980
   201   1 H    0.995 --   104 C    0.965
   202   1 H    0.998 --   105 C    0.968
   203   1 H    0.999 --   106 C    0.968
   204   1 H    0.998 --   108 C    0.968
   205   1 H    0.998 --   109 C    0.969
   206   1 H    0.996 --   111 C    0.968
   207   1 H    0.997 --   111 C    0.977
   208   1 H    0.998 --   111 C    0.985
   209   1 H    0.998 --   112 C    0.968
   210   1 H    0.999 --   113 C    0.968
   211   1 H    0.995 --   116 C    0.946
   212   1 H    0.998 --   127 C    0.968
   213   1 H    0.997 --   128 C    0.969
   214   1 H    0.997 --   129 C    0.970
   215   1 H    0.997 --   130 C    0.969
   216   1 H    0.998 --   131 C    0.969
 ---------------------------------------------------------------------------

Topologies differ in bond orders
Writing corrected topology to xtbtopo.mol

molecular dipole:
                 x           y           z       tot (Debye)
 q only:        1.190      -3.054       1.107
   full:        1.382      -3.252       1.542       9.799
molecular quadrupole (traceless):
                xx          xy          yy          xz          yz          zz
 q only:     -158.338      92.773      64.036     -23.698      21.232      94.302
  q+dip:     -193.298     107.294      75.764     -21.514      26.236     117.534
   full:     -193.874     107.413      76.980     -21.354      25.193     116.894

           -------------------------------------------------
          |                Geometry Summary                 |
           -------------------------------------------------

      molecular mass/u    :     1825.2655275
   center of mass at/Å    :       -0.2447634       0.3267351      -0.0115316
  moments of inertia/u·Å² :        0.2481340E+05   0.1307629E+06   0.1313641E+06
rotational constants/cm⁻¹ :        0.6793763E-03   0.1289176E-03   0.1283276E-03

 * 208 selected distances

     #   Z          #   Z                                           value/Å
     1   6 C        2   6 C                                       1.3759004
     3   6 C        4   8 O                                       1.2196181
     5   6 C        6   6 C                                       1.3918804
     6   6 C        7   6 C                                       1.3745286
     7   6 C        8   6 C                                       1.4002943
     8   6 C        9   6 C                                       1.3752464
     5   6 C       10   6 C                                       1.4089937
     9   6 C       10   6 C                                       1.3968841
    11   6 C       12   6 C                                       1.3749644
    13   6 C       14   7 N                                       1.1503737
    15   6 C       16   7 N                                       1.1492175
     8   6 C       17   6 C                                       1.5083951
    17   6 C       18   6 C                                       1.5486783
    19   6 C       20   6 C                                       1.3262975
    18   6 C       22   6 C                                       1.5370465
    21   6 C       22   6 C                                       1.5369730
     7   6 C       23   6 C                                       1.5085023
    17   6 C       23   6 C                                       1.5612432
    21   6 C       23   6 C                                       1.5488912
     1   6 C       24   6 C                                       1.3938232
    24   6 C       25   6 C                                       1.4174698
    25   6 C       26   7 N                                       1.3705122
    26   7 N       27   6 C                                       1.4082361
    27   6 C       28   6 C                                       1.3916032
    28   6 C       29   6 C                                       1.3803632
    29   6 C       30   6 C                                       1.3891685
    30   6 C       32   6 C                                       1.3906931
    27   6 C       33   6 C                                       1.3914763
    32   6 C       33   6 C                                       1.3800773
    26   7 N       34   6 C                                       1.4059003
    34   6 C       35   6 C                                       1.3931218
    35   6 C       36   6 C                                       1.3802823
    36   6 C       37   6 C                                       1.3901972
    37   6 C       39   6 C                                       1.3898315
    34   6 C       40   6 C                                       1.3928851
    39   6 C       40   6 C                                       1.3803923
    25   6 C       41   6 C                                       1.4055000
    41   6 C       42  16 S                                       1.7347298
    42  16 S       43   6 C                                       1.7463652
    43   6 C       44   6 C                                       1.3873165
    44   6 C       45   7 N                                       1.3790568
    45   7 N       46   6 C                                       1.4035513
    46   6 C       47   6 C                                       1.3919752
    47   6 C       48   6 C                                       1.3800187
    48   6 C       49   6 C                                       1.3892018
    49   6 C       51   6 C                                       1.3893222
    46   6 C       52   6 C                                       1.3912187
    51   6 C       52   6 C                                       1.3802449
    45   7 N       53   6 C                                       1.4034583
    53   6 C       54   6 C                                       1.3940214
    54   6 C       55   6 C                                       1.3799368
    55   6 C       56   6 C                                       1.3902403
    56   6 C       58   6 C                                       1.3896600
    53   6 C       59   6 C                                       1.3921106
    58   6 C       59   6 C                                       1.3811211
    41   6 C       60   6 C                                       1.3896420
    44   6 C       60   6 C                                       1.4181338
    60   6 C       61  16 S                                       1.7276952
    62   6 C       63   6 C                                       1.3818957
    63   6 C       65   6 C                                       1.3967639
    65   6 C       67   6 C                                       1.3815919
    67   6 C       68   6 C                                       1.4201917
    68   6 C       69   7 N                                       1.3414528
    69   7 N       70   6 C                                       1.3106325
    71   6 C       72   6 C                                       1.5309236
    70   6 C       73   6 C                                       1.4220933
    73   6 C       74   7 N                                       1.3105093
    62   6 C       75   6 C                                       1.4205475
    68   6 C       75   6 C                                       1.4151399
    74   7 N       75   6 C                                       1.3410236
    76   6 C       77   6 C                                       1.5308770
    78   6 C       79   6 C                                       1.3867955
    79   6 C       80   7 N                                       1.3781360
    80   7 N       81   6 C                                       1.4040781
    81   6 C       82   6 C                                       1.3918646
    82   6 C       83   6 C                                       1.3810064
    83   6 C       84   6 C                                       1.3897701
    84   6 C       86   6 C                                       1.3901779
    81   6 C       87   6 C                                       1.3936560
    86   6 C       87   6 C                                       1.3801566
    80   7 N       88   6 C                                       1.4045662
    88   6 C       89   6 C                                       1.3918499
    89   6 C       90   6 C                                       1.3792012
    90   6 C       91   6 C                                       1.3904769
    91   6 C       93   6 C                                       1.3877577
    88   6 C       94   6 C                                       1.3912488
    93   6 C       94   6 C                                       1.3812627
    79   6 C       95   6 C                                       1.4184953
    95   6 C       96  16 S                                       1.7252797
    97   6 C       98   6 C                                       1.4125064
    98   6 C       99   7 N                                       1.3756147
    99   7 N      100   6 C                                       1.4049682
   100   6 C      101   6 C                                       1.3928789
   101   6 C      102   6 C                                       1.3806246
   102   6 C      103   6 C                                       1.3902822
   103   6 C      105   6 C                                       1.3903232
   100   6 C      106   6 C                                       1.3930099
   105   6 C      106   6 C                                       1.3802268
    99   7 N      107   6 C                                       1.4062556
   107   6 C      108   6 C                                       1.3920635
   108   6 C      109   6 C                                       1.3797626
   109   6 C      110   6 C                                       1.3909886
   110   6 C      112   6 C                                       1.3886528
   107   6 C      113   6 C                                       1.3918733
   112   6 C      113   6 C                                       1.3806879
    95   6 C      114   6 C                                       1.3899986
    98   6 C      114   6 C                                       1.4056232
    78   6 C      115  16 S                                       1.7473945 (max)
   114   6 C      115  16 S                                       1.7336309
    97   6 C      116   6 C                                       1.3985209
   116   6 C      117   6 C                                       1.3675517
   118  16 S      119   6 C                                       1.7426217
   119   6 C      120   6 C                                       1.3734429
   121   6 C      122   7 N                                       1.1476788
   123   6 C      124   7 N                                       1.1489644
   119   6 C      125   7 N                                       1.3590195
   125   7 N      126   6 C                                       1.4259239
   126   6 C      127   6 C                                       1.3853342
   127   6 C      128   6 C                                       1.3834555
   128   6 C      129   6 C                                       1.3842318
   129   6 C      130   6 C                                       1.3845480
   126   6 C      131   6 C                                       1.3871245
   130   6 C      131   6 C                                       1.3822215
   125   7 N      132   6 C                                       1.3931668
   132   6 C      133   8 O                                       1.2165121
     1   6 C      134   1 H                                       1.0824731
     6   6 C      135   1 H                                       1.0789592
     9   6 C      136   1 H                                       1.0771681
    17   6 C      137   1 H                                       1.0883077
    18   6 C      138   1 H                                       1.0867242
    19   6 C      139   1 H                                       1.0742853 (min)
    20   6 C      140   1 H                                       1.0743589
    21   6 C      141   1 H                                       1.0870425
    22   6 C      142   1 H                                       1.0890600
    22   6 C      143   1 H                                       1.0892369
    23   6 C      144   1 H                                       1.0885252
    28   6 C      145   1 H                                       1.0799475
    29   6 C      146   1 H                                       1.0798544
    31   6 C      147   1 H                                       1.0878613
    31   6 C      148   1 H                                       1.0870774
    31   6 C      149   1 H                                       1.0905254
    32   6 C      150   1 H                                       1.0804709
    33   6 C      151   1 H                                       1.0799211
    35   6 C      152   1 H                                       1.0802076
    36   6 C      153   1 H                                       1.0806732
    38   6 C      154   1 H                                       1.0872115
    38   6 C      155   1 H                                       1.0902731
    38   6 C      156   1 H                                       1.0883424
    39   6 C      157   1 H                                       1.0794613
    40   6 C      158   1 H                                       1.0784294
    47   6 C      159   1 H                                       1.0798837
    48   6 C      160   1 H                                       1.0804202
    50   6 C      161   1 H                                       1.0905542
    50   6 C      162   1 H                                       1.0880527
    50   6 C      163   1 H                                       1.0875213
    51   6 C      164   1 H                                       1.0805952
    52   6 C      165   1 H                                       1.0803702
    54   6 C      166   1 H                                       1.0803614
    55   6 C      167   1 H                                       1.0810765
    57   6 C      168   1 H                                       1.0871953
    57   6 C      169   1 H                                       1.0905168
    57   6 C      170   1 H                                       1.0878806
    58   6 C      171   1 H                                       1.0803028
    59   6 C      172   1 H                                       1.0796753
    71   6 C      173   1 H                                       1.0896559
    71   6 C      174   1 H                                       1.0908566
    72   6 C      175   1 H                                       1.0871451
    72   6 C      176   1 H                                       1.0871481
    72   6 C      177   1 H                                       1.0882011
    76   6 C      178   1 H                                       1.0908901
    76   6 C      179   1 H                                       1.0897820
    77   6 C      180   1 H                                       1.0882205
    77   6 C      181   1 H                                       1.0871119
    77   6 C      182   1 H                                       1.0871321
    82   6 C      183   1 H                                       1.0796632
    83   6 C      184   1 H                                       1.0802279
    85   6 C      185   1 H                                       1.0878545
    85   6 C      186   1 H                                       1.0872929
    85   6 C      187   1 H                                       1.0905417
    86   6 C      188   1 H                                       1.0811183
    87   6 C      189   1 H                                       1.0804046
    89   6 C      190   1 H                                       1.0804220
    90   6 C      191   1 H                                       1.0804780
    92   6 C      192   1 H                                       1.0875093
    92   6 C      193   1 H                                       1.0907174
    92   6 C      194   1 H                                       1.0882250
    93   6 C      195   1 H                                       1.0804140
    94   6 C      196   1 H                                       1.0800227
   101   6 C      197   1 H                                       1.0801155
   102   6 C      198   1 H                                       1.0801030
   104   6 C      199   1 H                                       1.0872920
   104   6 C      200   1 H                                       1.0876019
   104   6 C      201   1 H                                       1.0905638
   105   6 C      202   1 H                                       1.0803426
   106   6 C      203   1 H                                       1.0799664
   108   6 C      204   1 H                                       1.0799390
   109   6 C      205   1 H                                       1.0804536
   111   6 C      206   1 H                                       1.0901910
   111   6 C      207   1 H                                       1.0883550
   111   6 C      208   1 H                                       1.0869416
   112   6 C      209   1 H                                       1.0799302
   113   6 C      210   1 H                                       1.0800830
   116   6 C      211   1 H                                       1.0837550
   127   6 C      212   1 H                                       1.0794507
   128   6 C      213   1 H                                       1.0795250
   129   6 C      214   1 H                                       1.0792808
   130   6 C      215   1 H                                       1.0790134
   131   6 C      216   1 H                                       1.0803236

 * 5 distinct bonds (by element types)

   Z      Z             #   av. dist./Å        max./Å        min./Å
   1 H    6 C          83     1.0840369     1.0908901     1.0742853
   6 C    6 C          93     1.4037145     1.5612432     1.3262975
   6 C    7 N          23     1.3400998     1.4259239     1.1476788
   6 C    8 O           2     1.2180651     1.2196181     1.2165121
   6 C   16 S           7     1.7368167     1.7473945     1.7252797


optimized geometry written to: xtbopt.mol


           -------------------------------------------------
          | TOTAL ENERGY             -350.280375672151 Eh   |
          | GRADIENT NORM               0.000455960251 Eh/α |
          | HOMO-LUMO GAP               0.788471265664 eV   |
           -------------------------------------------------

------------------------------------------------------------------------
 * finished run on 2022/02/17 at 20:04:40.956     
------------------------------------------------------------------------
 total:
 * wall-time:     0 d,  0 h,  2 min, 33.811 sec
 *  cpu-time:     0 d,  0 h, 20 min, 30.347 sec
 * ratio c/w:     7.999 speedup
 SCF:
 * wall-time:     0 d,  0 h,  0 min,  0.710 sec
 *  cpu-time:     0 d,  0 h,  0 min,  5.665 sec
 * ratio c/w:     7.976 speedup
 ANC optimizer:
 * wall-time:     0 d,  0 h,  2 min, 33.001 sec
 *  cpu-time:     0 d,  0 h, 20 min, 23.992 sec
 * ratio c/w:     8.000 speedup

