      -----------------------------------------------------------      
     |                   =====================                   |     
     |                           x T B                           |     
     |                   =====================                   |     
     |                         S. Grimme                         |     
     |          Mulliken Center for Theoretical Chemistry        |     
     |                    University of Bonn                     |     
      -----------------------------------------------------------      

   * xtb version 6.4.1 (unknown) compiled by 'oda6@login1.crc.pitt.edu' on 2021-06-25

   xtb is free software: you can redistribute it and/or modify it under
   the terms of the GNU Lesser General Public License as published by
   the Free Software Foundation, either version 3 of the License, or
   (at your option) any later version.
   
   xtb is distributed in the hope that it will be useful,
   but WITHOUT ANY WARRANTY; without even the implied warranty of
   MERCHANTABILITY or FITNESS FOR A PARTICULAR PURPOSE.  See the
   GNU Lesser General Public License for more details.
   
   Cite this work as:
   * C. Bannwarth, E. Caldeweyher, S. Ehlert, A. Hansen, P. Pracht,
     J. Seibert, S. Spicher, S. Grimme, WIREs Comput. Mol. Sci., 2020, 11,
     e01493. DOI: 10.1002/wcms.1493
   
   for GFN2-xTB:
   * C. Bannwarth, S. Ehlert and S. Grimme., J. Chem. Theory Comput., 2019,
     15, 1652-1671. DOI: 10.1021/acs.jctc.8b01176
   for GFN1-xTB:
   * S. Grimme, C. Bannwarth, P. Shushkov, J. Chem. Theory Comput., 2017,
     13, 1989-2009. DOI: 10.1021/acs.jctc.7b00118
   for GFN0-xTB:
   * P. Pracht, E. Caldeweyher, S. Ehlert, S. Grimme, ChemRxiv, 2019, preprint.
     DOI: 10.26434/chemrxiv.8326202.v1
   for GFN-FF:
   * S. Spicher and S. Grimme, Angew. Chem. Int. Ed., 2020, 59, 15665-15673.
     DOI: 10.1002/anie.202004239
   
   for DFT-D4:
   * E. Caldeweyher, C. Bannwarth and S. Grimme, J. Chem. Phys., 2017,
     147, 034112. DOI: 10.1063/1.4993215
   * E. Caldeweyher, S. Ehlert, A. Hansen, H. Neugebauer, S. Spicher,
     C. Bannwarth and S. Grimme, J. Chem. Phys., 2019, 150, 154122.
     DOI: 10.1063/1.5090222
   * E. Caldeweyher, J.-M. Mewes, S. Ehlert and S. Grimme, Phys. Chem. Chem. Phys.
     2020, 22, 8499-8512. DOI: 10.1039/D0CP00502A
   
   for sTDA-xTB:
   * S. Grimme and C. Bannwarth, J. Chem. Phys., 2016, 145, 054103.
     DOI: 10.1063/1.4959605
   
   in the mass-spec context:
   * V. Asgeirsson, C. Bauer and S. Grimme, Chem. Sci., 2017, 8, 4879.
     DOI: 10.1039/c7sc00601b
   * J. Koopman and S. Grimme, ACS Omega 2019, 4, 12, 15120-15133.
     DOI: 10.1021/acsomega.9b02011
   
   for metadynamics refer to:
   * S. Grimme, J. Chem. Theory Comput., 2019, 155, 2847-2862
     DOI: 10.1021/acs.jctc.9b00143
   
   for SPH calculations refer to:
   * S. Spicher and S. Grimme, J. Chem. Theory Comput., 2021, 17, 1701-1714
     DOI: 10.1021/acs.jctc.0c01306
   
   with help from (in alphabetical order)
   P. Atkinson, C. Bannwarth, F. Bohle, G. Brandenburg, E. Caldeweyher
   M. Checinski, S. Dohm, S. Ehlert, S. Ehrlich, I. Gerasimov, J. Koopman
   C. Lavigne, S. Lehtola, F. März, M. Müller, F. Musil, H. Neugebauer
   J. Pisarek, C. Plett, P. Pracht, J. Seibert, P. Shushkov, S. Spicher
   M. Stahn, M. Steiner, T. Strunk, J. Stückrath, T. Rose, and J. Unsleber
   
 * started run on 2022/02/09 at 09:47:12.212     

           -------------------------------------------------
          |                Calculation Setup                |
           -------------------------------------------------

          program call               : /ihome/ghutchison/oda6/xtb/xtb-641/bin/xtb ../../FF_optimized/39_26_130_127_39.mol -opt
          hostname                   : smp-n26
          coordinate file            : ../../FF_optimized/39_26_130_127_39.mol
          omp threads                :                     8
          number of atoms            :                   175
          number of electrons        :                   560
          charge                     :                     0
          spin                       :                   0.0
          first test random number   :      0.41431386220114

   ID    Z sym.   atoms
    1    6 C      1-3, 5-13, 15, 17-25, 27, 29-31, 35, 36, 38-41, 43-49,
                  51-54, 56, 57, 59-62, 64-70, 72-75, 77, 78, 80, 82, 83,
                  85-88, 90-95, 97-105, 107, 109-115
    2    8 O      4, 33, 96
    3    7 N      14, 16, 32, 34, 37, 58, 84, 89, 106, 108
    4    9 F      26, 28, 79, 81
    5   16 S      42, 50, 55, 63, 71, 76
    6    1 H      116-175
########################################################################
[WARNING] Please study the warnings concerning your input carefully
-1- prog_main_parseArguments: the use of '-opt' is discouraged, please use '--opt' next time
########################################################################

           -------------------------------------------------
          |                 G F N 2 - x T B                 |
           -------------------------------------------------

        Reference                      10.1021/acs.jctc.8b01176
      * Hamiltonian:
        H0-scaling (s, p, d)           1.850000    2.230000    2.230000
        zeta-weighting                 0.500000
      * Dispersion:
        s8                             2.700000
        a1                             0.520000
        a2                             5.000000
        s9                             5.000000
      * Repulsion:
        kExp                           1.500000    1.000000
        rExp                           1.000000
      * Coulomb:
        alpha                          2.000000
        third order                    shell-resolved
        anisotropic                    true
        a3                             3.000000
        a5                             4.000000
        cn-shift                       1.200000
        cn-exp                         4.000000
        max-rad                        5.000000


          ...................................................
          :                      SETUP                      :
          :.................................................:
          :  # basis functions                 556          :
          :  # atomic orbitals                 550          :
          :  # shells                          296          :
          :  # electrons                       560          :
          :  max. iterations                   250          :
          :  Hamiltonian                  GFN2-xTB          :
          :  restarted?                      false          :
          :  GBSA solvation                  false          :
          :  PC potential                    false          :
          :  electronic temp.          300.0000000     K    :
          :  accuracy                    1.0000000          :
          :  -> integral cutoff          0.2500000E+02      :
          :  -> integral neglect         0.1000000E-07      :
          :  -> SCF convergence          0.1000000E-05 Eh   :
          :  -> wf. convergence          0.1000000E-03 e    :
          :  Broyden damping             0.4000000          :
          ...................................................

 iter      E             dE          RMSdq      gap      omega  full diag
   1   -310.9395850 -0.310940E+03  0.486E+00    1.00       0.0  T
   2   -311.1391014 -0.199516E+00  0.294E+00    0.94       1.0  T
   3   -310.7780297  0.361072E+00  0.203E+00    0.49       1.0  T
   4   -311.2751581 -0.497128E+00  0.670E-01    0.27       1.0  T
   5   -311.3317450 -0.565870E-01  0.244E-01    0.31       1.0  T
   6   -311.3340458 -0.230078E-02  0.136E-01    0.35       1.0  T
   7   -311.3359446 -0.189875E-02  0.750E-02    0.39       1.0  T
   8   -311.3368272 -0.882596E-03  0.306E-02    0.38       1.0  T
   9   -311.3369338 -0.106608E-03  0.139E-02    0.38       1.0  T
  10   -311.3369436 -0.983718E-05  0.698E-03    0.38       1.1  T
  11   -311.3369470 -0.336254E-05  0.287E-03    0.38       2.6  T
  12   -311.3369477 -0.726419E-06  0.130E-03    0.38       5.8  T
  13   -311.3369478 -0.549198E-07  0.712E-04    0.38      10.6  T
  14   -311.3369478 -0.467801E-07  0.333E-04    0.38      22.7  T

   *** convergence criteria satisfied after 14 iterations ***

         #    Occupation            Energy/Eh            Energy/eV
      -------------------------------------------------------------
         1        2.0000           -0.8418970             -22.9092
       ...           ...                  ...                  ...
       274        2.0000           -0.3730427             -10.1510
       275        2.0000           -0.3643490              -9.9144
       276        2.0000           -0.3637914              -9.8993
       277        2.0000           -0.3615546              -9.8384
       278        2.0000           -0.3612251              -9.8294
       279        1.9997           -0.3535063              -9.6194
       280        1.9987           -0.3521216              -9.5817 (HOMO)
       281        0.0013           -0.3381761              -9.2022 (LUMO)
       282        0.0002           -0.3365706              -9.1586
       283        0.0000           -0.3328996              -9.0587
       284                         -0.3284002              -8.9362
       285                         -0.3204806              -8.7207
       ...                                ...                  ...
       550                          1.0762109              29.2852
      -------------------------------------------------------------
                  HL-Gap            0.0139455 Eh            0.3795 eV
             Fermi-level           -0.3451314 Eh           -9.3915 eV

 SCC (total)                   0 d,  0 h,  0 min,  0.579 sec
 SCC setup                      ...        0 min,  0.002 sec (  0.300%)
 Dispersion                     ...        0 min,  0.007 sec (  1.199%)
 classical contributions        ...        0 min,  0.000 sec (  0.049%)
 integral evaluation            ...        0 min,  0.028 sec (  4.782%)
 iterations                     ...        0 min,  0.440 sec ( 75.995%)
 molecular gradient             ...        0 min,  0.100 sec ( 17.204%)
 printout                       ...        0 min,  0.003 sec (  0.456%)

         :::::::::::::::::::::::::::::::::::::::::::::::::::::
         ::                     SUMMARY                     ::
         :::::::::::::::::::::::::::::::::::::::::::::::::::::
         :: total energy            -306.970790924124 Eh    ::
         :: gradient norm              0.323571607702 Eh/a0 ::
         :: HOMO-LUMO gap              0.379477396764 eV    ::
         ::.................................................::
         :: SCC energy              -311.336947799883 Eh    ::
         :: -> isotropic ES            0.175462750818 Eh    ::
         :: -> anisotropic ES          0.024845038182 Eh    ::
         :: -> anisotropic XC          0.205423110613 Eh    ::
         :: -> dispersion             -0.278745442083 Eh    ::
         :: repulsion energy           4.356002419940 Eh    ::
         :: add. restraining           0.000000000000 Eh    ::
         :: total charge               0.000000000000 e     ::
         :::::::::::::::::::::::::::::::::::::::::::::::::::::

      ----------------------------------------------------------- 
     |                   =====================                   |
     |                        A N C O P T                        |
     |                   =====================                   |
     |               Approximate Normal Coordinate               |
     |                Rational Function Optimizer                |
      ----------------------------------------------------------- 

          ...................................................
          :                      SETUP                      :
          :.................................................:
          :   optimization level            normal          :
          :   max. optcycles                   525          :
          :   ANC micro-cycles                  20          :
          :   degrees of freedom               519          :
          :.................................................:
          :   RF solver                   davidson          :
          :   write xtbopt.log                true          :
          :   linear?                        false          :
          :   energy convergence         0.5000000E-05 Eh   :
          :   grad. convergence          0.1000000E-02 Eh/α :
          :   maximium RF displ.         1.0000000          :
          :   Hlow (freq-cutoff)         0.1000000E-01      :
          :   Hmax (freq-cutoff)         5.0000000          :
          :   S6 in model hess.         20.0000000          :
          ...................................................

generating ANC from model Hessian ...
Using Lindh-Hessian (1995)
 Shifting diagonal of input Hessian by   1.003065591982497E-002
 Lowest  eigenvalues of input Hessian
    0.010000    0.010029    0.000000    0.000000    0.000000    0.000000
    0.000000    0.000000    0.010036    0.010044    0.010059    0.010072
    0.010100    0.010122    0.010129    0.010143    0.010163    0.010183
 Highest eigenvalues
    2.171833    2.287502    2.505019    2.506648    2.553493    2.559769
 

........................................................................
.............................. CYCLE    1 ..............................
........................................................................
   1   -311.3369478 -0.311337E+03  0.166E-04    0.38       0.0  T
   2   -311.3369478  0.144587E-08  0.155E-04    0.38      48.7  T
   3   -311.3369478 -0.438786E-08  0.678E-05    0.38     111.4  T
     SCC iter.                  ...        0 min,  0.098 sec
     gradient                   ...        0 min,  0.098 sec
 * total energy  :  -306.9707909 Eh     change       -0.9831638E-08 Eh
   gradient norm :     0.3235749 Eh/α   predicted     0.0000000E+00 (-100.00%)
   displ. norm   :     0.4954312 α      lambda       -0.1121100E+00
   maximum displ.:     0.1112523 α      in ANC's #173, #181, #267, ...

........................................................................
.............................. CYCLE    2 ..............................
........................................................................
   1   -311.5652532 -0.311565E+03  0.257E-01    0.39       0.0  T
   2   -311.5666226 -0.136938E-02  0.161E-01    0.37       1.0  T
   3   -311.5661179  0.504644E-03  0.966E-02    0.40       1.0  T
   4   -311.5669079 -0.789992E-03  0.450E-02    0.38       1.0  T
   5   -311.5672301 -0.322204E-03  0.184E-02    0.39       1.0  T
   6   -311.5672791 -0.490191E-04  0.750E-03    0.39       1.0  T
   7   -311.5672847 -0.557180E-05  0.378E-03    0.39       2.0  T
   8   -311.5672873 -0.261749E-05  0.136E-03    0.39       5.6  T
   9   -311.5672875 -0.203793E-06  0.724E-04    0.39      10.4  T
  10   -311.5672875 -0.323273E-07  0.325E-04    0.39      23.3  T
     SCC iter.                  ...        0 min,  0.296 sec
     gradient                   ...        0 min,  0.094 sec
 * total energy  :  -307.0529189 Eh     change       -0.8212797E-01 Eh
   gradient norm :     0.1495994 Eh/α   predicted    -0.6985841E-01 ( -14.94%)
   displ. norm   :     0.5119293 α      lambda       -0.4813840E-01
   maximum displ.:     0.1531346 α      in ANC's #181, #173, #99, ...

........................................................................
.............................. CYCLE    3 ..............................
........................................................................
   1   -311.7111003 -0.311711E+03  0.215E-01    0.38       0.0  T
   2   -311.7120280 -0.927633E-03  0.135E-01    0.36       1.0  T
   3   -311.7116754  0.352527E-03  0.868E-02    0.39       1.0  T
   4   -311.7124356 -0.760166E-03  0.379E-02    0.37       1.0  T
   5   -311.7126631 -0.227528E-03  0.147E-02    0.38       1.0  T
   6   -311.7126932 -0.300343E-04  0.601E-03    0.38       1.3  T
   7   -311.7126965 -0.331142E-05  0.324E-03    0.38       2.3  T
   8   -311.7126983 -0.182288E-05  0.127E-03    0.38       5.9  T
   9   -311.7126985 -0.230790E-06  0.582E-04    0.38      13.0  T
  10   -311.7126985 -0.153486E-07  0.265E-04    0.38      28.5  T
     SCC iter.                  ...        0 min,  0.281 sec
     gradient                   ...        0 min,  0.094 sec
 * total energy  :  -307.0834596 Eh     change       -0.3054068E-01 Eh
   gradient norm :     0.0415378 Eh/α   predicted    -0.3037707E-01 (  -0.54%)
   displ. norm   :     0.5260557 α      lambda       -0.1354805E-01
   maximum displ.:     0.1541573 α      in ANC's #93, #99, #77, ...

........................................................................
.............................. CYCLE    4 ..............................
........................................................................
   1   -311.7609843 -0.311761E+03  0.169E-01    0.38       0.0  T
   2   -311.7610946 -0.110356E-03  0.101E-01    0.36       1.0  T
   3   -311.7602782  0.816410E-03  0.674E-02    0.38       1.0  T
   4   -311.7612329 -0.954662E-03  0.156E-02    0.37       1.0  T
   5   -311.7612747 -0.418229E-04  0.610E-03    0.37       1.2  T
   6   -311.7612788 -0.416479E-05  0.265E-03    0.37       2.9  T
   7   -311.7612793 -0.451906E-06  0.130E-03    0.37       5.8  T
   8   -311.7612795 -0.188774E-06  0.640E-04    0.37      11.8  T
   9   -311.7612795 -0.505178E-07  0.353E-04    0.37      21.4  T
     SCC iter.                  ...        0 min,  0.245 sec
     gradient                   ...        0 min,  0.094 sec
 * total energy  :  -307.0913190 Eh     change       -0.7859376E-02 Eh
   gradient norm :     0.0300994 Eh/α   predicted    -0.8648707E-02 (  10.04%)
   displ. norm   :     0.6597494 α      lambda       -0.1149812E-01
   maximum displ.:     0.2079837 α      in ANC's #77, #99, #59, ...

........................................................................
.............................. CYCLE    5 ..............................
........................................................................
   1   -311.7857509 -0.311786E+03  0.328E-01    0.35       0.0  T
   2   -311.7860242 -0.273299E-03  0.184E-01    0.35       1.0  T
   3   -311.7847656  0.125859E-02  0.767E-02    0.36       1.0  T
   4   -311.7862017 -0.143604E-02  0.151E-02    0.36       1.0  T
   5   -311.7862347 -0.330528E-04  0.733E-03    0.35       1.0  T
   6   -311.7862395 -0.480767E-05  0.344E-03    0.36       2.2  T
   7   -311.7862406 -0.105477E-05  0.149E-03    0.35       5.1  T
   8   -311.7862409 -0.259295E-06  0.690E-04    0.35      11.0  T
   9   -311.7862409 -0.413265E-07  0.400E-04    0.35      18.9  T
     SCC iter.                  ...        0 min,  0.269 sec
     gradient                   ...        0 min,  0.095 sec
 * total energy  :  -307.0940521 Eh     change       -0.2733181E-02 Eh
   gradient norm :     0.0472890 Eh/α   predicted    -0.8251497E-02 ( 201.90%)
   displ. norm   :     0.3110213 α      lambda       -0.6181640E-02
   maximum displ.:     0.0782739 α      in ANC's #53, #34, #41, ...

........................................................................
.............................. CYCLE    6 ..............................
........................................................................
   1   -311.7994915 -0.311799E+03  0.175E-01    0.37       0.0  T
   2   -311.7995653 -0.737655E-04  0.969E-02    0.37       1.0  T
   3   -311.7994534  0.111843E-03  0.256E-02    0.36       1.0  T
   4   -311.7995959 -0.142489E-03  0.610E-03    0.37       1.2  T
   5   -311.7996001 -0.422105E-05  0.302E-03    0.37       2.5  T
   6   -311.7996008 -0.649444E-06  0.133E-03    0.37       5.7  T
   7   -311.7996010 -0.232673E-06  0.487E-04    0.37      15.5  T
   8   -311.7996010 -0.206600E-07  0.227E-04    0.37      33.3  T
     SCC iter.                  ...        0 min,  0.227 sec
     gradient                   ...        0 min,  0.094 sec
 * total energy  :  -307.0973884 Eh     change       -0.3336227E-02 Eh
   gradient norm :     0.0312027 Eh/α   predicted    -0.3389835E-02 (   1.61%)
   displ. norm   :     0.4210112 α      lambda       -0.3482874E-02
   maximum displ.:     0.1292922 α      in ANC's #41, #59, #58, ...

........................................................................
.............................. CYCLE    7 ..............................
........................................................................
   1   -311.7908028 -0.311791E+03  0.195E-01    0.36       0.0  T
   2   -311.7908867 -0.839190E-04  0.109E-01    0.37       1.0  T
   3   -311.7906136  0.273167E-03  0.431E-02    0.36       1.0  T
   4   -311.7909378 -0.324254E-03  0.726E-03    0.37       1.0  T
   5   -311.7909417 -0.384580E-05  0.412E-03    0.37       1.8  T
   6   -311.7909433 -0.165367E-05  0.166E-03    0.37       4.5  T
   7   -311.7909436 -0.284522E-06  0.768E-04    0.37       9.8  T
   8   -311.7909437 -0.707647E-07  0.377E-04    0.37      20.1  T
     SCC iter.                  ...        0 min,  0.228 sec
     gradient                   ...        0 min,  0.094 sec
 * total energy  :  -307.0975507 Eh     change       -0.1623131E-03 Eh
   gradient norm :     0.0251453 Eh/α   predicted    -0.2050122E-02 (1163.07%)
   displ. norm   :     0.3179485 α      lambda       -0.3559193E-02
   maximum displ.:     0.1050122 α      in ANC's #41, #67, #33, ...

........................................................................
.............................. CYCLE    8 ..............................
........................................................................
   1   -311.7948349 -0.311795E+03  0.166E-01    0.36       0.0  T
   2   -311.7948974 -0.624333E-04  0.922E-02    0.37       1.0  T
   3   -311.7948284  0.689328E-04  0.225E-02    0.37       1.0  T
   4   -311.7949247 -0.962940E-04  0.489E-03    0.37       1.5  T
   5   -311.7949262 -0.150582E-05  0.291E-03    0.37       2.6  T
   6   -311.7949273 -0.104722E-05  0.112E-03    0.37       6.7  T
   7   -311.7949274 -0.150076E-06  0.426E-04    0.37      17.8  T
   8   -311.7949274 -0.158474E-07  0.244E-04    0.37      31.0  T
     SCC iter.                  ...        0 min,  0.229 sec
     gradient                   ...        0 min,  0.095 sec
 * total energy  :  -307.0996370 Eh     change       -0.2086369E-02 Eh
   gradient norm :     0.0190186 Eh/α   predicted    -0.1959505E-02 (  -6.08%)
   displ. norm   :     0.3796337 α      lambda       -0.1737455E-02
   maximum displ.:     0.1649026 α      in ANC's #41, #12, #10, ...

........................................................................
.............................. CYCLE    9 ..............................
........................................................................
   1   -311.8013719 -0.311801E+03  0.139E-01    0.36       0.0  T
   2   -311.8014165 -0.445912E-04  0.776E-02    0.37       1.0  T
   3   -311.8012622  0.154268E-03  0.285E-02    0.37       1.0  T
   4   -311.8014422 -0.179957E-03  0.548E-03    0.37       1.4  T
   5   -311.8014443 -0.212561E-05  0.339E-03    0.37       2.2  T
   6   -311.8014457 -0.139862E-05  0.143E-03    0.37       5.3  T
   7   -311.8014460 -0.268370E-06  0.638E-04    0.37      11.8  T
   8   -311.8014460 -0.596131E-07  0.242E-04    0.37      31.3  T
     SCC iter.                  ...        0 min,  0.225 sec
     gradient                   ...        0 min,  0.095 sec
 * total energy  :  -307.1004141 Eh     change       -0.7770363E-03 Eh
   gradient norm :     0.0240488 Eh/α   predicted    -0.9939395E-03 (  27.91%)
   displ. norm   :     0.5168150 α      lambda       -0.2387261E-02
   maximum displ.:     0.2455617 α      in ANC's #41, #58, #19, ...

........................................................................
.............................. CYCLE   10 ..............................
........................................................................
   1   -311.8118919 -0.311812E+03  0.149E-01    0.36       0.0  T
   2   -311.8119294 -0.374891E-04  0.839E-02    0.37       1.0  T
   3   -311.8117769  0.152501E-03  0.277E-02    0.37       1.0  T
   4   -311.8119502 -0.173306E-03  0.608E-03    0.37       1.2  T
   5   -311.8119518 -0.160611E-05  0.414E-03    0.37       1.8  T
   6   -311.8119544 -0.257923E-05  0.156E-03    0.37       4.8  T
   7   -311.8119547 -0.314434E-06  0.667E-04    0.37      11.3  T
   8   -311.8119548 -0.585056E-07  0.272E-04    0.37      27.8  T
     SCC iter.                  ...        0 min,  0.238 sec
     gradient                   ...        0 min,  0.096 sec
 * total energy  :  -307.1012123 Eh     change       -0.7981901E-03 Eh
   gradient norm :     0.0324809 Eh/α   predicted    -0.1512450E-02 (  89.48%)
   displ. norm   :     0.4079239 α      lambda       -0.2295900E-02
   maximum displ.:     0.2034664 α      in ANC's #41, #10, #19, ...

........................................................................
.............................. CYCLE   11 ..............................
........................................................................
   1   -311.8087341 -0.311809E+03  0.114E-01    0.37       0.0  T
   2   -311.8087582 -0.240756E-04  0.641E-02    0.38       1.0  T
   3   -311.8086639  0.942770E-04  0.237E-02    0.37       1.0  T
   4   -311.8087716 -0.107689E-03  0.512E-03    0.38       1.5  T
   5   -311.8087725 -0.868376E-06  0.351E-03    0.38       2.2  T
   6   -311.8087742 -0.175867E-05  0.114E-03    0.38       6.6  T
   7   -311.8087744 -0.192379E-06  0.500E-04    0.38      15.1  T
   8   -311.8087744 -0.320574E-07  0.222E-04    0.38      34.0  T
     SCC iter.                  ...        0 min,  0.228 sec
     gradient                   ...        0 min,  0.095 sec
 * total energy  :  -307.1028399 Eh     change       -0.1627651E-02 Eh
   gradient norm :     0.0153543 Eh/α   predicted    -0.1338974E-02 ( -17.74%)
   displ. norm   :     0.6320408 α      lambda       -0.2014811E-02
   maximum displ.:     0.3219438 α      in ANC's #41, #10, #19, ...

........................................................................
.............................. CYCLE   12 ..............................
........................................................................
   1   -311.7946154 -0.311795E+03  0.173E-01    0.37       0.0  T
   2   -311.7946684 -0.529703E-04  0.967E-02    0.38       1.0  T
   3   -311.7944673  0.201111E-03  0.324E-02    0.37       1.0  T
   4   -311.7946946 -0.227288E-03  0.749E-03    0.38       1.0  T
   5   -311.7946976 -0.297313E-05  0.464E-03    0.38       1.6  T
   6   -311.7947004 -0.282397E-05  0.154E-03    0.38       4.9  T
   7   -311.7947007 -0.276125E-06  0.718E-04    0.38      10.5  T
   8   -311.7947007 -0.638122E-07  0.291E-04    0.38      26.0  T
     SCC iter.                  ...        0 min,  0.229 sec
     gradient                   ...        0 min,  0.094 sec
 * total energy  :  -307.1037276 Eh     change       -0.8876589E-03 Eh
   gradient norm :     0.0356034 Eh/α   predicted    -0.1409842E-02 (  58.83%)
   displ. norm   :     0.5586822 α      lambda       -0.2717401E-02
   maximum displ.:     0.2912112 α      in ANC's #41, #10, #13, ...

........................................................................
.............................. CYCLE   13 ..............................
........................................................................
   1   -311.7943240 -0.311794E+03  0.158E-01    0.38       0.0  T
   2   -311.7943708 -0.468569E-04  0.883E-02    0.38       1.0  T
   3   -311.7942571  0.113771E-03  0.247E-02    0.38       1.0  T
   4   -311.7943878 -0.130701E-03  0.698E-03    0.39       1.1  T
   5   -311.7943920 -0.427478E-05  0.396E-03    0.38       1.9  T
   6   -311.7943942 -0.214569E-05  0.138E-03    0.38       5.5  T
   7   -311.7943944 -0.220873E-06  0.559E-04    0.38      13.5  T
   8   -311.7943944 -0.325360E-07  0.251E-04    0.38      30.1  T
     SCC iter.                  ...        0 min,  0.228 sec
     gradient                   ...        0 min,  0.094 sec
 * total energy  :  -307.1052832 Eh     change       -0.1555580E-02 Eh
   gradient norm :     0.0267551 Eh/α   predicted    -0.1782788E-02 (  14.61%)
   displ. norm   :     0.5309941 α      lambda       -0.2113545E-02
   maximum displ.:     0.2951536 α      in ANC's #41, #19, #10, ...

........................................................................
.............................. CYCLE   14 ..............................
........................................................................
   1   -311.8123176 -0.311812E+03  0.107E-01    0.38       0.0  T
   2   -311.8123329 -0.153022E-04  0.616E-02    0.39       1.0  T
   3   -311.8121403  0.192582E-03  0.322E-02    0.39       1.0  T
   4   -311.8123493 -0.208946E-03  0.640E-03    0.39       1.2  T
   5   -311.8123523 -0.301712E-05  0.399E-03    0.39       1.9  T
   6   -311.8123545 -0.222427E-05  0.143E-03    0.39       5.3  T
   7   -311.8123548 -0.296127E-06  0.626E-04    0.39      12.1  T
   8   -311.8123549 -0.625373E-07  0.224E-04    0.39      33.8  T
     SCC iter.                  ...        0 min,  0.225 sec
     gradient                   ...        0 min,  0.094 sec
 * total energy  :  -307.1066942 Eh     change       -0.1411050E-02 Eh
   gradient norm :     0.0265676 Eh/α   predicted    -0.1354737E-02 (  -3.99%)
   displ. norm   :     0.6899612 α      lambda       -0.2008357E-02
   maximum displ.:     0.3783541 α      in ANC's #41, #19, #10, ...

........................................................................
.............................. CYCLE   15 ..............................
........................................................................
   1   -311.8098618 -0.311810E+03  0.140E-01    0.38       0.0  T
   2   -311.8098885 -0.266988E-04  0.792E-02    0.39       1.0  T
   3   -311.8097141  0.174432E-03  0.286E-02    0.39       1.0  T
   4   -311.8098973 -0.183231E-03  0.819E-03    0.39       1.0  T
   5   -311.8099057 -0.845211E-05  0.390E-03    0.39       1.9  T
   6   -311.8099075 -0.175994E-05  0.142E-03    0.39       5.3  T
   7   -311.8099078 -0.241308E-06  0.581E-04    0.39      13.0  T
   8   -311.8099078 -0.481287E-07  0.233E-04    0.39      32.4  T
     SCC iter.                  ...        0 min,  0.227 sec
     gradient                   ...        0 min,  0.094 sec
 * total energy  :  -307.1083921 Eh     change       -0.1697884E-02 Eh
   gradient norm :     0.0187504 Eh/α   predicted    -0.1482220E-02 ( -12.70%)
   displ. norm   :     0.7602946 α      lambda       -0.2151500E-02
   maximum displ.:     0.4190751 α      in ANC's #41, #19, #10, ...

........................................................................
.............................. CYCLE   16 ..............................
........................................................................
   1   -311.8096338 -0.311810E+03  0.151E-01    0.38       0.0  T
   2   -311.8096662 -0.323296E-04  0.852E-02    0.39       1.0  T
   3   -311.8094955  0.170690E-03  0.303E-02    0.39       1.0  T
   4   -311.8096724 -0.176908E-03  0.948E-03    0.40       1.0  T
   5   -311.8096839 -0.115706E-04  0.476E-03    0.39       1.6  T
   6   -311.8096873 -0.332100E-05  0.148E-03    0.39       5.1  T
   7   -311.8096875 -0.257264E-06  0.611E-04    0.39      12.4  T
   8   -311.8096876 -0.506834E-07  0.252E-04    0.39      30.0  T
     SCC iter.                  ...        0 min,  0.226 sec
     gradient                   ...        0 min,  0.094 sec
 * total energy  :  -307.1101583 Eh     change       -0.1766240E-02 Eh
   gradient norm :     0.0171163 Eh/α   predicted    -0.1697587E-02 (  -3.89%)
   displ. norm   :     0.8346823 α      lambda       -0.1930704E-02
   maximum displ.:     0.4911881 α      in ANC's #41, #19, #10, ...

........................................................................
.............................. CYCLE   17 ..............................
........................................................................
   1   -311.8044987 -0.311804E+03  0.152E-01    0.39       0.0  T
   2   -311.8045282 -0.294735E-04  0.867E-02    0.40       1.0  T
   3   -311.8043176  0.210655E-03  0.333E-02    0.39       1.0  T
   4   -311.8045327 -0.215132E-03  0.100E-02    0.40       1.0  T
   5   -311.8045459 -0.131985E-04  0.456E-03    0.40       1.7  T
   6   -311.8045488 -0.287716E-05  0.174E-03    0.40       4.3  T
   7   -311.8045492 -0.420191E-06  0.685E-04    0.40      11.0  T
   8   -311.8045493 -0.704045E-07  0.247E-04    0.40      30.6  T
     SCC iter.                  ...        0 min,  0.228 sec
     gradient                   ...        0 min,  0.094 sec
 * total energy  :  -307.1118804 Eh     change       -0.1722071E-02 Eh
   gradient norm :     0.0152982 Eh/α   predicted    -0.1637910E-02 (  -4.89%)
   displ. norm   :     0.7690381 α      lambda       -0.2311747E-02
   maximum displ.:     0.4323598 α      in ANC's #41, #19, #10, ...

........................................................................
.............................. CYCLE   18 ..............................
........................................................................
   1   -311.8347246 -0.311835E+03  0.141E-01    0.40       0.0  T
   2   -311.8347546 -0.299456E-04  0.801E-02    0.41       1.0  T
   3   -311.8345779  0.176725E-03  0.343E-02    0.40       1.0  T
   4   -311.8347707 -0.192876E-03  0.846E-03    0.41       1.0  T
   5   -311.8347753 -0.453271E-05  0.435E-03    0.41       1.7  T
   6   -311.8347779 -0.265078E-05  0.179E-03    0.41       4.2  T
   7   -311.8347785 -0.571685E-06  0.771E-04    0.41       9.8  T
   8   -311.8347786 -0.983903E-07  0.298E-04    0.41      25.4  T
     SCC iter.                  ...        0 min,  0.235 sec
     gradient                   ...        0 min,  0.094 sec
 * total energy  :  -307.1132794 Eh     change       -0.1398961E-02 Eh
   gradient norm :     0.0206073 Eh/α   predicted    -0.1839480E-02 (  31.49%)
   displ. norm   :     0.7799192 α      lambda       -0.2072817E-02
   maximum displ.:     0.4729746 α      in ANC's #41, #19, #10, ...

........................................................................
.............................. CYCLE   19 ..............................
........................................................................
   1   -311.8139955 -0.311814E+03  0.147E-01    0.40       0.0  T
   2   -311.8140289 -0.333428E-04  0.842E-02    0.41       1.0  T
   3   -311.8138230  0.205899E-03  0.323E-02    0.40       1.0  T
   4   -311.8140320 -0.209054E-03  0.102E-02    0.41       1.0  T
   5   -311.8140478 -0.157845E-04  0.437E-03    0.41       1.7  T
   6   -311.8140500 -0.221560E-05  0.173E-03    0.41       4.4  T
   7   -311.8140504 -0.348179E-06  0.661E-04    0.41      11.4  T
   8   -311.8140504 -0.601971E-07  0.280E-04    0.41      27.0  T
     SCC iter.                  ...        0 min,  0.227 sec
     gradient                   ...        0 min,  0.094 sec
 * total energy  :  -307.1148208 Eh     change       -0.1541440E-02 Eh
   gradient norm :     0.0149614 Eh/α   predicted    -0.1666829E-02 (   8.13%)
   displ. norm   :     0.7104093 α      lambda       -0.1376769E-02
   maximum displ.:     0.3957336 α      in ANC's #41, #19, #10, ...

........................................................................
.............................. CYCLE   20 ..............................
........................................................................
   1   -311.8051564 -0.311805E+03  0.126E-01    0.40       0.0  T
   2   -311.8051802 -0.237443E-04  0.715E-02    0.41       1.0  T
   3   -311.8050321  0.148031E-03  0.271E-02    0.40       1.0  T
   4   -311.8051823 -0.150180E-03  0.877E-03    0.42       1.0  T
   5   -311.8051940 -0.116830E-04  0.359E-03    0.41       2.1  T
   6   -311.8051955 -0.152210E-05  0.129E-03    0.41       5.9  T
   7   -311.8051957 -0.195257E-06  0.409E-04    0.41      18.5  T
   8   -311.8051957 -0.148941E-07  0.211E-04    0.41      35.8  T
     SCC iter.                  ...        0 min,  0.229 sec
     gradient                   ...        0 min,  0.094 sec
 * total energy  :  -307.1159790 Eh     change       -0.1158222E-02 Eh
   gradient norm :     0.0149743 Eh/α   predicted    -0.1035802E-02 ( -10.57%)
   displ. norm   :     0.6573198 α      lambda       -0.1627891E-02
   maximum displ.:     0.3146130 α      in ANC's #41, #19, #13, ...
 * RMSD in coord.:     0.6748411 α      energy gain  -0.1451881E+00 Eh

generating ANC from model Hessian ...
Using Lindh-Hessian (1995)
 Shifting diagonal of input Hessian by   1.000784724872602E-002
 Lowest  eigenvalues of input Hessian
    0.010000    0.000000    0.000000    0.000000    0.000000    0.000000
    0.000000    0.010011    0.010015    0.010023    0.010033    0.010059
    0.010074    0.010084    0.010110    0.010148    0.010169    0.010187
 Highest eigenvalues
    2.274675    2.287498    2.600605    2.609643    2.633306    2.653135
 

........................................................................
.............................. CYCLE   21 ..............................
........................................................................
   1   -311.8118924 -0.311812E+03  0.101E-01    0.40       0.0  T
   2   -311.8119056 -0.131897E-04  0.572E-02    0.41       1.0  T
   3   -311.8118000  0.105571E-03  0.233E-02    0.41       1.0  T
   4   -311.8119077 -0.107691E-03  0.744E-03    0.41       1.0  T
   5   -311.8119152 -0.743385E-05  0.357E-03    0.41       2.1  T
   6   -311.8119168 -0.158354E-05  0.125E-03    0.41       6.0  T
   7   -311.8119169 -0.187520E-06  0.522E-04    0.41      14.5  T
   8   -311.8119170 -0.274887E-07  0.273E-04    0.41      27.7  T
     SCC iter.                  ...        0 min,  0.227 sec
     gradient                   ...        0 min,  0.094 sec
 * total energy  :  -307.1172566 Eh     change       -0.1277534E-02 Eh
   gradient norm :     0.0132660 Eh/α   predicted     0.0000000E+00 (-100.00%)
   displ. norm   :     0.1907448 α      lambda       -0.7209521E-03
   maximum displ.:     0.0649259 α      in ANC's #42, #13, #12, ...

........................................................................
.............................. CYCLE   22 ..............................
........................................................................
   1   -311.8205792 -0.311821E+03  0.935E-02    0.41       0.0  T
   2   -311.8205952 -0.159384E-04  0.519E-02    0.41       1.0  T
   3   -311.8205686  0.266173E-04  0.134E-02    0.41       1.0  T
   4   -311.8206033 -0.347663E-04  0.263E-03    0.41       2.9  T
   5   -311.8206034 -0.380631E-07  0.184E-03    0.41       4.1  T
   6   -311.8206039 -0.525375E-06  0.572E-04    0.41      13.2  T
   7   -311.8206039 -0.415105E-07  0.292E-04    0.41      25.9  T
     SCC iter.                  ...        0 min,  0.198 sec
     gradient                   ...        0 min,  0.094 sec
 * total energy  :  -307.1173220 Eh     change       -0.6539991E-04 Eh
   gradient norm :     0.0114300 Eh/α   predicted    -0.3736401E-03 ( 471.32%)
   displ. norm   :     0.2957997 α      lambda       -0.1277992E-02
   maximum displ.:     0.1130566 α      in ANC's #42, #16, #19, ...

........................................................................
.............................. CYCLE   23 ..............................
........................................................................
   1   -311.8380870 -0.311838E+03  0.110E-01    0.41       0.0  T
   2   -311.8381136 -0.266034E-04  0.609E-02    0.41       1.0  T
   3   -311.8380658  0.478044E-04  0.182E-02    0.41       1.0  T
   4   -311.8381263 -0.604996E-04  0.368E-03    0.41       2.1  T
   5   -311.8381271 -0.798315E-06  0.191E-03    0.41       4.0  T
   6   -311.8381275 -0.436609E-06  0.809E-04    0.41       9.3  T
   7   -311.8381276 -0.893310E-07  0.339E-04    0.41      22.3  T
     SCC iter.                  ...        0 min,  0.200 sec
     gradient                   ...        0 min,  0.094 sec
 * total energy  :  -307.1180272 Eh     change       -0.7052213E-03 Eh
   gradient norm :     0.0196284 Eh/α   predicted    -0.6949118E-03 (  -1.46%)
   displ. norm   :     0.3275959 α      lambda       -0.7838206E-03
   maximum displ.:     0.1351277 α      in ANC's #42, #19, #11, ...

........................................................................
.............................. CYCLE   24 ..............................
........................................................................
   1   -311.8325202 -0.311833E+03  0.738E-02    0.41       0.0  T
   2   -311.8325295 -0.929214E-05  0.412E-02    0.41       1.0  T
   3   -311.8325174  0.120496E-04  0.838E-03    0.41       1.0  T
   4   -311.8325306 -0.131314E-04  0.378E-03    0.41       2.0  T
   5   -311.8325329 -0.232054E-05  0.174E-03    0.41       4.4  T
   6   -311.8325333 -0.385654E-06  0.744E-04    0.41      10.2  T
   7   -311.8325334 -0.831685E-07  0.261E-04    0.41      29.0  T
     SCC iter.                  ...        0 min,  0.204 sec
     gradient                   ...        0 min,  0.094 sec
 * total energy  :  -307.1185900 Eh     change       -0.5628636E-03 Eh
   gradient norm :     0.0091417 Eh/α   predicted    -0.4339705E-03 ( -22.90%)
   displ. norm   :     0.6288449 α      lambda       -0.1188821E-02
   maximum displ.:     0.2625797 α      in ANC's #42, #19, #11, ...

........................................................................
.............................. CYCLE   25 ..............................
........................................................................
   1   -311.8177767 -0.311818E+03  0.103E-01    0.41       0.0  T
   2   -311.8177945 -0.177957E-04  0.583E-02    0.41       1.0  T
   3   -311.8177218  0.727332E-04  0.196E-02    0.41       1.0  T
   4   -311.8177960 -0.742365E-04  0.696E-03    0.41       1.1  T
   5   -311.8178030 -0.693885E-05  0.302E-03    0.41       2.5  T
   6   -311.8178039 -0.953451E-06  0.151E-03    0.41       5.0  T
   7   -311.8178043 -0.389701E-06  0.467E-04    0.41      16.2  T
   8   -311.8178043 -0.292588E-07  0.206E-04    0.41      36.6  T
     SCC iter.                  ...        0 min,  0.229 sec
     gradient                   ...        0 min,  0.094 sec
 * total energy  :  -307.1194571 Eh     change       -0.8670330E-03 Eh
   gradient norm :     0.0189038 Eh/α   predicted    -0.8294732E-03 (  -4.33%)
   displ. norm   :     0.6841289 α      lambda       -0.1245368E-02
   maximum displ.:     0.2829504 α      in ANC's #42, #19, #11, ...

........................................................................
.............................. CYCLE   26 ..............................
........................................................................
   1   -311.8092491 -0.311809E+03  0.118E-01    0.40       0.0  T
   2   -311.8092735 -0.243161E-04  0.663E-02    0.41       1.0  T
   3   -311.8092023  0.712098E-04  0.188E-02    0.40       1.0  T
   4   -311.8092707 -0.684370E-04  0.833E-03    0.41       1.0  T
   5   -311.8092835 -0.127699E-04  0.323E-03    0.41       2.3  T
   6   -311.8092845 -0.102767E-05  0.147E-03    0.41       5.1  T
   7   -311.8092848 -0.324273E-06  0.471E-04    0.41      16.0  T
   8   -311.8092848 -0.228062E-07  0.230E-04    0.41      32.9  T
     SCC iter.                  ...        0 min,  0.232 sec
     gradient                   ...        0 min,  0.098 sec
 * total energy  :  -307.1202623 Eh     change       -0.8051878E-03 Eh
   gradient norm :     0.0214516 Eh/α   predicted    -0.9141266E-03 (  13.53%)
   displ. norm   :     0.5870870 α      lambda       -0.1567986E-02
   maximum displ.:     0.2151906 α      in ANC's #42, #11, #13, ...

........................................................................
.............................. CYCLE   27 ..............................
........................................................................
   1   -311.8140835 -0.311814E+03  0.132E-01    0.41       0.0  T
   2   -311.8141210 -0.375302E-04  0.735E-02    0.41       1.0  T
   3   -311.8140506  0.703699E-04  0.206E-02    0.41       1.0  T
   4   -311.8141313 -0.806307E-04  0.680E-03    0.41       1.1  T
   5   -311.8141367 -0.540304E-05  0.347E-03    0.41       2.2  T
   6   -311.8141383 -0.165896E-05  0.137E-03    0.41       5.5  T
   7   -311.8141386 -0.240271E-06  0.509E-04    0.41      14.8  T
   8   -311.8141386 -0.306459E-07  0.243E-04    0.41      31.1  T
     SCC iter.                  ...        0 min,  0.242 sec
     gradient                   ...        0 min,  0.099 sec
 * total energy  :  -307.1209272 Eh     change       -0.6649489E-03 Eh
   gradient norm :     0.0164148 Eh/α   predicted    -0.1054220E-02 (  58.54%)
   displ. norm   :     0.4108638 α      lambda       -0.1074753E-02
   maximum displ.:     0.1292104 α      in ANC's #19, #42, #11, ...

........................................................................
.............................. CYCLE   28 ..............................
........................................................................
   1   -311.8210058 -0.311821E+03  0.712E-02    0.41       0.0  T
   2   -311.8210165 -0.107475E-04  0.392E-02    0.41       1.0  T
   3   -311.8209959  0.206386E-04  0.115E-02    0.41       1.0  T
   4   -311.8210185 -0.226182E-04  0.443E-03    0.41       1.7  T
   5   -311.8210209 -0.237052E-05  0.201E-03    0.41       3.8  T
   6   -311.8210215 -0.625268E-06  0.700E-04    0.41      10.8  T
   7   -311.8210216 -0.636003E-07  0.351E-04    0.41      21.6  T
     SCC iter.                  ...        0 min,  0.217 sec
     gradient                   ...        0 min,  0.098 sec
 * total energy  :  -307.1217941 Eh     change       -0.8669260E-03 Eh
   gradient norm :     0.0103418 Eh/α   predicted    -0.6281022E-03 ( -27.55%)
   displ. norm   :     0.7269933 α      lambda       -0.1200125E-02
   maximum displ.:     0.2472622 α      in ANC's #42, #19, #11, ...

........................................................................
.............................. CYCLE   29 ..............................
........................................................................
   1   -311.8214004 -0.311821E+03  0.119E-01    0.40       0.0  T
   2   -311.8214325 -0.320537E-04  0.650E-02    0.41       1.0  T
   3   -311.8213851  0.473255E-04  0.180E-02    0.41       1.0  T
   4   -311.8214314 -0.462930E-04  0.872E-03    0.41       1.0  T
   5   -311.8214430 -0.116216E-04  0.331E-03    0.41       2.3  T
   6   -311.8214445 -0.149432E-05  0.132E-03    0.41       5.7  T
   7   -311.8214448 -0.290626E-06  0.494E-04    0.41      15.3  T
   8   -311.8214449 -0.254701E-07  0.249E-04    0.41      30.4  T
     SCC iter.                  ...        0 min,  0.233 sec
     gradient                   ...        0 min,  0.094 sec
 * total energy  :  -307.1226887 Eh     change       -0.8945213E-03 Eh
   gradient norm :     0.0125421 Eh/α   predicted    -0.9172079E-03 (   2.54%)
   displ. norm   :     0.6528746 α      lambda       -0.1021357E-02
   maximum displ.:     0.2112605 α      in ANC's #11, #19, #13, ...

........................................................................
.............................. CYCLE   30 ..............................
........................................................................
   1   -311.8325432 -0.311833E+03  0.816E-02    0.40       0.0  T
   2   -311.8325579 -0.147011E-04  0.438E-02    0.41       1.0  T
   3   -311.8324922  0.656815E-04  0.200E-02    0.40       1.0  T
   4   -311.8325618 -0.696263E-04  0.681E-03    0.41       1.1  T
   5   -311.8325652 -0.342104E-05  0.359E-03    0.41       2.1  T
   6   -311.8325676 -0.236358E-05  0.125E-03    0.41       6.1  T
   7   -311.8325679 -0.295159E-06  0.492E-04    0.41      15.4  T
   8   -311.8325679 -0.332335E-07  0.220E-04    0.41      34.3  T
     SCC iter.                  ...        0 min,  0.239 sec
     gradient                   ...        0 min,  0.095 sec
 * total energy  :  -307.1234756 Eh     change       -0.7869339E-03 Eh
   gradient norm :     0.0091809 Eh/α   predicted    -0.7283529E-03 (  -7.44%)
   displ. norm   :     0.8345537 α      lambda       -0.1063405E-02
   maximum displ.:     0.2825914 α      in ANC's #42, #11, #19, ...

........................................................................
.............................. CYCLE   31 ..............................
........................................................................
   1   -311.8258473 -0.311826E+03  0.105E-01    0.38       0.0  T
   2   -311.8258701 -0.228170E-04  0.570E-02    0.39       1.0  T
   3   -311.8257897  0.803939E-04  0.215E-02    0.38       1.0  T
   4   -311.8258633 -0.735539E-04  0.998E-03    0.39       1.0  T
   5   -311.8258789 -0.156421E-04  0.375E-03    0.39       2.0  T
   6   -311.8258807 -0.177336E-05  0.136E-03    0.39       5.6  T
   7   -311.8258810 -0.332321E-06  0.380E-04    0.39      19.9  T
   8   -311.8258810 -0.171410E-07  0.196E-04    0.39      38.6  T
     SCC iter.                  ...        0 min,  0.244 sec
     gradient                   ...        0 min,  0.094 sec
 * total energy  :  -307.1243374 Eh     change       -0.8618060E-03 Eh
   gradient norm :     0.0105135 Eh/α   predicted    -0.9020276E-03 (   4.67%)
   displ. norm   :     0.7109288 α      lambda       -0.9308198E-03
   maximum displ.:     0.2281098 α      in ANC's #11, #12, #13, ...

........................................................................
.............................. CYCLE   32 ..............................
........................................................................
   1   -311.8273121 -0.311827E+03  0.899E-02    0.38       0.0  T
   2   -311.8273302 -0.180986E-04  0.471E-02    0.38       1.0  T
   3   -311.8272597  0.705078E-04  0.200E-02    0.38       1.0  T
   4   -311.8273349 -0.752075E-04  0.734E-03    0.38       1.0  T
   5   -311.8273386 -0.369324E-05  0.410E-03    0.38       1.8  T
   6   -311.8273419 -0.329730E-05  0.120E-03    0.38       6.3  T
   7   -311.8273421 -0.271162E-06  0.386E-04    0.38      19.6  T
   8   -311.8273421 -0.188031E-07  0.199E-04    0.38      38.0  T
     SCC iter.                  ...        0 min,  0.245 sec
     gradient                   ...        0 min,  0.096 sec
 * total energy  :  -307.1250867 Eh     change       -0.7492568E-03 Eh
   gradient norm :     0.0118387 Eh/α   predicted    -0.7006472E-03 (  -6.49%)
   displ. norm   :     0.7400637 α      lambda       -0.1064758E-02
   maximum displ.:     0.2303469 α      in ANC's #11, #12, #13, ...

........................................................................
.............................. CYCLE   33 ..............................
........................................................................
   1   -311.8250931 -0.311825E+03  0.970E-02    0.37       0.0  T
   2   -311.8251147 -0.215699E-04  0.509E-02    0.37       1.0  T
   3   -311.8250308  0.838745E-04  0.210E-02    0.37       1.0  T
   4   -311.8251199 -0.890502E-04  0.789E-03    0.38       1.0  T
   5   -311.8251254 -0.553275E-05  0.430E-03    0.37       1.8  T
   6   -311.8251287 -0.328831E-05  0.135E-03    0.37       5.6  T
   7   -311.8251290 -0.342391E-06  0.468E-04    0.37      16.2  T
   8   -311.8251291 -0.331898E-07  0.231E-04    0.37      32.7  T
     SCC iter.                  ...        0 min,  0.244 sec
     gradient                   ...        0 min,  0.095 sec
 * total energy  :  -307.1259115 Eh     change       -0.8248288E-03 Eh
   gradient norm :     0.0088774 Eh/α   predicted    -0.8239711E-03 (  -0.10%)
   displ. norm   :     0.6848284 α      lambda       -0.9884712E-03
   maximum displ.:     0.2209566 α      in ANC's #12, #11, #13, ...

........................................................................
.............................. CYCLE   34 ..............................
........................................................................
   1   -311.8320039 -0.311832E+03  0.832E-02    0.37       0.0  T
   2   -311.8320217 -0.178076E-04  0.421E-02    0.38       1.0  T
   3   -311.8319514  0.702778E-04  0.193E-02    0.37       1.0  T
   4   -311.8320302 -0.787346E-04  0.678E-03    0.38       1.1  T
   5   -311.8320317 -0.150399E-05  0.420E-03    0.38       1.8  T
   6   -311.8320350 -0.327422E-05  0.124E-03    0.38       6.1  T
   7   -311.8320353 -0.306868E-06  0.534E-04    0.38      14.2  T
   8   -311.8320353 -0.516561E-07  0.229E-04    0.38      33.0  T
     SCC iter.                  ...        0 min,  0.248 sec
     gradient                   ...        0 min,  0.094 sec
 * total energy  :  -307.1266768 Eh     change       -0.7653543E-03 Eh
   gradient norm :     0.0106627 Eh/α   predicted    -0.7260301E-03 (  -5.14%)
   displ. norm   :     0.8148391 α      lambda       -0.1089231E-02
   maximum displ.:     0.2650619 α      in ANC's #12, #11, #13, ...

........................................................................
.............................. CYCLE   35 ..............................
........................................................................
   1   -311.8296480 -0.311830E+03  0.105E-01    0.37       0.0  T
   2   -311.8296732 -0.251599E-04  0.517E-02    0.37       1.0  T
   3   -311.8296028  0.703439E-04  0.201E-02    0.37       1.0  T
   4   -311.8296786 -0.757938E-04  0.837E-03    0.38       1.0  T
   5   -311.8296835 -0.489070E-05  0.448E-03    0.37       1.7  T
   6   -311.8296869 -0.337715E-05  0.152E-03    0.37       5.0  T
   7   -311.8296874 -0.475609E-06  0.527E-04    0.37      14.3  T
   8   -311.8296874 -0.392889E-07  0.257E-04    0.37      29.4  T
     SCC iter.                  ...        0 min,  0.221 sec
     gradient                   ...        0 min,  0.094 sec
 * total energy  :  -307.1274229 Eh     change       -0.7460849E-03 Eh
   gradient norm :     0.0147307 Eh/α   predicted    -0.9062162E-03 (  21.46%)
   displ. norm   :     0.6816412 α      lambda       -0.9881859E-03
   maximum displ.:     0.2258744 α      in ANC's #12, #11, #13, ...

........................................................................
.............................. CYCLE   36 ..............................
........................................................................
   1   -311.8245800 -0.311825E+03  0.819E-02    0.36       0.0  T
   2   -311.8245949 -0.148544E-04  0.419E-02    0.37       1.0  T
   3   -311.8245477  0.471415E-04  0.159E-02    0.36       1.0  T
   4   -311.8245941 -0.463898E-04  0.732E-03    0.37       1.0  T
   5   -311.8246011 -0.695173E-05  0.340E-03    0.36       2.2  T
   6   -311.8246028 -0.172134E-05  0.992E-04    0.36       7.6  T
   7   -311.8246029 -0.162221E-06  0.384E-04    0.36      19.7  T
   8   -311.8246030 -0.214971E-07  0.186E-04    0.36      40.7  T
     SCC iter.                  ...        0 min,  0.220 sec
     gradient                   ...        0 min,  0.095 sec
 * total energy  :  -307.1281804 Eh     change       -0.7574894E-03 Eh
   gradient norm :     0.0109850 Eh/α   predicted    -0.7236684E-03 (  -4.46%)
   displ. norm   :     0.6204388 α      lambda       -0.1219183E-02
   maximum displ.:     0.2119144 α      in ANC's #12, #36, #23, ...

........................................................................
.............................. CYCLE   37 ..............................
........................................................................
   1   -311.8419825 -0.311842E+03  0.905E-02    0.36       0.0  T
   2   -311.8420022 -0.197056E-04  0.487E-02    0.36       1.0  T
   3   -311.8419507  0.515044E-04  0.177E-02    0.36       1.0  T
   4   -311.8420017 -0.509971E-04  0.785E-03    0.37       1.0  T
   5   -311.8420087 -0.698437E-05  0.392E-03    0.36       1.9  T
   6   -311.8420110 -0.234653E-05  0.159E-03    0.37       4.8  T
   7   -311.8420115 -0.489163E-06  0.581E-04    0.36      13.0  T
   8   -311.8420115 -0.385770E-07  0.315E-04    0.36      24.0  T
     SCC iter.                  ...        0 min,  0.222 sec
     gradient                   ...        0 min,  0.095 sec
 * total energy  :  -307.1285009 Eh     change       -0.3205232E-03 Eh
   gradient norm :     0.0204742 Eh/α   predicted    -0.8442526E-03 ( 163.40%)
   displ. norm   :     0.5598965 α      lambda       -0.1432217E-02
   maximum displ.:     0.1836870 α      in ANC's #12, #23, #11, ...

........................................................................
.............................. CYCLE   38 ..............................
........................................................................
   1   -311.8377109 -0.311838E+03  0.805E-02    0.37       0.0  T
   2   -311.8377305 -0.196112E-04  0.403E-02    0.37       1.0  T
   3   -311.8376974  0.331332E-04  0.155E-02    0.37       1.0  T
   4   -311.8377321 -0.347080E-04  0.717E-03    0.37       1.1  T
   5   -311.8377364 -0.426624E-05  0.382E-03    0.37       2.0  T
   6   -311.8377382 -0.183262E-05  0.175E-03    0.37       4.3  T
   7   -311.8377390 -0.741721E-06  0.420E-04    0.37      18.0  T
   8   -311.8377390 -0.123507E-07  0.258E-04    0.37      29.4  T
     SCC iter.                  ...        0 min,  0.227 sec
     gradient                   ...        0 min,  0.094 sec
 * total energy  :  -307.1293254 Eh     change       -0.8244666E-03 Eh
   gradient norm :     0.0140527 Eh/α   predicted    -0.9406098E-03 (  14.09%)
   displ. norm   :     0.6962713 α      lambda       -0.9537967E-03
   maximum displ.:     0.2389959 α      in ANC's #12, #11, #2, ...

........................................................................
.............................. CYCLE   39 ..............................
........................................................................
   1   -311.8246986 -0.311825E+03  0.987E-02    0.36       0.0  T
   2   -311.8247185 -0.198516E-04  0.505E-02    0.37       1.0  T
   3   -311.8246686  0.498808E-04  0.173E-02    0.36       1.0  T
   4   -311.8247179 -0.492543E-04  0.826E-03    0.37       1.0  T
   5   -311.8247250 -0.713969E-05  0.410E-03    0.36       1.8  T
   6   -311.8247282 -0.318421E-05  0.994E-04    0.36       7.6  T
   7   -311.8247283 -0.144809E-06  0.441E-04    0.36      17.1  T
   8   -311.8247284 -0.188350E-07  0.237E-04    0.36      31.8  T
     SCC iter.                  ...        0 min,  0.230 sec
     gradient                   ...        0 min,  0.094 sec
 * total energy  :  -307.1298661 Eh     change       -0.5407318E-03 Eh
   gradient norm :     0.0126376 Eh/α   predicted    -0.7080956E-03 (  30.95%)
   displ. norm   :     0.6212775 α      lambda       -0.7681222E-03
   maximum displ.:     0.2333696 α      in ANC's #12, #2, #11, ...

........................................................................
.............................. CYCLE   40 ..............................
........................................................................
   1   -311.8272191 -0.311827E+03  0.667E-02    0.36       0.0  T
   2   -311.8272279 -0.876688E-05  0.344E-02    0.37       1.0  T
   3   -311.8271895  0.384026E-04  0.142E-02    0.36       1.0  T
   4   -311.8272281 -0.386374E-04  0.599E-03    0.37       1.3  T
   5   -311.8272322 -0.402614E-05  0.307E-03    0.36       2.5  T
   6   -311.8272339 -0.169837E-05  0.867E-04    0.37       8.7  T
   7   -311.8272340 -0.128764E-06  0.331E-04    0.36      22.8  T
   8   -311.8272340 -0.143103E-07  0.176E-04    0.36      43.0  T
     SCC iter.                  ...        0 min,  0.229 sec
     gradient                   ...        0 min,  0.095 sec
 * total energy  :  -307.1305232 Eh     change       -0.6570752E-03 Eh
   gradient norm :     0.0082142 Eh/α   predicted    -0.5323021E-03 ( -18.99%)
   displ. norm   :     0.6320165 α      lambda       -0.9681471E-03
   maximum displ.:     0.2596873 α      in ANC's #12, #2, #4, ...

........................................................................
.............................. CYCLE   41 ..............................
........................................................................
   1   -311.8415822 -0.311842E+03  0.757E-02    0.36       0.0  T
   2   -311.8415926 -0.103349E-04  0.407E-02    0.37       1.0  T
   3   -311.8415506  0.419431E-04  0.150E-02    0.36       1.0  T
   4   -311.8415918 -0.411548E-04  0.659E-03    0.37       1.1  T
   5   -311.8415968 -0.500546E-05  0.333E-03    0.37       2.3  T
   6   -311.8415989 -0.213582E-05  0.956E-04    0.37       7.9  T
   7   -311.8415991 -0.138729E-06  0.418E-04    0.37      18.1  T
   8   -311.8415991 -0.139243E-07  0.244E-04    0.37      31.0  T
     SCC iter.                  ...        0 min,  0.233 sec
     gradient                   ...        0 min,  0.098 sec
 * total energy  :  -307.1311417 Eh     change       -0.6185308E-03 Eh
   gradient norm :     0.0100529 Eh/α   predicted    -0.6774366E-03 (   9.52%)
   displ. norm   :     0.8223438 α      lambda       -0.8588172E-03
   maximum displ.:     0.3211768 α      in ANC's #12, #2, #11, ...

........................................................................
.............................. CYCLE   42 ..............................
........................................................................
   1   -311.8378702 -0.311838E+03  0.990E-02    0.37       0.0  T
   2   -311.8378887 -0.185387E-04  0.492E-02    0.37       1.0  T
   3   -311.8378224  0.662720E-04  0.188E-02    0.37       1.0  T
   4   -311.8378907 -0.682643E-04  0.817E-03    0.37       1.0  T
   5   -311.8378965 -0.586351E-05  0.430E-03    0.37       1.8  T
   6   -311.8379001 -0.355505E-05  0.108E-03    0.37       7.0  T
   7   -311.8379003 -0.208513E-06  0.393E-04    0.37      19.3  T
   8   -311.8379003 -0.201687E-07  0.204E-04    0.37      37.1  T
     SCC iter.                  ...        0 min,  0.241 sec
     gradient                   ...        0 min,  0.097 sec
 * total energy  :  -307.1318761 Eh     change       -0.7343474E-03 Eh
   gradient norm :     0.0069543 Eh/α   predicted    -0.7198034E-03 (  -1.98%)
   displ. norm   :     0.8128796 α      lambda       -0.7730062E-03
   maximum displ.:     0.3366614 α      in ANC's #12, #2, #11, ...
 * RMSD in coord.:     0.9395222 α      energy gain  -0.1589707E-01 Eh

generating ANC from model Hessian ...
Using Lindh-Hessian (1995)
 Shifting diagonal of input Hessian by   1.001533755743151E-002
 Lowest  eigenvalues of input Hessian
    0.010000    0.000000    0.000000    0.000000    0.000000    0.000000
    0.000000    0.010019    0.010027    0.010034    0.010049    0.010065
    0.010077    0.010090    0.010103    0.010154    0.010171    0.010199
 Highest eigenvalues
    2.272486    2.287153    2.610873    2.611042    2.639597    2.650320
 

........................................................................
.............................. CYCLE   43 ..............................
........................................................................
   1   -311.8339307 -0.311834E+03  0.956E-02    0.37       0.0  T
   2   -311.8339474 -0.167756E-04  0.484E-02    0.37       1.0  T
   3   -311.8338859  0.615482E-04  0.179E-02    0.37       1.0  T
   4   -311.8339483 -0.624184E-04  0.790E-03    0.37       1.0  T
   5   -311.8339549 -0.659320E-05  0.400E-03    0.37       1.9  T
   6   -311.8339580 -0.305308E-05  0.102E-03    0.37       7.4  T
   7   -311.8339581 -0.164928E-06  0.402E-04    0.37      18.8  T
   8   -311.8339581 -0.187689E-07  0.215E-04    0.37      35.1  T
     SCC iter.                  ...        0 min,  0.232 sec
     gradient                   ...        0 min,  0.094 sec
 * total energy  :  -307.1325098 Eh     change       -0.6337298E-03 Eh
   gradient norm :     0.0085777 Eh/α   predicted     0.0000000E+00 (-100.00%)
   displ. norm   :     0.1166772 α      lambda       -0.3124610E-03
   maximum displ.:     0.0351536 α      in ANC's #8, #7, #11, ...

........................................................................
.............................. CYCLE   44 ..............................
........................................................................
   1   -311.8380931 -0.311838E+03  0.247E-02    0.37       0.0  T
   2   -311.8380946 -0.151909E-05  0.132E-02    0.37       1.0  T
   3   -311.8380926  0.208629E-05  0.410E-03    0.37       1.8  T
   4   -311.8380950 -0.245194E-05  0.170E-03    0.37       4.4  T
   5   -311.8380951 -0.133594E-06  0.916E-04    0.37       8.3  T
   6   -311.8380953 -0.138349E-06  0.344E-04    0.37      22.0  T
     SCC iter.                  ...        0 min,  0.180 sec
     gradient                   ...        0 min,  0.095 sec
 * total energy  :  -307.1327490 Eh     change       -0.2391423E-03 Eh
   gradient norm :     0.0033066 Eh/α   predicted    -0.1583730E-03 ( -33.77%)
   displ. norm   :     0.3351618 α      lambda       -0.5322021E-03
   maximum displ.:     0.1002479 α      in ANC's #8, #7, #11, ...

........................................................................
.............................. CYCLE   45 ..............................
........................................................................
   1   -311.8427722 -0.311843E+03  0.676E-02    0.37       0.0  T
   2   -311.8427822 -0.100700E-04  0.358E-02    0.37       1.0  T
   3   -311.8427702  0.120101E-04  0.957E-03    0.37       1.0  T
   4   -311.8427836 -0.133719E-04  0.456E-03    0.37       1.7  T
   5   -311.8427851 -0.150178E-05  0.247E-03    0.37       3.1  T
   6   -311.8427864 -0.126397E-05  0.731E-04    0.37      10.3  T
   7   -311.8427865 -0.977813E-07  0.334E-04    0.37      22.7  T
   8   -311.8427865 -0.154956E-07  0.188E-04    0.37      40.3  T
     SCC iter.                  ...        0 min,  0.237 sec
     gradient                   ...        0 min,  0.094 sec
 * total energy  :  -307.1330013 Eh     change       -0.2523608E-03 Eh
   gradient norm :     0.0092945 Eh/α   predicted    -0.2960238E-03 (  17.30%)
   displ. norm   :     0.4001747 α      lambda       -0.6158625E-03
   maximum displ.:     0.1257197 α      in ANC's #8, #7, #11, ...

........................................................................
.............................. CYCLE   46 ..............................
........................................................................
   1   -311.8424926 -0.311842E+03  0.916E-02    0.36       0.0  T
   2   -311.8425110 -0.184167E-04  0.488E-02    0.37       1.0  T
   3   -311.8425022  0.880551E-05  0.995E-03    0.37       1.0  T
   4   -311.8425141 -0.118468E-04  0.524E-03    0.37       1.4  T
   5   -311.8425166 -0.253100E-05  0.254E-03    0.37       3.0  T
   6   -311.8425181 -0.144341E-05  0.743E-04    0.37      10.2  T
   7   -311.8425182 -0.994968E-07  0.335E-04    0.37      22.5  T
   8   -311.8425182 -0.124891E-07  0.204E-04    0.37      37.1  T
     SCC iter.                  ...        0 min,  0.219 sec
     gradient                   ...        0 min,  0.094 sec
 * total energy  :  -307.1332917 Eh     change       -0.2904127E-03 Eh
   gradient norm :     0.0125755 Eh/α   predicted    -0.3572577E-03 (  23.02%)
   displ. norm   :     0.3538146 α      lambda       -0.6457234E-03
   maximum displ.:     0.1150090 α      in ANC's #8, #7, #11, ...

........................................................................
.............................. CYCLE   47 ..............................
........................................................................
   1   -311.8389813 -0.311839E+03  0.839E-02    0.36       0.0  T
   2   -311.8389954 -0.140800E-04  0.449E-02    0.37       1.0  T
   3   -311.8389890  0.641282E-05  0.884E-03    0.37       1.0  T
   4   -311.8389973 -0.831372E-05  0.478E-03    0.37       1.6  T
   5   -311.8389997 -0.235177E-05  0.224E-03    0.37       3.4  T
   6   -311.8390008 -0.110182E-05  0.752E-04    0.37      10.0  T
   7   -311.8390009 -0.110508E-06  0.299E-04    0.37      25.3  T
   8   -311.8390009 -0.748605E-08  0.173E-04    0.37      43.7  T
     SCC iter.                  ...        0 min,  0.225 sec
     gradient                   ...        0 min,  0.094 sec
 * total energy  :  -307.1336333 Eh     change       -0.3415305E-03 Eh
   gradient norm :     0.0100314 Eh/α   predicted    -0.3632792E-03 (   6.37%)
   displ. norm   :     0.3902795 α      lambda       -0.7702997E-03
   maximum displ.:     0.1294296 α      in ANC's #7, #8, #11, ...

........................................................................
.............................. CYCLE   48 ..............................
........................................................................
   1   -311.8375153 -0.311838E+03  0.834E-02    0.36       0.0  T
   2   -311.8375296 -0.142686E-04  0.444E-02    0.37       1.0  T
   3   -311.8375258  0.382614E-05  0.847E-03    0.36       1.0  T
   4   -311.8375311 -0.532275E-05  0.485E-03    0.37       1.6  T
   5   -311.8375329 -0.186627E-05  0.259E-03    0.37       2.9  T
   6   -311.8375346 -0.160688E-05  0.793E-04    0.37       9.5  T
   7   -311.8375347 -0.123442E-06  0.322E-04    0.37      23.5  T
   8   -311.8375347 -0.529087E-08  0.199E-04    0.37      37.9  T
     SCC iter.                  ...        0 min,  0.228 sec
     gradient                   ...        0 min,  0.094 sec
 * total energy  :  -307.1340149 Eh     change       -0.3816600E-03 Eh
   gradient norm :     0.0091952 Eh/α   predicted    -0.4438151E-03 (  16.29%)
   displ. norm   :     0.4648575 α      lambda       -0.1085489E-02
   maximum displ.:     0.1643731 α      in ANC's #8, #11, #7, ...

........................................................................
.............................. CYCLE   49 ..............................
........................................................................
   1   -311.8366169 -0.311837E+03  0.135E-01    0.36       0.0  T
   2   -311.8366537 -0.368116E-04  0.733E-02    0.37       1.0  T
   3   -311.8366481  0.562353E-05  0.118E-02    0.36       1.0  T
   4   -311.8366629 -0.148913E-04  0.612E-03    0.37       1.2  T
   5   -311.8366659 -0.299713E-05  0.309E-03    0.37       2.4  T
   6   -311.8366679 -0.198542E-05  0.936E-04    0.37       8.1  T
   7   -311.8366681 -0.148126E-06  0.490E-04    0.37      15.4  T
   8   -311.8366681 -0.281389E-07  0.250E-04    0.37      30.2  T
     SCC iter.                  ...        0 min,  0.227 sec
     gradient                   ...        0 min,  0.094 sec
 * total energy  :  -307.1341996 Eh     change       -0.1847177E-03 Eh
   gradient norm :     0.0145832 Eh/α   predicted    -0.6600279E-03 ( 257.32%)
   displ. norm   :     0.3324156 α      lambda       -0.8622927E-03
   maximum displ.:     0.1067545 α      in ANC's #8, #7, #11, ...

........................................................................
.............................. CYCLE   50 ..............................
........................................................................
   1   -311.8355321 -0.311836E+03  0.710E-02    0.36       0.0  T
   2   -311.8355432 -0.110713E-04  0.376E-02    0.37       1.0  T
   3   -311.8355402  0.294384E-05  0.748E-03    0.36       1.0  T
   4   -311.8355448 -0.452132E-05  0.414E-03    0.37       1.8  T
   5   -311.8355461 -0.130301E-05  0.199E-03    0.37       3.8  T
   6   -311.8355469 -0.796509E-06  0.770E-04    0.37       9.8  T
   7   -311.8355470 -0.141132E-06  0.280E-04    0.37      27.0  T
     SCC iter.                  ...        0 min,  0.201 sec
     gradient                   ...        0 min,  0.094 sec
 * total energy  :  -307.1347888 Eh     change       -0.5891308E-03 Eh
   gradient norm :     0.0080492 Eh/α   predicted    -0.4787906E-03 ( -18.73%)
   displ. norm   :     0.4235357 α      lambda       -0.6135084E-03
   maximum displ.:     0.1571651 α      in ANC's #8, #7, #11, ...

........................................................................
.............................. CYCLE   51 ..............................
........................................................................
   1   -311.8396104 -0.311840E+03  0.619E-02    0.36       0.0  T
   2   -311.8396189 -0.857088E-05  0.320E-02    0.36       1.0  T
   3   -311.8396144  0.451339E-05  0.803E-03    0.36       1.0  T
   4   -311.8396202 -0.574554E-05  0.414E-03    0.37       1.8  T
   5   -311.8396209 -0.755250E-06  0.211E-03    0.36       3.6  T
   6   -311.8396218 -0.868139E-06  0.677E-04    0.36      11.2  T
   7   -311.8396219 -0.983226E-07  0.294E-04    0.36      25.7  T
     SCC iter.                  ...        0 min,  0.202 sec
     gradient                   ...        0 min,  0.093 sec
 * total energy  :  -307.1352409 Eh     change       -0.4520994E-03 Eh
   gradient norm :     0.0065338 Eh/α   predicted    -0.3617904E-03 ( -19.98%)
   displ. norm   :     0.7582972 α      lambda       -0.6620534E-03
   maximum displ.:     0.2770863 α      in ANC's #8, #7, #11, ...

........................................................................
.............................. CYCLE   52 ..............................
........................................................................
   1   -311.8379772 -0.311838E+03  0.985E-02    0.36       0.0  T
   2   -311.8379980 -0.208508E-04  0.488E-02    0.36       1.0  T
   3   -311.8379850  0.130195E-04  0.128E-02    0.36       1.0  T
   4   -311.8379979 -0.129208E-04  0.729E-03    0.37       1.0  T
   5   -311.8380001 -0.214164E-05  0.412E-03    0.36       1.8  T
   6   -311.8380041 -0.408341E-05  0.110E-03    0.36       6.8  T
   7   -311.8380044 -0.286994E-06  0.376E-04    0.36      20.1  T
   8   -311.8380045 -0.206562E-07  0.163E-04    0.36      46.3  T
     SCC iter.                  ...        0 min,  0.232 sec
     gradient                   ...        0 min,  0.093 sec
 * total energy  :  -307.1358382 Eh     change       -0.5973695E-03 Eh
   gradient norm :     0.0076946 Eh/α   predicted    -0.5213746E-03 ( -12.72%)
   displ. norm   :     0.7667038 α      lambda       -0.8591140E-03
   maximum displ.:     0.2888319 α      in ANC's #8, #7, #11, ...

........................................................................
.............................. CYCLE   53 ..............................
........................................................................
   1   -311.8443068 -0.311844E+03  0.931E-02    0.36       0.0  T
   2   -311.8443271 -0.202695E-04  0.464E-02    0.36       1.0  T
   3   -311.8443104  0.166340E-04  0.133E-02    0.36       1.0  T
   4   -311.8443293 -0.188490E-04  0.669E-03    0.37       1.1  T
   5   -311.8443298 -0.559287E-06  0.415E-03    0.36       1.8  T
   6   -311.8443339 -0.407055E-05  0.105E-03    0.36       7.2  T
   7   -311.8443341 -0.237644E-06  0.408E-04    0.36      18.5  T
   8   -311.8443342 -0.276231E-07  0.162E-04    0.36      46.6  T
     SCC iter.                  ...        0 min,  0.229 sec
     gradient                   ...        0 min,  0.098 sec
 * total energy  :  -307.1365770 Eh     change       -0.7387589E-03 Eh
   gradient norm :     0.0077815 Eh/α   predicted    -0.6820665E-03 (  -7.67%)
   displ. norm   :     0.8426854 α      lambda       -0.8125007E-03
   maximum displ.:     0.3179387 α      in ANC's #8, #7, #11, ...

........................................................................
.............................. CYCLE   54 ..............................
........................................................................
   1   -311.8400461 -0.311840E+03  0.109E-01    0.36       0.0  T
   2   -311.8400737 -0.276177E-04  0.543E-02    0.37       1.0  T
   3   -311.8400457  0.279273E-04  0.162E-02    0.36       1.0  T
   4   -311.8400755 -0.297301E-04  0.816E-03    0.37       1.0  T
   5   -311.8400777 -0.225941E-05  0.492E-03    0.36       1.5  T
   6   -311.8400835 -0.578166E-05  0.128E-03    0.36       5.9  T
   7   -311.8400839 -0.342029E-06  0.493E-04    0.36      15.3  T
   8   -311.8400839 -0.354650E-07  0.205E-04    0.36      36.8  T
     SCC iter.                  ...        0 min,  0.239 sec
     gradient                   ...        0 min,  0.098 sec
 * total energy  :  -307.1373003 Eh     change       -0.7232762E-03 Eh
   gradient norm :     0.0077755 Eh/α   predicted    -0.6947349E-03 (  -3.95%)
   displ. norm   :     0.7661777 α      lambda       -0.8850328E-03
   maximum displ.:     0.2981063 α      in ANC's #7, #8, #5, ...

........................................................................
.............................. CYCLE   55 ..............................
........................................................................
   1   -311.8429238 -0.311843E+03  0.946E-02    0.36       0.0  T
   2   -311.8429455 -0.217348E-04  0.477E-02    0.37       1.0  T
   3   -311.8429094  0.361693E-04  0.162E-02    0.36       1.0  T
   4   -311.8429475 -0.381113E-04  0.736E-03    0.37       1.0  T
   5   -311.8429495 -0.207004E-05  0.474E-03    0.37       1.6  T
   6   -311.8429551 -0.553435E-05  0.111E-03    0.37       6.8  T
   7   -311.8429553 -0.195487E-06  0.474E-04    0.37      16.0  T
   8   -311.8429553 -0.290752E-07  0.205E-04    0.37      36.9  T
     SCC iter.                  ...        0 min,  0.240 sec
     gradient                   ...        0 min,  0.098 sec
 * total energy  :  -307.1379940 Eh     change       -0.6937104E-03 Eh
   gradient norm :     0.0084275 Eh/α   predicted    -0.7022869E-03 (   1.24%)
   displ. norm   :     0.8373554 α      lambda       -0.8809792E-03
   maximum displ.:     0.3210705 α      in ANC's #7, #8, #5, ...

........................................................................
.............................. CYCLE   56 ..............................
........................................................................
   1   -311.8396229 -0.311840E+03  0.988E-02    0.37       0.0  T
   2   -311.8396476 -0.246948E-04  0.485E-02    0.37       1.0  T
   3   -311.8396133  0.342475E-04  0.159E-02    0.37       1.0  T
   4   -311.8396476 -0.342768E-04  0.797E-03    0.37       1.0  T
   5   -311.8396512 -0.356333E-05  0.493E-03    0.37       1.5  T
   6   -311.8396568 -0.565620E-05  0.134E-03    0.37       5.6  T
   7   -311.8396572 -0.359547E-06  0.407E-04    0.37      18.6  T
   8   -311.8396572 -0.218968E-07  0.181E-04    0.37      41.8  T
     SCC iter.                  ...        0 min,  0.248 sec
     gradient                   ...        0 min,  0.096 sec
 * total energy  :  -307.1387454 Eh     change       -0.7514091E-03 Eh
   gradient norm :     0.0084020 Eh/α   predicted    -0.7493464E-03 (  -0.27%)
   displ. norm   :     0.7360997 α      lambda       -0.8428397E-03
   maximum displ.:     0.2909510 α      in ANC's #7, #8, #5, ...

........................................................................
.............................. CYCLE   57 ..............................
........................................................................
   1   -311.8404605 -0.311840E+03  0.831E-02    0.37       0.0  T
   2   -311.8404781 -0.175811E-04  0.415E-02    0.37       1.0  T
   3   -311.8404429  0.351928E-04  0.149E-02    0.37       1.0  T
   4   -311.8404786 -0.356827E-04  0.698E-03    0.38       1.1  T
   5   -311.8404819 -0.329151E-05  0.431E-03    0.37       1.8  T
   6   -311.8404861 -0.421720E-05  0.121E-03    0.37       6.3  T
   7   -311.8404864 -0.277213E-06  0.446E-04    0.37      16.9  T
   8   -311.8404864 -0.303335E-07  0.208E-04    0.37      36.4  T
     SCC iter.                  ...        0 min,  0.227 sec
     gradient                   ...        0 min,  0.094 sec
 * total energy  :  -307.1394597 Eh     change       -0.7143352E-03 Eh
   gradient norm :     0.0108340 Eh/α   predicted    -0.6497628E-03 (  -9.04%)
   displ. norm   :     0.7703681 α      lambda       -0.8027841E-03
   maximum displ.:     0.3112327 α      in ANC's #7, #5, #8, ...

[...]
    91   6 C    3.993 --    88 C    1.014    92 C    0.991   161 H    0.970
                           160 H    0.969
    92   6 C    3.989 --    91 C    0.991   162 H    0.987   163 H    0.985
                           164 H    0.983
    93   6 C    3.930 --    94 C    1.584    82 C    1.190   165 H    0.935
    94   6 C    3.929 --    93 C    1.584   103 C    1.123    95 C    1.025
    95   6 C    3.922 --    96 O    1.751    97 C    1.029    94 C    1.025
    96   8 O    2.043 --    95 C    1.751
    97   6 C    3.972 --    98 C    1.378   102 C    1.310    95 C    1.029
    98   6 C    3.982 --    99 C    1.447    97 C    1.378   166 H    0.964
    99   6 C    3.955 --    98 C    1.447   100 C    1.321   115 C    0.992
   100   6 C    3.967 --   101 C    1.455    99 C    1.321   109 C    0.993
   101   6 C    3.977 --   100 C    1.455   102 C    1.360   167 H    0.958
   102   6 C    3.980 --   101 C    1.360    97 C    1.310   103 C    1.093
   103   6 C    3.970 --   104 C    1.491    94 C    1.123   102 C    1.093
   104   6 C    3.952 --   103 C    1.491   105 C    1.097   107 C    1.095
   105   6 C    3.945 --   106 N    2.753   104 C    1.097
   106   7 N    2.966 --   105 C    2.753
   107   6 C    3.945 --   108 N    2.762   104 C    1.095
   108   7 N    2.969 --   107 C    2.762
   109   6 C    3.985 --   100 C    0.993   115 C    0.975   168 H    0.962
                           110 C    0.951
   110   6 C    3.989 --   111 C    1.004   114 C    0.989   169 H    0.971
                           109 C    0.951
   111   6 C    3.982 --   112 C    1.923   110 C    1.004   170 H    0.971
   112   6 C    3.982 --   111 C    1.923   113 C    1.004   171 H    0.971
   113   6 C    3.989 --   112 C    1.004   114 C    0.989   172 H    0.971
                           115 C    0.951
   114   6 C    3.994 --   113 C    0.989   110 C    0.989   174 H    0.978
                           173 H    0.974
   115   6 C    3.984 --    99 C    0.992   109 C    0.975   175 H    0.962
                           113 C    0.951
   116   1 H    0.990 --     1 C    0.943
   117   1 H    0.996 --     6 C    0.963
   118   1 H    0.996 --     9 C    0.959
   119   1 H    0.996 --    17 C    0.960
   120   1 H    0.998 --    18 C    0.972
   121   1 H    0.999 --    19 C    0.971
   122   1 H    0.999 --    20 C    0.971
   123   1 H    0.998 --    21 C    0.972
   124   1 H    0.996 --    22 C    0.976
   125   1 H    0.998 --    22 C    0.978
   126   1 H    0.996 --    23 C    0.960
   127   1 H    0.998 --    39 C    0.966
   128   1 H    0.997 --    40 C    0.967
   129   1 H    0.997 --    43 C    0.982
   130   1 H    0.996 --    43 C    0.983
   131   1 H    0.992 --    43 C    0.969
   132   1 H    0.997 --    44 C    0.965
   133   1 H    0.998 --    45 C    0.965
   134   1 H    0.998 --    47 C    0.966
   135   1 H    0.997 --    48 C    0.967
   136   1 H    0.995 --    51 C    0.979
   137   1 H    0.996 --    51 C    0.982
   138   1 H    0.996 --    51 C    0.982
   139   1 H    0.997 --    52 C    0.964
   140   1 H    0.998 --    53 C    0.965
   141   1 H    0.998 --    60 C    0.967
   142   1 H    0.997 --    61 C    0.967
   143   1 H    0.996 --    64 C    0.980
   144   1 H    0.992 --    64 C    0.964
   145   1 H    0.996 --    64 C    0.983
   146   1 H    0.996 --    65 C    0.963
   147   1 H    0.997 --    66 C    0.966
   148   1 H    0.997 --    68 C    0.966
   149   1 H    0.997 --    69 C    0.967
   150   1 H    0.995 --    72 C    0.979
   151   1 H    0.996 --    72 C    0.982
   152   1 H    0.996 --    72 C    0.982
   153   1 H    0.998 --    73 C    0.965
   154   1 H    0.998 --    74 C    0.966
   155   1 H    0.994 --    86 C    0.951
   156   1 H    0.993 --    86 C    0.952
   157   1 H    0.998 --    87 C    0.987
   158   1 H    0.995 --    87 C    0.981
   159   1 H    0.998 --    87 C    0.986
   160   1 H    0.996 --    91 C    0.969
   161   1 H    0.997 --    91 C    0.970
   162   1 H    0.999 --    92 C    0.987
   163   1 H    0.998 --    92 C    0.985
   164   1 H    0.996 --    92 C    0.983
   165   1 H    0.989 --    93 C    0.935
   166   1 H    0.997 --    98 C    0.964
   167   1 H    0.996 --   101 C    0.958
   168   1 H    0.997 --   109 C    0.962
   169   1 H    0.998 --   110 C    0.971
   170   1 H    0.998 --   111 C    0.971
   171   1 H    0.999 --   112 C    0.971
   172   1 H    0.999 --   113 C    0.971
   173   1 H    0.999 --   114 C    0.974
   174   1 H    0.998 --   114 C    0.978
   175   1 H    0.996 --   115 C    0.962
 ---------------------------------------------------------------------------

Topologies differ in bond orders
Writing corrected topology to xtbtopo.mol

molecular dipole:
                 x           y           z       tot (Debye)
 q only:       -0.293      -1.541       1.091
   full:       -1.035      -2.002       1.932       7.544
molecular quadrupole (traceless):
                xx          xy          yy          xz          yz          zz
 q only:        0.923      78.662     -30.804     -35.945      45.962      29.881
  q+dip:      -15.007      80.949     -27.243     -41.863      58.952      42.250
   full:      -16.401      84.465     -26.100     -44.560      65.325      42.501

           -------------------------------------------------
          |                Geometry Summary                 |
           -------------------------------------------------

      molecular mass/u    :     1621.9117318
   center of mass at/Å    :        0.1908465       0.3164155      -0.6069983
  moments of inertia/u·Å² :        0.2826210E+05   0.9424036E+05   0.1055478E+06
rotational constants/cm⁻¹ :        0.5964749E-03   0.1788791E-03   0.1597157E-03

 * 165 selected distances

     #   Z          #   Z                                           value/Å
     1   6 C        2   6 C                                       1.3532940
     3   6 C        4   8 O                                       1.2112413
     5   6 C        6   6 C                                       1.3934154
     6   6 C        7   6 C                                       1.3733925
     7   6 C        8   6 C                                       1.4026109
     8   6 C        9   6 C                                       1.3744005
     5   6 C       10   6 C                                       1.4110997
     9   6 C       10   6 C                                       1.3987786
    11   6 C       12   6 C                                       1.3684858
    13   6 C       14   7 N                                       1.1477716
    15   6 C       16   7 N                                       1.1480913
     8   6 C       17   6 C                                       1.5079436
    17   6 C       18   6 C                                       1.5491327
    19   6 C       20   6 C                                       1.3263227
    18   6 C       22   6 C                                       1.5372135
    21   6 C       22   6 C                                       1.5369531
     7   6 C       23   6 C                                       1.5075619
    17   6 C       23   6 C                                       1.5613184
    21   6 C       23   6 C                                       1.5488839
    24   6 C       25   6 C                                       1.3813534
    25   6 C       26   9 F                                       1.3403655
    25   6 C       27   6 C                                       1.4081927
    27   6 C       29   6 C                                       1.3854798
    29   6 C       30   6 C                                       1.4220650
    24   6 C       31   6 C                                       1.4171325
    30   6 C       31   6 C                                       1.4384091
    31   6 C       32   7 N                                       1.3175687
    32   7 N       33   8 O                                       1.3326388
    30   6 C       34   7 N                                       1.3170190
    33   8 O       34   7 N                                       1.3289789
    29   6 C       35   6 C                                       1.4319471
    35   6 C       36   6 C                                       1.3979408
    36   6 C       37   7 N                                       1.3737205
    37   7 N       38   6 C                                       1.4053320
    38   6 C       39   6 C                                       1.3955807
    39   6 C       40   6 C                                       1.3758302
    40   6 C       41   6 C                                       1.3950445
    41   6 C       44   6 C                                       1.3896147
    38   6 C       45   6 C                                       1.3930640
    44   6 C       45   6 C                                       1.3816488
    37   7 N       46   6 C                                       1.4011855
    46   6 C       47   6 C                                       1.3952659
    47   6 C       48   6 C                                       1.3755142
    48   6 C       49   6 C                                       1.3948469
    49   6 C       52   6 C                                       1.3885617
    46   6 C       53   6 C                                       1.3912151
    52   6 C       53   6 C                                       1.3813100
    36   6 C       54   6 C                                       1.4172715
    54   6 C       55  16 S                                       1.7386672
    55  16 S       56   6 C                                       1.7518361
    56   6 C       57   6 C                                       1.3973792
    57   6 C       58   7 N                                       1.3704000
    58   7 N       59   6 C                                       1.4083868
    59   6 C       60   6 C                                       1.3954204
    60   6 C       61   6 C                                       1.3750757
    61   6 C       62   6 C                                       1.3954387
    62   6 C       65   6 C                                       1.3883654
    59   6 C       66   6 C                                       1.3909313
    65   6 C       66   6 C                                       1.3812630
    58   7 N       67   6 C                                       1.4003030
    67   6 C       68   6 C                                       1.3953232
    68   6 C       69   6 C                                       1.3761440
    69   6 C       70   6 C                                       1.3942309
    70   6 C       73   6 C                                       1.3894387
    67   6 C       74   6 C                                       1.3917577
    73   6 C       74   6 C                                       1.3802715
    54   6 C       75   6 C                                       1.3888299
    57   6 C       75   6 C                                       1.4147082
    35   6 C       76  16 S                                       1.7540581 (max)
    75   6 C       76  16 S                                       1.7260246
    56   6 C       77   6 C                                       1.4221664
    77   6 C       78   6 C                                       1.3931086
    78   6 C       80   6 C                                       1.3905926
    80   6 C       81   9 F                                       1.3404732
    80   6 C       82   6 C                                       1.3934739
    82   6 C       83   6 C                                       1.4291623
    83   6 C       84   7 N                                       1.3420440
    84   7 N       85   6 C                                       1.3107153
    86   6 C       87   6 C                                       1.5227485
    85   6 C       88   6 C                                       1.4257572
    88   6 C       89   7 N                                       1.3111397
    77   6 C       90   6 C                                       1.4242039
    83   6 C       90   6 C                                       1.4111849
    89   7 N       90   6 C                                       1.3397792
    91   6 C       92   6 C                                       1.5301475
    82   6 C       93   6 C                                       1.4280578
    93   6 C       94   6 C                                       1.3598947
    95   6 C       96   8 O                                       1.2146654
    97   6 C       98   6 C                                       1.3934977
    98   6 C       99   6 C                                       1.3737262
    99   6 C      100   6 C                                       1.4016601
   100   6 C      101   6 C                                       1.3741504
    97   6 C      102   6 C                                       1.4097214
   101   6 C      102   6 C                                       1.3991191
   103   6 C      104   6 C                                       1.3704247
   105   6 C      106   7 N                                       1.1489379
   107   6 C      108   7 N                                       1.1482496
   100   6 C      109   6 C                                       1.5083599
   109   6 C      110   6 C                                       1.5436930
   111   6 C      112   6 C                                       1.3269155
   110   6 C      114   6 C                                       1.5342956
   113   6 C      114   6 C                                       1.5341686
    99   6 C      115   6 C                                       1.5083623
   109   6 C      115   6 C                                       1.5624579
   113   6 C      115   6 C                                       1.5438722
     1   6 C      116   1 H                                       1.0828046
     6   6 C      117   1 H                                       1.0786920
     9   6 C      118   1 H                                       1.0774642
    17   6 C      119   1 H                                       1.0880452
    18   6 C      120   1 H                                       1.0865760
    19   6 C      121   1 H                                       1.0742494
    20   6 C      122   1 H                                       1.0742363
    21   6 C      123   1 H                                       1.0867719
    22   6 C      124   1 H                                       1.0888513
    22   6 C      125   1 H                                       1.0891041
    23   6 C      126   1 H                                       1.0881542
    39   6 C      127   1 H                                       1.0796853
    40   6 C      128   1 H                                       1.0788554
    43   6 C      129   1 H                                       1.0867085
    43   6 C      130   1 H                                       1.0861894
    43   6 C      131   1 H                                       1.0864029
    44   6 C      132   1 H                                       1.0781997
    45   6 C      133   1 H                                       1.0794291
    47   6 C      134   1 H                                       1.0796458
    48   6 C      135   1 H                                       1.0790615
    51   6 C      136   1 H                                       1.0855318
    51   6 C      137   1 H                                       1.0859294
    51   6 C      138   1 H                                       1.0860840
    52   6 C      139   1 H                                       1.0778425
    53   6 C      140   1 H                                       1.0788407
    60   6 C      141   1 H                                       1.0798543
    61   6 C      142   1 H                                       1.0792880
    64   6 C      143   1 H                                       1.0856901
    64   6 C      144   1 H                                       1.0863600
    64   6 C      145   1 H                                       1.0864015
    65   6 C      146   1 H                                       1.0763941
    66   6 C      147   1 H                                       1.0796920
    68   6 C      148   1 H                                       1.0790818
    69   6 C      149   1 H                                       1.0789132
    72   6 C      150   1 H                                       1.0855823
    72   6 C      151   1 H                                       1.0861547
    72   6 C      152   1 H                                       1.0859477
    73   6 C      153   1 H                                       1.0777919
    74   6 C      154   1 H                                       1.0800009
    86   6 C      155   1 H                                       1.0944909
    86   6 C      156   1 H                                       1.0934051
    87   6 C      157   1 H                                       1.0869153
    87   6 C      158   1 H                                       1.0860681
    87   6 C      159   1 H                                       1.0864263
    91   6 C      160   1 H                                       1.0904059
    91   6 C      161   1 H                                       1.0895378
    92   6 C      162   1 H                                       1.0878822
    92   6 C      163   1 H                                       1.0871622
    92   6 C      164   1 H                                       1.0863366
    93   6 C      165   1 H                                       1.0819640
    98   6 C      166   1 H                                       1.0789824
   101   6 C      167   1 H                                       1.0769781
   109   6 C      168   1 H                                       1.0881686
   110   6 C      169   1 H                                       1.0865030
   111   6 C      170   1 H                                       1.0741341 (min)
   112   6 C      171   1 H                                       1.0742515
   113   6 C      172   1 H                                       1.0867376
   114   6 C      173   1 H                                       1.0883859
   114   6 C      174   1 H                                       1.0887365
   115   6 C      175   1 H                                       1.0884598

 * 7 distinct bonds (by element types)

   Z      Z             #   av. dist./Å        max./Å        min./Å
   1 H    6 C          60     1.0835407     1.0944909     1.0741341
   6 C    6 C          79     1.4212354     1.5624579     1.3263227
   6 C    7 N          16     1.3056652     1.4083868     1.1477716
   6 C    8 O           2     1.2129534     1.2146654     1.2112413
   7 N    8 O           2     1.3308088     1.3326388     1.3289789
   6 C    9 F           2     1.3404193     1.3404732     1.3403655
   6 C   16 S           4     1.7426465     1.7540581     1.7260246


optimized geometry written to: xtbopt.mol


           -------------------------------------------------
          | TOTAL ENERGY             -307.188061036764 Eh   |
          | GRADIENT NORM               0.000190095411 Eh/α |
          | HOMO-LUMO GAP               0.385520699911 eV   |
           -------------------------------------------------

------------------------------------------------------------------------
 * finished run on 2022/02/09 at 09:49:29.411     
------------------------------------------------------------------------
 total:
 * wall-time:     0 d,  0 h,  2 min, 17.199 sec
 *  cpu-time:     0 d,  0 h, 18 min, 17.414 sec
 * ratio c/w:     7.999 speedup
 SCF:
 * wall-time:     0 d,  0 h,  0 min,  0.581 sec
 *  cpu-time:     0 d,  0 h,  0 min,  4.635 sec
 * ratio c/w:     7.972 speedup
 ANC optimizer:
 * wall-time:     0 d,  0 h,  2 min, 16.529 sec
 *  cpu-time:     0 d,  0 h, 18 min, 12.163 sec
 * ratio c/w:     7.999 speedup

