      -----------------------------------------------------------      
     |                   =====================                   |     
     |                           x T B                           |     
     |                   =====================                   |     
     |                         S. Grimme                         |     
     |          Mulliken Center for Theoretical Chemistry        |     
     |                    University of Bonn                     |     
      -----------------------------------------------------------      

   * xtb version 6.4.1 (unknown) compiled by 'oda6@login1.crc.pitt.edu' on 2021-06-25

   xtb is free software: you can redistribute it and/or modify it under
   the terms of the GNU Lesser General Public License as published by
   the Free Software Foundation, either version 3 of the License, or
   (at your option) any later version.
   
   xtb is distributed in the hope that it will be useful,
   but WITHOUT ANY WARRANTY; without even the implied warranty of
   MERCHANTABILITY or FITNESS FOR A PARTICULAR PURPOSE.  See the
   GNU Lesser General Public License for more details.
   
   Cite this work as:
   * C. Bannwarth, E. Caldeweyher, S. Ehlert, A. Hansen, P. Pracht,
     J. Seibert, S. Spicher, S. Grimme, WIREs Comput. Mol. Sci., 2020, 11,
     e01493. DOI: 10.1002/wcms.1493
   
   for GFN2-xTB:
   * C. Bannwarth, S. Ehlert and S. Grimme., J. Chem. Theory Comput., 2019,
     15, 1652-1671. DOI: 10.1021/acs.jctc.8b01176
   for GFN1-xTB:
   * S. Grimme, C. Bannwarth, P. Shushkov, J. Chem. Theory Comput., 2017,
     13, 1989-2009. DOI: 10.1021/acs.jctc.7b00118
   for GFN0-xTB:
   * P. Pracht, E. Caldeweyher, S. Ehlert, S. Grimme, ChemRxiv, 2019, preprint.
     DOI: 10.26434/chemrxiv.8326202.v1
   for GFN-FF:
   * S. Spicher and S. Grimme, Angew. Chem. Int. Ed., 2020, 59, 15665-15673.
     DOI: 10.1002/anie.202004239
   
   for DFT-D4:
   * E. Caldeweyher, C. Bannwarth and S. Grimme, J. Chem. Phys., 2017,
     147, 034112. DOI: 10.1063/1.4993215
   * E. Caldeweyher, S. Ehlert, A. Hansen, H. Neugebauer, S. Spicher,
     C. Bannwarth and S. Grimme, J. Chem. Phys., 2019, 150, 154122.
     DOI: 10.1063/1.5090222
   * E. Caldeweyher, J.-M. Mewes, S. Ehlert and S. Grimme, Phys. Chem. Chem. Phys.
     2020, 22, 8499-8512. DOI: 10.1039/D0CP00502A
   
   for sTDA-xTB:
   * S. Grimme and C. Bannwarth, J. Chem. Phys., 2016, 145, 054103.
     DOI: 10.1063/1.4959605
   
   in the mass-spec context:
   * V. Asgeirsson, C. Bauer and S. Grimme, Chem. Sci., 2017, 8, 4879.
     DOI: 10.1039/c7sc00601b
   * J. Koopman and S. Grimme, ACS Omega 2019, 4, 12, 15120-15133.
     DOI: 10.1021/acsomega.9b02011
   
   for metadynamics refer to:
   * S. Grimme, J. Chem. Theory Comput., 2019, 155, 2847-2862
     DOI: 10.1021/acs.jctc.9b00143
   
   for SPH calculations refer to:
   * S. Spicher and S. Grimme, J. Chem. Theory Comput., 2021, 17, 1701-1714
     DOI: 10.1021/acs.jctc.0c01306
   
   with help from (in alphabetical order)
   P. Atkinson, C. Bannwarth, F. Bohle, G. Brandenburg, E. Caldeweyher
   M. Checinski, S. Dohm, S. Ehlert, S. Ehrlich, I. Gerasimov, J. Koopman
   C. Lavigne, S. Lehtola, F. März, M. Müller, F. Musil, H. Neugebauer
   J. Pisarek, C. Plett, P. Pracht, J. Seibert, P. Shushkov, S. Spicher
   M. Stahn, M. Steiner, T. Strunk, J. Stückrath, T. Rose, and J. Unsleber
   
 * started run on 2022/02/04 at 14:00:51.798     

           -------------------------------------------------
          |                Calculation Setup                |
           -------------------------------------------------

          program call               : /ihome/ghutchison/oda6/xtb/xtb-641/bin/xtb ../../FF_optimized/39_21_130_88_39.mol -opt
          hostname                   : smp-n57
          coordinate file            : ../../FF_optimized/39_21_130_88_39.mol
          omp threads                :                     8
          number of atoms            :                   193
          number of electrons        :                   598
          charge                     :                     0
          spin                       :                   0.0
          first test random number   :      0.78011937547016

   ID    Z sym.   atoms
    1    6 C      1-3, 5-13, 15, 17-27, 29, 30, 32-35, 37-43, 45-48, 50, 51,
                  53-56, 58-64, 66-69, 71, 72, 74, 76, 77, 79-84, 86-89,
                  91-96, 98-103, 105-113, 115, 117-123
    2    8 O      4, 85, 97, 104
    3    7 N      14, 16, 31, 52, 78, 90, 114, 116
    4   34 Se     28
    5   16 S      36, 44, 49, 57, 65, 70
    6    9 F      73, 75
    7    1 H      124-193

molecular fragmentation (1/2 indicates fragments):
111111111111111111111111111111111111111111111111111111111111111111111111
111111111111111111111111111111111111111111111111111111111111112111111111
1111111111111111111111111111111111111111111111111
# atoms in fragment 1/2:   192     1
 fragment masses (1/2) :     1780.04        1.01
CMA distance (Bohr)    :  13.104
constraining FC (au)   :  0.0500
########################################################################
[WARNING] Please study the warnings concerning your input carefully
-1- prog_main_parseArguments: the use of '-opt' is discouraged, please use '--opt' next time
########################################################################

           -------------------------------------------------
          |                 G F N 2 - x T B                 |
           -------------------------------------------------

        Reference                      10.1021/acs.jctc.8b01176
      * Hamiltonian:
        H0-scaling (s, p, d)           1.850000    2.230000    2.230000
        zeta-weighting                 0.500000
      * Dispersion:
        s8                             2.700000
        a1                             0.520000
        a2                             5.000000
        s9                             5.000000
      * Repulsion:
        kExp                           1.500000    1.000000
        rExp                           1.000000
      * Coulomb:
        alpha                          2.000000
        third order                    shell-resolved
        anisotropic                    true
        a3                             3.000000
        a5                             4.000000
        cn-shift                       1.200000
        cn-exp                         4.000000
        max-rad                        5.000000


          ...................................................
          :                      SETUP                      :
          :.................................................:
          :  # basis functions                 604          :
          :  # atomic orbitals                 597          :
          :  # shells                          323          :
          :  # electrons                       598          :
          :  max. iterations                   250          :
          :  Hamiltonian                  GFN2-xTB          :
          :  restarted?                      false          :
          :  GBSA solvation                  false          :
          :  PC potential                    false          :
          :  electronic temp.          300.0000000     K    :
          :  accuracy                    1.0000000          :
          :  -> integral cutoff          0.2500000E+02      :
          :  -> integral neglect         0.1000000E-07      :
          :  -> SCF convergence          0.1000000E-05 Eh   :
          :  -> wf. convergence          0.1000000E-03 e    :
          :  Broyden damping             0.4000000          :
          ...................................................

 iter      E             dE          RMSdq      gap      omega  full diag
   1   -329.4034715 -0.329403E+03  0.520E+00    0.60       0.0  T
   2   -329.2834944  0.119977E+00  0.328E+00    0.12       1.0  T
   3   -327.8355883  0.144791E+01  0.314E+00    0.03       1.0  T
   4   -327.8545903 -0.190019E-01  0.260E+00    0.07       1.0  T
   5   -329.8610304 -0.200644E+01  0.880E-01    0.70       1.0  T
   6   -329.9577094 -0.966790E-01  0.524E-01    0.20       1.0  T
   7   -329.9310724  0.266371E-01  0.484E-01    0.39       1.0  T
   8   -329.9749775 -0.439052E-01  0.291E-01    0.19       1.0  T
   9   -329.9898141 -0.148366E-01  0.166E-01    0.13       1.0  T
  10   -329.9875450  0.226906E-02  0.138E-01    0.23       1.0  T
  11   -329.9923110 -0.476594E-02  0.777E-02    0.15       1.0  T
  12   -329.9919805  0.330463E-03  0.604E-02    0.18       1.0  T
  13   -329.9926314 -0.650915E-03  0.421E-02    0.15       1.0  T
  14   -329.9927090 -0.776132E-04  0.318E-02    0.16       1.0  T
  15   -329.9927342 -0.251070E-04  0.230E-02    0.16       1.0  T
  16   -329.9927751 -0.409041E-04  0.138E-02    0.16       1.0  T
  17   -329.9927841 -0.903977E-05  0.567E-03    0.16       1.3  T
  18   -329.9927861 -0.199961E-05  0.244E-03    0.16       3.0  T
  19   -329.9927866 -0.454170E-06  0.128E-03    0.16       5.6  T
  20   -329.9927871 -0.497274E-06  0.508E-04    0.16      14.2  T
  21   -329.9927870  0.570323E-07  0.478E-04    0.16      15.0  T

   *** convergence criteria satisfied after 21 iterations ***

         #    Occupation            Energy/Eh            Energy/eV
      -------------------------------------------------------------
         1        2.0000           -0.8474517             -23.0603
       ...           ...                  ...                  ...
       293        2.0000           -0.3700787             -10.0704
       294        2.0000           -0.3642797              -9.9126
       295        2.0000           -0.3546173              -9.6496
       296        2.0000           -0.3521123              -9.5815
       297        1.9990           -0.3469860              -9.4420
       298        1.9976           -0.3461077              -9.4181
       299        1.9076           -0.3426117              -9.3229 (HOMO)
       300        0.0819           -0.3367397              -9.1632 (LUMO)
       301        0.0139           -0.3350188              -9.1163
       302        0.0000           -0.3254771              -8.8567
       303                         -0.3187170              -8.6727
       304                         -0.3132138              -8.5230
       ...                                ...                  ...
       597                          2.3775509              64.6965
      -------------------------------------------------------------
                  HL-Gap            0.0058720 Eh            0.1598 eV
             Fermi-level           -0.3397354 Eh           -9.2447 eV

 SCC (total)                   0 d,  0 h,  0 min,  0.935 sec
 SCC setup                      ...        0 min,  0.002 sec (  0.168%)
 Dispersion                     ...        0 min,  0.013 sec (  1.408%)
 classical contributions        ...        0 min,  0.000 sec (  0.036%)
 integral evaluation            ...        0 min,  0.043 sec (  4.579%)
 iterations                     ...        0 min,  0.755 sec ( 80.762%)
 molecular gradient             ...        0 min,  0.119 sec ( 12.723%)
 printout                       ...        0 min,  0.003 sec (  0.315%)

         :::::::::::::::::::::::::::::::::::::::::::::::::::::
         ::                     SUMMARY                     ::
         :::::::::::::::::::::::::::::::::::::::::::::::::::::
         :: total energy            -323.794808318936 Eh    ::
         :: gradient norm              1.944001151256 Eh/a0 ::
         :: HOMO-LUMO gap              0.159785521098 eV    ::
         ::.................................................::
         :: SCC energy              -329.992786993239 Eh    ::
         :: -> isotropic ES            0.189170496966 Eh    ::
         :: -> anisotropic ES          0.009466997315 Eh    ::
         :: -> anisotropic XC          0.213853312924 Eh    ::
         :: -> dispersion             -0.306262791405 Eh    ::
         :: repulsion energy           6.188208357024 Eh    ::
         :: add. restraining           0.000000000000 Eh    ::
         :: total charge              -0.000000000005 e     ::
         :::::::::::::::::::::::::::::::::::::::::::::::::::::

      ----------------------------------------------------------- 
     |                   =====================                   |
     |                        A N C O P T                        |
     |                   =====================                   |
     |               Approximate Normal Coordinate               |
     |                Rational Function Optimizer                |
      ----------------------------------------------------------- 

          ...................................................
          :                      SETUP                      :
          :.................................................:
          :   optimization level            normal          :
          :   max. optcycles                   579          :
          :   ANC micro-cycles                  20          :
          :   degrees of freedom               573          :
          :.................................................:
          :   RF solver                   davidson          :
          :   write xtbopt.log                true          :
          :   linear?                        false          :
          :   energy convergence         0.5000000E-05 Eh   :
          :   grad. convergence          0.1000000E-02 Eh/α :
          :   maximium RF displ.         1.0000000          :
          :   Hlow (freq-cutoff)         0.1000000E-01      :
          :   Hmax (freq-cutoff)         5.0000000          :
          :   S6 in model hess.         20.0000000          :
          ...................................................

generating ANC from model Hessian ...
Using Lindh-Hessian (1995)
 Shifting diagonal of input Hessian by   1.004552019916992E-002
 Lowest  eigenvalues of input Hessian
    0.010000    0.010013    0.000000    0.000000    0.000000    0.000000
    0.000000    0.000000    0.010049    0.010060    0.010063    0.010066
    0.010080    0.010082    0.010094    0.010102    0.010122    0.010145
 Highest eigenvalues
    2.649554    2.759016    2.797926    3.023892    3.084634    3.617154
 

........................................................................
.............................. CYCLE    1 ..............................
........................................................................
   1   -329.9927871 -0.329993E+03  0.264E-04    0.16       0.0  T
   2   -329.9927865  0.529165E-06  0.105E-03    0.16       6.9  T
   3   -329.9927871 -0.533821E-06  0.200E-04    0.16      36.0  T
   4   -329.9927871 -0.147255E-07  0.955E-05    0.16      75.3  T
     SCC iter.                  ...        0 min,  0.151 sec
     gradient                   ...        0 min,  0.117 sec
 * total energy  :  -323.7948084 Eh     change       -0.8920330E-07 Eh
   gradient norm :     1.9440045 Eh/α   predicted     0.0000000E+00 (-100.00%)
   displ. norm   :     0.5918317 α      lambda       -0.1104689E+01
   maximum displ.:     0.2309134 α      in ANC's #572, #569, #570, ...

........................................................................
.............................. CYCLE    2 ..............................
........................................................................
   1   -330.1583511 -0.330158E+03  0.445E-01    0.25       0.0  T
   2   -330.1164728  0.418783E-01  0.425E-01    0.07       1.0  T
   3   -330.1315894 -0.151167E-01  0.326E-01    0.43       1.0  T
   4   -330.1470426 -0.154532E-01  0.303E-01    0.23       1.0  T
   5   -330.1645767 -0.175340E-01  0.159E-01    0.25       1.0  T
   6   -330.1710516 -0.647493E-02  0.695E-02    0.22       1.0  T
   7   -330.1714678 -0.416246E-03  0.475E-02    0.16       1.0  T
   8   -330.1723040 -0.836157E-03  0.221E-02    0.19       1.0  T
   9   -330.1723659 -0.619406E-04  0.103E-02    0.18       1.0  T
  10   -330.1723833 -0.174057E-04  0.430E-03    0.18       1.7  T
  11   -330.1723847 -0.132862E-05  0.297E-03    0.18       2.4  T
  12   -330.1723862 -0.150397E-05  0.137E-03    0.18       5.2  T
  13   -330.1723864 -0.265390E-06  0.728E-04    0.18       9.9  T
  14   -330.1723865 -0.368916E-07  0.410E-04    0.18      17.6  T
     SCC iter.                  ...        0 min,  0.496 sec
     gradient                   ...        0 min,  0.117 sec
 * total energy  :  -324.5763939 Eh     change       -0.7815855E+00 Eh
   gradient norm :     0.9366348 Eh/α   predicted    -0.7458173E+00 (  -4.58%)
   displ. norm   :     0.6042236 α      lambda       -0.5310740E+00
   maximum displ.:     0.1714827 α      in ANC's #533, #526, #569, ...

........................................................................
.............................. CYCLE    3 ..............................
........................................................................
   1   -330.3715262 -0.330372E+03  0.443E-01    0.34       0.0  T
   2   -330.2487467  0.122779E+00  0.528E-01    0.15       1.0  T
   3   -330.3304586 -0.817119E-01  0.402E-01    0.46       1.0  T
   4   -330.3726892 -0.422306E-01  0.230E-01    0.47       1.0  T
   5   -330.3838724 -0.111832E-01  0.117E-01    0.35       1.0  T
   6   -330.3853682 -0.149582E-02  0.664E-02    0.34       1.0  T
   7   -330.3866576 -0.128944E-02  0.349E-02    0.29       1.0  T
   8   -330.3867519 -0.942451E-04  0.169E-02    0.28       1.0  T
   9   -330.3867964 -0.445331E-04  0.678E-03    0.27       1.1  T
  10   -330.3867948  0.157938E-05  0.498E-03    0.28       1.4  T
  11   -330.3868012 -0.639360E-05  0.224E-03    0.27       3.2  T
  12   -330.3868018 -0.616432E-06  0.113E-03    0.27       6.4  T
  13   -330.3868019 -0.764861E-07  0.625E-04    0.27      11.5  T
  14   -330.3868020 -0.753463E-07  0.330E-04    0.27      21.8  T
     SCC iter.                  ...        0 min,  0.494 sec
     gradient                   ...        0 min,  0.117 sec
 * total energy  :  -324.9909216 Eh     change       -0.4145277E+00 Eh
   gradient norm :     0.5464383 Eh/α   predicted    -0.3624810E+00 ( -12.56%)
   displ. norm   :     0.6473378 α      lambda       -0.3303473E+00
   maximum displ.:     0.1800101 α      in ANC's #533, #526, #567, ...

........................................................................
.............................. CYCLE    4 ..............................
........................................................................
   1   -330.4935535 -0.330494E+03  0.472E-01    0.35       0.0  T
   2   -330.4505783  0.429752E-01  0.393E-01    0.20       1.0  T
   3   -330.4622317 -0.116535E-01  0.364E-01    0.51       1.0  T
   4   -330.4997100 -0.374783E-01  0.200E-01    0.50       1.0  T
   5   -330.5075339 -0.782393E-02  0.714E-02    0.43       1.0  T
   6   -330.5077733 -0.239350E-03  0.502E-02    0.41       1.0  T
   7   -330.5079992 -0.225879E-03  0.264E-02    0.39       1.0  T
   8   -330.5080908 -0.916418E-04  0.125E-02    0.39       1.0  T
   9   -330.5081137 -0.228675E-04  0.539E-03    0.38       1.3  T
  10   -330.5081167 -0.302785E-05  0.304E-03    0.38       2.4  T
  11   -330.5081174 -0.712408E-06  0.152E-03    0.38       4.7  T
  12   -330.5081176 -0.195964E-06  0.855E-04    0.38       8.4  T
  13   -330.5081177 -0.761075E-07  0.407E-04    0.38      17.7  T
     SCC iter.                  ...        0 min,  0.463 sec
     gradient                   ...        0 min,  0.116 sec
 * total energy  :  -325.2319759 Eh     change       -0.2410543E+00 Eh
   gradient norm :     0.3302185 Eh/α   predicted    -0.2343909E+00 (  -2.76%)
   displ. norm   :     0.6264712 α      lambda       -0.1548188E+00
   maximum displ.:     0.1408477 α      in ANC's #567, #271, #151, ...

........................................................................
.............................. CYCLE    5 ..............................
........................................................................
   1   -330.5341149 -0.330534E+03  0.397E-01    0.36       0.0  T
   2   -330.5319747  0.214019E-02  0.256E-01    0.29       1.0  T
   3   -330.5280427  0.393198E-02  0.210E-01    0.47       1.0  T
   4   -330.5380881 -0.100454E-01  0.961E-02    0.35       1.0  T
   5   -330.5398628 -0.177467E-02  0.319E-02    0.38       1.0  T
   6   -330.5399109 -0.481581E-04  0.229E-02    0.35       1.0  T
   7   -330.5400276 -0.116714E-03  0.734E-03    0.36       1.0  T
   8   -330.5400343 -0.664181E-05  0.409E-03    0.36       1.8  T
   9   -330.5400369 -0.257582E-05  0.221E-03    0.36       3.3  T
  10   -330.5400372 -0.352647E-06  0.119E-03    0.36       6.0  T
  11   -330.5400373 -0.949016E-07  0.592E-04    0.36      12.2  T
  12   -330.5400373 -0.363081E-07  0.288E-04    0.36      25.0  T
     SCC iter.                  ...        0 min,  0.458 sec
     gradient                   ...        0 min,  0.118 sec
 * total energy  :  -325.3446145 Eh     change       -0.1126387E+00 Eh
   gradient norm :     0.2592849 Eh/α   predicted    -0.1077900E+00 (  -4.30%)
   displ. norm   :     0.6256845 α      lambda       -0.8818723E-01
   maximum displ.:     0.1303063 α      in ANC's #152, #567, #151, ...

........................................................................
.............................. CYCLE    6 ..............................
........................................................................
   1   -330.5280812 -0.330528E+03  0.300E-01    0.35       0.0  T
   2   -330.5283034 -0.222272E-03  0.174E-01    0.31       1.0  T
   3   -330.5248511  0.345239E-02  0.134E-01    0.43       1.0  T
   4   -330.5291376 -0.428652E-02  0.493E-02    0.34       1.0  T
   5   -330.5295848 -0.447277E-03  0.196E-02    0.36       1.0  T
   6   -330.5296264 -0.415809E-04  0.930E-03    0.35       1.0  T
   7   -330.5296415 -0.150783E-04  0.342E-03    0.35       2.1  T
   8   -330.5296426 -0.107734E-05  0.202E-03    0.35       3.6  T
   9   -330.5296430 -0.394510E-06  0.107E-03    0.35       6.7  T
  10   -330.5296430 -0.568540E-07  0.606E-04    0.35      11.9  T
  11   -330.5296431 -0.268250E-07  0.283E-04    0.35      25.4  T
     SCC iter.                  ...        0 min,  0.380 sec
     gradient                   ...        0 min,  0.117 sec
 * total energy  :  -325.4128497 Eh     change       -0.6823516E-01 Eh
   gradient norm :     0.1921026 Eh/α   predicted    -0.6135543E-01 ( -10.08%)
   displ. norm   :     0.6172530 α      lambda       -0.6064068E-01
   maximum displ.:     0.1367506 α      in ANC's #152, #567, #120, ...

........................................................................
.............................. CYCLE    7 ..............................
........................................................................
   1   -330.5481867 -0.330548E+03  0.252E-01    0.38       0.0  T
   2   -330.5486722 -0.485528E-03  0.151E-01    0.38       1.0  T
   3   -330.5473219  0.135034E-02  0.101E-01    0.42       1.0  T
   4   -330.5491361 -0.181424E-02  0.337E-02    0.39       1.0  T
   5   -330.5493129 -0.176759E-03  0.159E-02    0.40       1.0  T
   6   -330.5493616 -0.487345E-04  0.548E-03    0.39       1.3  T
   7   -330.5493650 -0.337665E-05  0.269E-03    0.40       2.7  T
   8   -330.5493657 -0.684611E-06  0.150E-03    0.40       4.8  T
   9   -330.5493658 -0.136175E-06  0.885E-04    0.40       8.1  T
  10   -330.5493659 -0.450634E-07  0.401E-04    0.40      17.9  T
     SCC iter.                  ...        0 min,  0.355 sec
     gradient                   ...        0 min,  0.117 sec
 * total energy  :  -325.4578806 Eh     change       -0.4503093E-01 Eh
   gradient norm :     0.1142163 Eh/α   predicted    -0.4187246E-01 (  -7.01%)
   displ. norm   :     0.6305869 α      lambda       -0.3535172E-01
   maximum displ.:     0.1174934 α      in ANC's #152, #119, #71, ...

........................................................................
.............................. CYCLE    8 ..............................
........................................................................
   1   -330.5857551 -0.330586E+03  0.187E-01    0.42       0.0  T
   2   -330.5860527 -0.297605E-03  0.113E-01    0.44       1.0  T
   3   -330.5854605  0.592225E-03  0.668E-02    0.44       1.0  T
   4   -330.5862323 -0.771757E-03  0.199E-02    0.45       1.0  T
   5   -330.5862623 -0.299758E-04  0.118E-02    0.44       1.0  T
   6   -330.5862821 -0.198450E-04  0.507E-03    0.44       1.4  T
   7   -330.5862839 -0.182986E-05  0.265E-03    0.44       2.7  T
   8   -330.5862844 -0.431653E-06  0.169E-03    0.44       4.3  T
   9   -330.5862845 -0.119085E-06  0.838E-04    0.44       8.6  T
  10   -330.5862845 -0.606533E-07  0.412E-04    0.44      17.5  T
     SCC iter.                  ...        0 min,  0.353 sec
     gradient                   ...        0 min,  0.117 sec
 * total energy  :  -325.4843234 Eh     change       -0.2644279E-01 Eh
   gradient norm :     0.0606910 Eh/α   predicted    -0.2470451E-01 (  -6.57%)
   displ. norm   :     0.6986161 α      lambda       -0.2231870E-01
   maximum displ.:     0.1400958 α      in ANC's #53, #65, #71, ...

........................................................................
.............................. CYCLE    9 ..............................
........................................................................
   1   -330.6379162 -0.330638E+03  0.204E-01    0.45       0.0  T
   2   -330.6380896 -0.173460E-03  0.119E-01    0.49       1.0  T
   3   -330.6370453  0.104429E-02  0.718E-02    0.45       1.0  T
   4   -330.6382440 -0.119861E-02  0.158E-02    0.49       1.0  T
   5   -330.6382704 -0.264614E-04  0.968E-03    0.48       1.0  T
   6   -330.6382851 -0.147031E-04  0.377E-03    0.48       1.9  T
   7   -330.6382862 -0.104873E-05  0.210E-03    0.48       3.4  T
   8   -330.6382865 -0.356893E-06  0.124E-03    0.48       5.8  T
   9   -330.6382866 -0.992139E-07  0.596E-04    0.48      12.1  T
  10   -330.6382867 -0.244023E-07  0.347E-04    0.48      20.8  T
     SCC iter.                  ...        0 min,  0.353 sec
     gradient                   ...        0 min,  0.117 sec
 * total energy  :  -325.5002955 Eh     change       -0.1597207E-01 Eh
   gradient norm :     0.0503731 Eh/α   predicted    -0.1660585E-01 (   3.97%)
   displ. norm   :     0.7520685 α      lambda       -0.1835660E-01
   maximum displ.:     0.1694398 α      in ANC's #68, #73, #53, ...

........................................................................
.............................. CYCLE   10 ..............................
........................................................................
   1   -330.6747267 -0.330675E+03  0.189E-01    0.47       0.0  T
   2   -330.6748124 -0.857476E-04  0.114E-01    0.53       1.0  T
   3   -330.6733016  0.151078E-02  0.854E-02    0.47       1.0  T
   4   -330.6751005 -0.179882E-02  0.170E-02    0.53       1.0  T
   5   -330.6751416 -0.411787E-04  0.867E-03    0.52       1.0  T
   6   -330.6751510 -0.936727E-05  0.422E-03    0.52       1.7  T
   7   -330.6751532 -0.218620E-05  0.196E-03    0.52       3.7  T
   8   -330.6751534 -0.227440E-06  0.109E-03    0.52       6.6  T
   9   -330.6751535 -0.861248E-07  0.599E-04    0.52      12.0  T
  10   -330.6751535 -0.377113E-07  0.244E-04    0.52      29.5  T
     SCC iter.                  ...        0 min,  0.355 sec
     gradient                   ...        0 min,  0.117 sec
 * total energy  :  -325.5117245 Eh     change       -0.1142901E-01 Eh
   gradient norm :     0.0532221 Eh/α   predicted    -0.1436961E-01 (  25.73%)
   displ. norm   :     0.6656913 α      lambda       -0.1243816E-01
   maximum displ.:     0.1574917 α      in ANC's #65, #53, #73, ...

........................................................................
.............................. CYCLE   11 ..............................
........................................................................
   1   -330.6827528 -0.330683E+03  0.191E-01    0.50       0.0  T
   2   -330.6828409 -0.880289E-04  0.112E-01    0.54       1.0  T
   3   -330.6813370  0.150386E-02  0.832E-02    0.49       1.0  T
   4   -330.6830563 -0.171932E-02  0.144E-02    0.54       1.0  T
   5   -330.6830807 -0.244174E-04  0.942E-03    0.53       1.0  T
   6   -330.6830921 -0.114107E-04  0.354E-03    0.53       2.0  T
   7   -330.6830936 -0.147242E-05  0.173E-03    0.53       4.2  T
   8   -330.6830939 -0.288865E-06  0.100E-03    0.53       7.2  T
   9   -330.6830940 -0.919901E-07  0.454E-04    0.53      15.8  T
  10   -330.6830940 -0.171880E-07  0.232E-04    0.53      31.0  T
     SCC iter.                  ...        0 min,  0.352 sec
     gradient                   ...        0 min,  0.117 sec
 * total energy  :  -325.5214597 Eh     change       -0.9735248E-02 Eh
   gradient norm :     0.0430132 Eh/α   predicted    -0.8975044E-02 (  -7.81%)
   displ. norm   :     0.7635168 α      lambda       -0.1222909E-01
   maximum displ.:     0.1802982 α      in ANC's #65, #73, #45, ...

........................................................................
.............................. CYCLE   12 ..............................
........................................................................
   1   -330.6958100 -0.330696E+03  0.173E-01    0.51       0.0  T
   2   -330.6959274 -0.117462E-03  0.102E-01    0.56       1.0  T
   3   -330.6949248  0.100264E-02  0.728E-02    0.51       1.0  T
   4   -330.6961121 -0.118729E-02  0.163E-02    0.56       1.0  T
   5   -330.6961573 -0.452253E-04  0.842E-03    0.55       1.0  T
   6   -330.6961670 -0.965635E-05  0.369E-03    0.55       1.9  T
   7   -330.6961684 -0.140887E-05  0.194E-03    0.55       3.7  T
   8   -330.6961688 -0.387058E-06  0.911E-04    0.55       7.9  T
   9   -330.6961688 -0.672483E-07  0.466E-04    0.55      15.5  T
     SCC iter.                  ...        0 min,  0.336 sec
     gradient                   ...        0 min,  0.117 sec
 * total energy  :  -325.5282374 Eh     change       -0.6777647E-02 Eh
   gradient norm :     0.0480817 Eh/α   predicted    -0.9679082E-02 (  42.81%)
   displ. norm   :     0.6693982 α      lambda       -0.1084485E-01
   maximum displ.:     0.1573542 α      in ANC's #73, #53, #65, ...

........................................................................
.............................. CYCLE   13 ..............................
........................................................................
   1   -330.6968600 -0.330697E+03  0.185E-01    0.54       0.0  T
   2   -330.6969561 -0.960992E-04  0.104E-01    0.58       1.0  T
   3   -330.6956896  0.126652E-02  0.762E-02    0.53       1.0  T
   4   -330.6971325 -0.144292E-02  0.173E-02    0.58       1.0  T
   5   -330.6971773 -0.447914E-04  0.912E-03    0.57       1.0  T
   6   -330.6971862 -0.886198E-05  0.427E-03    0.57       1.7  T
   7   -330.6971879 -0.171469E-05  0.199E-03    0.57       3.6  T
   8   -330.6971883 -0.445648E-06  0.985E-04    0.57       7.3  T
   9   -330.6971884 -0.815452E-07  0.535E-04    0.57      13.5  T
     SCC iter.                  ...        0 min,  0.322 sec
     gradient                   ...        0 min,  0.116 sec
 * total energy  :  -325.5362771 Eh     change       -0.8039684E-02 Eh
   gradient norm :     0.0358424 Eh/α   predicted    -0.7852193E-02 (  -2.33%)
   displ. norm   :     0.7237502 α      lambda       -0.8303485E-02
   maximum displ.:     0.1677401 α      in ANC's #61, #65, #38, ...

........................................................................
.............................. CYCLE   14 ..............................
........................................................................
   1   -330.6954566 -0.330695E+03  0.162E-01    0.56       0.0  T
   2   -330.6955341 -0.775800E-04  0.920E-02    0.59       1.0  T
   3   -330.6947531  0.781064E-03  0.603E-02    0.56       1.0  T
   4   -330.6956357 -0.882670E-03  0.128E-02    0.60       1.0  T
   5   -330.6956558 -0.200265E-04  0.720E-03    0.59       1.0  T
   6   -330.6956612 -0.544625E-05  0.398E-03    0.59       1.8  T
   7   -330.6956635 -0.224835E-05  0.171E-03    0.59       4.2  T
   8   -330.6956637 -0.279267E-06  0.102E-03    0.59       7.0  T
   9   -330.6956638 -0.835545E-07  0.494E-04    0.59      14.6  T
  10   -330.6956638 -0.175073E-07  0.246E-04    0.59      29.3  T
     SCC iter.                  ...        0 min,  0.355 sec
     gradient                   ...        0 min,  0.116 sec
 * total energy  :  -325.5413983 Eh     change       -0.5121269E-02 Eh
   gradient norm :     0.0496884 Eh/α   predicted    -0.6326494E-02 (  23.53%)
   displ. norm   :     0.6894495 α      lambda       -0.8924520E-02
   maximum displ.:     0.1591230 α      in ANC's #73, #38, #66, ...

........................................................................
.............................. CYCLE   15 ..............................
........................................................................
   1   -330.7037397 -0.330704E+03  0.149E-01    0.58       0.0  T
   2   -330.7037990 -0.593035E-04  0.844E-02    0.61       1.0  T
   3   -330.7031677  0.631322E-03  0.564E-02    0.59       1.0  T
   4   -330.7038772 -0.709531E-03  0.121E-02    0.61       1.0  T
   5   -330.7038865 -0.930150E-05  0.818E-03    0.60       1.0  T
   6   -330.7038972 -0.106799E-04  0.386E-03    0.61       1.9  T
   7   -330.7038989 -0.166695E-05  0.142E-03    0.61       5.1  T
   8   -330.7038991 -0.195419E-06  0.842E-04    0.61       8.5  T
   9   -330.7038991 -0.437788E-07  0.487E-04    0.61      14.8  T
     SCC iter.                  ...        0 min,  0.319 sec
     gradient                   ...        0 min,  0.116 sec
 * total energy  :  -325.5459582 Eh     change       -0.4559921E-02 Eh
   gradient norm :     0.0466440 Eh/α   predicted    -0.6583362E-02 (  44.37%)
   displ. norm   :     0.5898055 α      lambda       -0.7401418E-02
   maximum displ.:     0.1475281 α      in ANC's #19, #45, #35, ...

........................................................................
.............................. CYCLE   16 ..............................
........................................................................
   1   -330.7090598 -0.330709E+03  0.148E-01    0.60       0.0  T
   2   -330.7090828 -0.230275E-04  0.888E-02    0.61       1.0  T
   3   -330.7081924  0.890401E-03  0.708E-02    0.60       1.0  T
   4   -330.7091746 -0.982197E-03  0.114E-02    0.60       1.0  T
   5   -330.7091764 -0.179717E-05  0.878E-03    0.61       1.0  T
   6   -330.7091881 -0.117153E-04  0.311E-03    0.61       2.3  T
   7   -330.7091892 -0.111899E-05  0.165E-03    0.61       4.4  T
   8   -330.7091894 -0.196780E-06  0.102E-03    0.61       7.0  T
   9   -330.7091895 -0.717000E-07  0.433E-04    0.61      16.6  T
  10   -330.7091895 -0.170309E-07  0.214E-04    0.61      33.6  T
     SCC iter.                  ...        0 min,  0.361 sec
     gradient                   ...        0 min,  0.116 sec
 * total energy  :  -325.5493143 Eh     change       -0.3356023E-02 Eh
   gradient norm :     0.0358154 Eh/α   predicted    -0.4988085E-02 (  48.63%)
   displ. norm   :     0.5686234 α      lambda       -0.7231046E-02
   maximum displ.:     0.1604354 α      in ANC's #95, #61, #45, ...

........................................................................
.............................. CYCLE   17 ..............................
........................................................................
   1   -330.7207288 -0.330721E+03  0.157E-01    0.61       0.0  T
   2   -330.7208143 -0.855409E-04  0.858E-02    0.63       1.0  T
   3   -330.7204727  0.341568E-03  0.568E-02    0.61       1.0  T
   4   -330.7208711 -0.398406E-03  0.192E-02    0.62       1.0  T
   5   -330.7209035 -0.323707E-04  0.132E-02    0.62       1.0  T
   6   -330.7209310 -0.274938E-04  0.386E-03    0.62       1.9  T
   7   -330.7209332 -0.218090E-05  0.152E-03    0.62       4.7  T
   8   -330.7209334 -0.228123E-06  0.883E-04    0.62       8.2  T
   9   -330.7209335 -0.613561E-07  0.532E-04    0.62      13.5  T
     SCC iter.                  ...        0 min,  0.326 sec
     gradient                   ...        0 min,  0.116 sec
 * total energy  :  -325.5507436 Eh     change       -0.1429318E-02 Eh
   gradient norm :     0.0536057 Eh/α   predicted    -0.4784546E-02 ( 234.74%)
   displ. norm   :     0.4433473 α      lambda       -0.7937703E-02
   maximum displ.:     0.1229089 α      in ANC's #147, #19, #61, ...

........................................................................
.............................. CYCLE   18 ..............................
........................................................................
   1   -330.7140496 -0.330714E+03  0.133E-01    0.61       0.0  T
   2   -330.7140886 -0.389926E-04  0.804E-02    0.60       1.0  T
   3   -330.7135690  0.519588E-03  0.570E-02    0.61       1.0  T
   4   -330.7141374 -0.568393E-03  0.117E-02    0.61       1.0  T
   5   -330.7141529 -0.154611E-04  0.782E-03    0.60       1.0  T
   6   -330.7141640 -0.110824E-04  0.245E-03    0.60       2.9  T
   7   -330.7141646 -0.570739E-06  0.121E-03    0.61       5.9  T
   8   -330.7141647 -0.104514E-06  0.706E-04    0.60      10.2  T
   9   -330.7141647 -0.354816E-07  0.424E-04    0.61      17.0  T
     SCC iter.                  ...        0 min,  0.329 sec
     gradient                   ...        0 min,  0.116 sec
 * total energy  :  -325.5548252 Eh     change       -0.4081606E-02 Eh
   gradient norm :     0.0297209 Eh/α   predicted    -0.4748970E-02 (  16.35%)
   displ. norm   :     0.5373497 α      lambda       -0.4607895E-02
   maximum displ.:     0.1469557 α      in ANC's #38, #61, #34, ...

........................................................................
.............................. CYCLE   19 ..............................
........................................................................
   1   -330.7187121 -0.330719E+03  0.110E-01    0.61       0.0  T
   2   -330.7187407 -0.286426E-04  0.641E-02    0.60       1.0  T
   3   -330.7186203  0.120451E-03  0.288E-02    0.61       1.0  T
   4   -330.7187562 -0.135901E-03  0.639E-03    0.61       1.1  T
   5   -330.7187590 -0.284971E-05  0.407E-03    0.61       1.8  T
   6   -330.7187609 -0.188510E-05  0.180E-03    0.61       4.0  T
   7   -330.7187612 -0.276110E-06  0.989E-04    0.61       7.3  T
   8   -330.7187612 -0.452149E-07  0.703E-04    0.61      10.2  T
     SCC iter.                  ...        0 min,  0.291 sec
     gradient                   ...        0 min,  0.116 sec
 * total energy  :  -325.5572657 Eh     change       -0.2440462E-02 Eh
   gradient norm :     0.0321131 Eh/α   predicted    -0.2969180E-02 (  21.66%)
   displ. norm   :     0.6287057 α      lambda       -0.4408813E-02
   maximum displ.:     0.2060078 α      in ANC's #19, #34, #45, ...

........................................................................
.............................. CYCLE   20 ..............................
........................................................................
   1   -330.7233262 -0.330723E+03  0.131E-01    0.60       0.0  T
   2   -330.7233616 -0.354109E-04  0.771E-02    0.60       1.0  T
   3   -330.7228591  0.502457E-03  0.497E-02    0.59       1.0  T
   4   -330.7233973 -0.538177E-03  0.114E-02    0.60       1.0  T
   5   -330.7234176 -0.202636E-04  0.536E-03    0.60       1.3  T
   6   -330.7234194 -0.188695E-05  0.292E-03    0.60       2.5  T
   7   -330.7234206 -0.114544E-05  0.124E-03    0.60       5.8  T
   8   -330.7234207 -0.107814E-06  0.718E-04    0.60      10.0  T
   9   -330.7234207 -0.305434E-07  0.378E-04    0.60      19.0  T
     SCC iter.                  ...        0 min,  0.312 sec
     gradient                   ...        0 min,  0.116 sec
 * total energy  :  -325.5599143 Eh     change       -0.2648633E-02 Eh
   gradient norm :     0.0264125 Eh/α   predicted    -0.3075743E-02 (  16.13%)
   displ. norm   :     0.6286165 α      lambda       -0.4606850E-02
   maximum displ.:     0.1625910 α      in ANC's #19, #34, #14, ...
 * RMSD in coord.:     0.6162107 α      energy gain  -0.1765106E+01 Eh

generating ANC from model Hessian ...
Using Lindh-Hessian (1995)
 Shifting diagonal of input Hessian by   1.000492297238200E-002
 Lowest  eigenvalues of input Hessian
    0.010000    0.000000    0.000000    0.000000    0.000000    0.000000
    0.000000    0.010014    0.010015    0.010025    0.010033    0.010043
    0.010054    0.010064    0.010069    0.010085    0.010121    0.010133
 Highest eigenvalues
    2.264239    2.275630    2.585771    2.607112    2.636162    2.652268
 

........................................................................
.............................. CYCLE   21 ..............................
........................................................................
   1   -330.7305758 -0.330731E+03  0.116E-01    0.60       0.0  T
   2   -330.7306041 -0.283102E-04  0.677E-02    0.60       1.0  T
   3   -330.7304010  0.203141E-03  0.364E-02    0.59       1.0  T
   4   -330.7306321 -0.231154E-03  0.900E-03    0.60       1.0  T
   5   -330.7306376 -0.548547E-05  0.627E-03    0.59       1.1  T
   6   -330.7306417 -0.405470E-05  0.246E-03    0.60       2.9  T
   7   -330.7306423 -0.649838E-06  0.139E-03    0.59       5.2  T
   8   -330.7306425 -0.138879E-06  0.847E-04    0.59       8.5  T
   9   -330.7306425 -0.377668E-07  0.449E-04    0.60      16.0  T
     SCC iter.                  ...        0 min,  0.313 sec
     gradient                   ...        0 min,  0.117 sec
 * total energy  :  -325.5627148 Eh     change       -0.2800468E-02 Eh
   gradient norm :     0.0315510 Eh/α   predicted     0.0000000E+00 (-100.00%)
   displ. norm   :     0.3270512 α      lambda       -0.2751538E-02
   maximum displ.:     0.0850459 α      in ANC's #28, #31, #39, ...

........................................................................
.............................. CYCLE   22 ..............................
........................................................................
   1   -330.7342184 -0.330734E+03  0.108E-01    0.59       0.0  T
   2   -330.7342385 -0.200963E-04  0.606E-02    0.59       1.0  T
   3   -330.7340632  0.175255E-03  0.288E-02    0.59       1.0  T
   4   -330.7342574 -0.194233E-03  0.524E-03    0.59       1.4  T
   5   -330.7342602 -0.275514E-05  0.300E-03    0.59       2.4  T
   6   -330.7342612 -0.998638E-06  0.133E-03    0.59       5.4  T
   7   -330.7342615 -0.279904E-06  0.485E-04    0.59      14.8  T
   8   -330.7342615 -0.282914E-07  0.258E-04    0.59      27.9  T
     SCC iter.                  ...        0 min,  0.284 sec
     gradient                   ...        0 min,  0.116 sec
 * total energy  :  -325.5644291 Eh     change       -0.1714342E-02 Eh
   gradient norm :     0.0157780 Eh/α   predicted    -0.1524756E-02 ( -11.06%)
   displ. norm   :     0.6183745 α      lambda       -0.4036691E-02
   maximum displ.:     0.1677593 α      in ANC's #39, #38, #28, ...

........................................................................
.............................. CYCLE   23 ..............................
........................................................................
   1   -330.7409834 -0.330741E+03  0.179E-01    0.58       0.0  T
   2   -330.7410292 -0.458435E-04  0.101E-01    0.57       1.0  T
   3   -330.7402456  0.783599E-03  0.578E-02    0.59       1.0  T
   4   -330.7411025 -0.856835E-03  0.940E-03    0.57       1.0  T
   5   -330.7411116 -0.911678E-05  0.508E-03    0.57       1.4  T
   6   -330.7411139 -0.231298E-05  0.257E-03    0.57       2.8  T
   7   -330.7411150 -0.107876E-05  0.951E-04    0.57       7.6  T
   8   -330.7411151 -0.107771E-06  0.573E-04    0.57      12.6  T
   9   -330.7411151 -0.186308E-07  0.315E-04    0.57      22.8  T
     SCC iter.                  ...        0 min,  0.322 sec
     gradient                   ...        0 min,  0.118 sec
 * total energy  :  -325.5660783 Eh     change       -0.1649230E-02 Eh
   gradient norm :     0.0447761 Eh/α   predicted    -0.2790139E-02 (  69.18%)
   displ. norm   :     0.4508785 α      lambda       -0.3227924E-02
   maximum displ.:     0.1343170 α      in ANC's #31, #28, #23, ...

........................................................................
.............................. CYCLE   24 ..............................
........................................................................
   1   -330.7406311 -0.330741E+03  0.123E-01    0.57       0.0  T
   2   -330.7406556 -0.244737E-04  0.689E-02    0.56       1.0  T
   3   -330.7404386  0.217000E-03  0.298E-02    0.58       1.0  T
   4   -330.7406777 -0.239135E-03  0.520E-03    0.57       1.4  T
   5   -330.7406794 -0.168808E-05  0.311E-03    0.57       2.3  T
   6   -330.7406804 -0.101195E-05  0.148E-03    0.57       4.9  T
   7   -330.7406807 -0.295588E-06  0.685E-04    0.57      10.5  T
   8   -330.7406808 -0.586476E-07  0.404E-04    0.57      17.8  T
     SCC iter.                  ...        0 min,  0.285 sec
     gradient                   ...        0 min,  0.116 sec
 * total energy  :  -325.5684596 Eh     change       -0.2381301E-02 Eh
   gradient norm :     0.0234530 Eh/α   predicted    -0.1942072E-02 ( -18.44%)
   displ. norm   :     0.6526693 α      lambda       -0.3512575E-02
   maximum displ.:     0.1802030 α      in ANC's #31, #28, #23, ...

........................................................................
.............................. CYCLE   25 ..............................
........................................................................
   1   -330.7319107 -0.330732E+03  0.147E-01    0.56       0.0  T
   2   -330.7319569 -0.462379E-04  0.819E-02    0.55       1.0  T
   3   -330.7317624  0.194528E-03  0.331E-02    0.55       1.0  T
   4   -330.7319827 -0.220318E-03  0.727E-03    0.55       1.0  T
   5   -330.7319848 -0.205326E-05  0.499E-03    0.55       1.4  T
   6   -330.7319886 -0.381671E-05  0.198E-03    0.55       3.6  T
   7   -330.7319889 -0.349127E-06  0.104E-03    0.55       6.9  T
   8   -330.7319891 -0.124690E-06  0.532E-04    0.55      13.5  T
   9   -330.7319891 -0.116791E-07  0.282E-04    0.55      25.6  T
     SCC iter.                  ...        0 min,  0.324 sec
     gradient                   ...        0 min,  0.116 sec
 * total energy  :  -325.5707674 Eh     change       -0.2307790E-02 Eh
   gradient norm :     0.0342029 Eh/α   predicted    -0.2504427E-02 (   8.52%)
   displ. norm   :     0.6987875 α      lambda       -0.3154392E-02
   maximum displ.:     0.2112764 α      in ANC's #28, #31, #23, ...

........................................................................
.............................. CYCLE   26 ..............................
........................................................................
   1   -330.7332063 -0.330733E+03  0.128E-01    0.55       0.0  T
   2   -330.7332390 -0.327404E-04  0.712E-02    0.54       1.0  T
   3   -330.7330851  0.153899E-03  0.270E-02    0.55       1.0  T
   4   -330.7332537 -0.168577E-03  0.737E-03    0.54       1.0  T
   5   -330.7332580 -0.435903E-05  0.431E-03    0.54       1.7  T
   6   -330.7332608 -0.281844E-05  0.170E-03    0.54       4.2  T
   7   -330.7332611 -0.257756E-06  0.828E-04    0.54       8.7  T
   8   -330.7332612 -0.102612E-06  0.465E-04    0.54      15.5  T
     SCC iter.                  ...        0 min,  0.286 sec
     gradient                   ...        0 min,  0.116 sec
 * total energy  :  -325.5731683 Eh     change       -0.2400841E-02 Eh
   gradient norm :     0.0206932 Eh/α   predicted    -0.2347355E-02 (  -2.23%)
   displ. norm   :     0.7306289 α      lambda       -0.3153253E-02
   maximum displ.:     0.2265755 α      in ANC's #28, #31, #23, ...

........................................................................
.............................. CYCLE   27 ..............................
........................................................................
   1   -330.7391474 -0.330739E+03  0.129E-01    0.54       0.0  T
   2   -330.7391815 -0.340973E-04  0.723E-02    0.53       1.0  T
   3   -330.7390847  0.967398E-04  0.223E-02    0.53       1.0  T
   4   -330.7391932 -0.108494E-03  0.704E-03    0.53       1.0  T
   5   -330.7391974 -0.411490E-05  0.396E-03    0.53       1.8  T
   6   -330.7392001 -0.274349E-05  0.169E-03    0.53       4.3  T
   7   -330.7392004 -0.319109E-06  0.779E-04    0.53       9.2  T
   8   -330.7392005 -0.699430E-07  0.467E-04    0.53      15.4  T
     SCC iter.                  ...        0 min,  0.289 sec
     gradient                   ...        0 min,  0.116 sec
 * total energy  :  -325.5754987 Eh     change       -0.2330424E-02 Eh
   gradient norm :     0.0226093 Eh/α   predicted    -0.2418260E-02 (   3.77%)
   displ. norm   :     0.7267368 α      lambda       -0.3310170E-02
   maximum displ.:     0.2271647 α      in ANC's #28, #31, #9, ...

........................................................................
.............................. CYCLE   28 ..............................
........................................................................
   1   -330.7515313 -0.330752E+03  0.131E-01    0.53       0.0  T
   2   -330.7515694 -0.381019E-04  0.729E-02    0.52       1.0  T
   3   -330.7514989  0.705127E-04  0.207E-02    0.52       1.0  T
   4   -330.7515805 -0.815850E-04  0.732E-03    0.52       1.0  T
   5   -330.7515843 -0.385141E-05  0.386E-03    0.52       1.9  T
   6   -330.7515868 -0.243032E-05  0.192E-03    0.52       3.8  T
   7   -330.7515873 -0.517796E-06  0.758E-04    0.52       9.5  T
   8   -330.7515874 -0.658304E-07  0.437E-04    0.52      16.5  T
     SCC iter.                  ...        0 min,  0.295 sec
     gradient                   ...        0 min,  0.116 sec
 * total energy  :  -325.5779616 Eh     change       -0.2462899E-02 Eh
   gradient norm :     0.0221122 Eh/α   predicted    -0.2529213E-02 (   2.69%)
   displ. norm   :     0.8244979 α      lambda       -0.2848787E-02
   maximum displ.:     0.2558872 α      in ANC's #28, #31, #23, ...

........................................................................
.............................. CYCLE   29 ..............................
........................................................................
   1   -330.7407135 -0.330741E+03  0.121E-01    0.51       0.0  T
   2   -330.7407390 -0.254919E-04  0.675E-02    0.50       1.0  T
   3   -330.7406638  0.751975E-04  0.202E-02    0.51       1.0  T
   4   -330.7407412 -0.774121E-04  0.856E-03    0.50       1.0  T
   5   -330.7407494 -0.820433E-05  0.428E-03    0.50       1.7  T
   6   -330.7407520 -0.261536E-05  0.178E-03    0.50       4.0  T
   7   -330.7407525 -0.454342E-06  0.689E-04    0.50      10.4  T
   8   -330.7407525 -0.605436E-07  0.362E-04    0.50      19.9  T
     SCC iter.                  ...        0 min,  0.298 sec
     gradient                   ...        0 min,  0.116 sec
 * total energy  :  -325.5802698 Eh     change       -0.2308171E-02 Eh
   gradient norm :     0.0157694 Eh/α   predicted    -0.2392692E-02 (   3.66%)
   displ. norm   :     0.7782472 α      lambda       -0.2547186E-02
   maximum displ.:     0.2426785 α      in ANC's #28, #9, #8, ...

........................................................................
.............................. CYCLE   30 ..............................
........................................................................
   1   -330.7446834 -0.330745E+03  0.111E-01    0.49       0.0  T
   2   -330.7447063 -0.229372E-04  0.617E-02    0.49       1.0  T
   3   -330.7446816  0.247750E-04  0.145E-02    0.49       1.0  T
   4   -330.7447109 -0.293046E-04  0.657E-03    0.49       1.1  T
   5   -330.7447140 -0.314689E-05  0.312E-03    0.49       2.3  T
   6   -330.7447155 -0.146197E-05  0.125E-03    0.49       5.7  T
   7   -330.7447156 -0.183716E-06  0.653E-04    0.49      11.0  T
   8   -330.7447157 -0.472542E-07  0.361E-04    0.49      19.9  T
     SCC iter.                  ...        0 min,  0.279 sec
     gradient                   ...        0 min,  0.116 sec
 * total energy  :  -325.5823489 Eh     change       -0.2079157E-02 Eh
   gradient norm :     0.0198554 Eh/α   predicted    -0.2044969E-02 (  -1.64%)
   displ. norm   :     0.8203603 α      lambda       -0.2470765E-02
   maximum displ.:     0.2706356 α      in ANC's #28, #9, #8, ...

........................................................................
.............................. CYCLE   31 ..............................
........................................................................
   1   -330.7566055 -0.330757E+03  0.106E-01    0.49       0.0  T
   2   -330.7566171 -0.116344E-04  0.600E-02    0.48       1.0  T
   3   -330.7564778  0.139355E-03  0.272E-02    0.49       1.0  T
   4   -330.7566217 -0.143906E-03  0.829E-03    0.48       1.0  T
   5   -330.7566289 -0.721708E-05  0.437E-03    0.48       1.6  T
   6   -330.7566317 -0.286682E-05  0.129E-03    0.48       5.6  T
   7   -330.7566319 -0.152303E-06  0.705E-04    0.48      10.2  T
   8   -330.7566319 -0.379766E-07  0.430E-04    0.48      16.8  T
     SCC iter.                  ...        0 min,  0.286 sec
     gradient                   ...        0 min,  0.116 sec
 * total energy  :  -325.5843086 Eh     change       -0.1959678E-02 Eh
   gradient norm :     0.0209010 Eh/α   predicted    -0.2066791E-02 (   5.47%)
   displ. norm   :     0.8125465 α      lambda       -0.2494798E-02
   maximum displ.:     0.2559475 α      in ANC's #28, #9, #8, ...

........................................................................
.............................. CYCLE   32 ..............................
........................................................................
   1   -330.7441406 -0.330744E+03  0.125E-01    0.48       0.0  T
   2   -330.7441680 -0.274591E-04  0.700E-02    0.47       1.0  T
   3   -330.7440054  0.162616E-03  0.288E-02    0.47       1.0  T
   4   -330.7441808 -0.175388E-03  0.790E-03    0.47       1.0  T
   5   -330.7441862 -0.542870E-05  0.413E-03    0.47       1.7  T
   6   -330.7441885 -0.226760E-05  0.154E-03    0.47       4.7  T
   7   -330.7441889 -0.358509E-06  0.707E-04    0.47      10.2  T
   8   -330.7441889 -0.712137E-07  0.314E-04    0.47      22.9  T
     SCC iter.                  ...        0 min,  0.287 sec
     gradient                   ...        0 min,  0.116 sec
 * total energy  :  -325.5861264 Eh     change       -0.1817848E-02 Eh
   gradient norm :     0.0233991 Eh/α   predicted    -0.2070988E-02 (  13.93%)
   displ. norm   :     0.7181531 α      lambda       -0.2451623E-02
   maximum displ.:     0.2312308 α      in ANC's #28, #9, #8, ...

........................................................................
.............................. CYCLE   33 ..............................
........................................................................
   1   -330.7650036 -0.330765E+03  0.104E-01    0.47       0.0  T
   2   -330.7650210 -0.173708E-04  0.589E-02    0.47       1.0  T
   3   -330.7648531  0.167951E-03  0.299E-02    0.46       1.0  T
   4   -330.7650333 -0.180236E-03  0.786E-03    0.47       1.0  T
   5   -330.7650380 -0.473502E-05  0.535E-03    0.47       1.3  T
   6   -330.7650421 -0.409655E-05  0.132E-03    0.47       5.5  T
   7   -330.7650423 -0.165503E-06  0.690E-04    0.47      10.4  T
   8   -330.7650424 -0.627505E-07  0.346E-04    0.47      20.8  T
     SCC iter.                  ...        0 min,  0.286 sec
     gradient                   ...        0 min,  0.116 sec
 * total energy  :  -325.5878637 Eh     change       -0.1737295E-02 Eh
   gradient norm :     0.0203000 Eh/α   predicted    -0.1858003E-02 (   6.95%)
   displ. norm   :     0.7953694 α      lambda       -0.2251894E-02
   maximum displ.:     0.2729245 α      in ANC's #28, #9, #8, ...

........................................................................
.............................. CYCLE   34 ..............................
........................................................................
   1   -330.7580554 -0.330758E+03  0.110E-01    0.46       0.0  T
   2   -330.7580730 -0.176113E-04  0.616E-02    0.46       1.0  T
   3   -330.7580048  0.682435E-04  0.203E-02    0.46       1.0  T
   4   -330.7580769 -0.721506E-04  0.702E-03    0.46       1.0  T
   5   -330.7580805 -0.359005E-05  0.436E-03    0.46       1.7  T
   6   -330.7580836 -0.311390E-05  0.127E-03    0.46       5.7  T
   7   -330.7580839 -0.224779E-06  0.578E-04    0.46      12.5  T
   8   -330.7580839 -0.410990E-07  0.266E-04    0.46      27.0  T
     SCC iter.                  ...        0 min,  0.287 sec
     gradient                   ...        0 min,  0.116 sec
 * total energy  :  -325.5897463 Eh     change       -0.1882617E-02 Eh
   gradient norm :     0.0147224 Eh/α   predicted    -0.1838225E-02 (  -2.36%)
   displ. norm   :     0.7974559 α      lambda       -0.2137986E-02
   maximum displ.:     0.2778392 α      in ANC's #9, #8, #28, ...

........................................................................
.............................. CYCLE   35 ..............................
........................................................................
   1   -330.7650532 -0.330765E+03  0.107E-01    0.45       0.0  T
   2   -330.7650675 -0.143431E-04  0.607E-02    0.45       1.0  T
   3   -330.7649609  0.106640E-03  0.242E-02    0.45       1.0  T
   4   -330.7650740 -0.113094E-03  0.702E-03    0.45       1.0  T
   5   -330.7650776 -0.360058E-05  0.457E-03    0.45       1.6  T
   6   -330.7650810 -0.336749E-05  0.111E-03    0.45       6.5  T
   7   -330.7650811 -0.152620E-06  0.601E-04    0.45      12.0  T
   8   -330.7650812 -0.318902E-07  0.318E-04    0.45      22.6  T
     SCC iter.                  ...        0 min,  0.291 sec
     gradient                   ...        0 min,  0.116 sec
 * total energy  :  -325.5916123 Eh     change       -0.1866001E-02 Eh
   gradient norm :     0.0136179 Eh/α   predicted    -0.1748802E-02 (  -6.28%)
   displ. norm   :     0.8586344 α      lambda       -0.2180697E-02
   maximum displ.:     0.2940842 α      in ANC's #28, #9, #8, ...

........................................................................
.............................. CYCLE   36 ..............................
........................................................................
   1   -330.7557691 -0.330756E+03  0.115E-01    0.45       0.0  T
   2   -330.7557874 -0.183509E-04  0.650E-02    0.44       1.0  T
   3   -330.7557317  0.557249E-04  0.190E-02    0.44       1.0  T
   4   -330.7557916 -0.599155E-04  0.672E-03    0.44       1.1  T
   5   -330.7557932 -0.158250E-05  0.467E-03    0.44       1.5  T
   6   -330.7557971 -0.391900E-05  0.127E-03    0.44       5.7  T
   7   -330.7557974 -0.268326E-06  0.591E-04    0.44      12.2  T
   8   -330.7557974 -0.366177E-07  0.317E-04    0.44      22.7  T
     SCC iter.                  ...        0 min,  0.287 sec
     gradient                   ...        0 min,  0.116 sec
 * total energy  :  -325.5935091 Eh     change       -0.1896722E-02 Eh
   gradient norm :     0.0127680 Eh/α   predicted    -0.1894221E-02 (  -0.13%)
   displ. norm   :     0.8257265 α      lambda       -0.2334476E-02
   maximum displ.:     0.2877994 α      in ANC's #9, #8, #28, ...

........................................................................
.............................. CYCLE   37 ..............................
........................................................................
   1   -330.7706856 -0.330771E+03  0.112E-01    0.44       0.0  T
   2   -330.7707025 -0.168948E-04  0.638E-02    0.43       1.0  T
   3   -330.7706429  0.596345E-04  0.194E-02    0.43       1.0  T
   4   -330.7707094 -0.664985E-04  0.655E-03    0.43       1.1  T
   5   -330.7707114 -0.202998E-05  0.340E-03    0.43       2.1  T
   6   -330.7707130 -0.161894E-05  0.118E-03    0.43       6.1  T
   7   -330.7707131 -0.109297E-06  0.686E-04    0.43      10.5  T
   8   -330.7707132 -0.198520E-07  0.411E-04    0.43      17.5  T
     SCC iter.                  ...        0 min,  0.291 sec
     gradient                   ...        0 min,  0.116 sec
 * total energy  :  -325.5954533 Eh     change       -0.1944233E-02 Eh
   gradient norm :     0.0132018 Eh/α   predicted    -0.1963093E-02 (   0.97%)
   displ. norm   :     0.8739531 α      lambda       -0.2119766E-02
   maximum displ.:     0.3081420 α      in ANC's #9, #8, #28, ...

........................................................................
.............................. CYCLE   38 ..............................
........................................................................
   1   -330.7663581 -0.330766E+03  0.118E-01    0.43       0.0  T
   2   -330.7663773 -0.192655E-04  0.667E-02    0.42       1.0  T
   3   -330.7663370  0.403200E-04  0.176E-02    0.42       1.0  T
   4   -330.7663829 -0.458878E-04  0.622E-03    0.42       1.2  T
   5   -330.7663843 -0.136308E-05  0.318E-03    0.42       2.3  T
   6   -330.7663861 -0.180485E-05  0.108E-03    0.42       6.7  T
   7   -330.7663862 -0.151689E-06  0.546E-04    0.42      13.2  T
   8   -330.7663862 -0.118080E-07  0.387E-04    0.42      18.6  T
     SCC iter.                  ...        0 min,  0.294 sec
     gradient                   ...        0 min,  0.116 sec
 * total energy  :  -325.5973736 Eh     change       -0.1920264E-02 Eh
   gradient norm :     0.0121366 Eh/α   predicted    -0.1869411E-02 (  -2.65%)
   displ. norm   :     0.8452129 α      lambda       -0.2192055E-02
   maximum displ.:     0.3042212 α      in ANC's #9, #8, #28, ...

........................................................................
.............................. CYCLE   39 ..............................
........................................................................
   1   -330.7687389 -0.330769E+03  0.111E-01    0.42       0.0  T
   2   -330.7687530 -0.141735E-04  0.629E-02    0.41       1.0  T
   3   -330.7686419  0.111134E-03  0.250E-02    0.42       1.0  T
   4   -330.7687545 -0.112593E-03  0.885E-03    0.41       1.0  T
   5   -330.7687637 -0.921469E-05  0.436E-03    0.41       1.7  T
   6   -330.7687662 -0.244573E-05  0.140E-03    0.41       5.2  T
   7   -330.7687664 -0.219331E-06  0.793E-04    0.41       9.1  T
   8   -330.7687664 -0.636708E-07  0.485E-04    0.41      14.9  T
     SCC iter.                  ...        0 min,  0.303 sec
     gradient                   ...        0 min,  0.116 sec
 * total energy  :  -325.5993511 Eh     change       -0.1977560E-02 Eh
   gradient norm :     0.0131256 Eh/α   predicted    -0.1879011E-02 (  -4.98%)
   displ. norm   :     0.8758439 α      lambda       -0.2266272E-02
   maximum displ.:     0.3125355 α      in ANC's #9, #8, #28, ...

........................................................................
.............................. CYCLE   40 ..............................
........................................................................
   1   -330.7594454 -0.330759E+03  0.119E-01    0.41       0.0  T
   2   -330.7594635 -0.181511E-04  0.675E-02    0.40       1.0  T
   3   -330.7593289  0.134625E-03  0.265E-02    0.41       1.0  T
   4   -330.7594666 -0.137690E-03  0.866E-03    0.40       1.0  T
   5   -330.7594759 -0.931461E-05  0.425E-03    0.40       1.7  T
   6   -330.7594781 -0.219981E-05  0.148E-03    0.40       4.9  T
   7   -330.7594784 -0.262016E-06  0.778E-04    0.40       9.3  T
   8   -330.7594784 -0.871814E-07  0.443E-04    0.40      16.2  T
     SCC iter.                  ...        0 min,  0.280 sec
     gradient                   ...        0 min,  0.116 sec
 * total energy  :  -325.6012654 Eh     change       -0.1914312E-02 Eh
   gradient norm :     0.0170832 Eh/α   predicted    -0.2002373E-02 (   4.60%)
   displ. norm   :     0.7965250 α      lambda       -0.2521560E-02
   maximum displ.:     0.2717984 α      in ANC's #9, #8, #57, ...

........................................................................
.............................. CYCLE   41 ..............................
........................................................................
   1   -330.7825622 -0.330783E+03  0.122E-01    0.40       0.0  T
   2   -330.7825874 -0.252190E-04  0.699E-02    0.39       1.0  T
   3   -330.7823737  0.213772E-03  0.327E-02    0.41       1.0  T
   4   -330.7826013 -0.227698E-03  0.899E-03    0.39       1.0  T
   5   -330.7826121 -0.107189E-04  0.427E-03    0.39       1.7  T
   6   -330.7826138 -0.176397E-05  0.195E-03    0.40       3.7  T
   7   -330.7826143 -0.443364E-06  0.950E-04    0.39       7.6  T
   8   -330.7826144 -0.820490E-07  0.582E-04    0.40      12.4  T
     SCC iter.                  ...        0 min,  0.302 sec
     gradient                   ...        0 min,  0.116 sec
 * total energy  :  -325.6029543 Eh     change       -0.1688849E-02 Eh
   gradient norm :     0.0213572 Eh/α   predicted    -0.2060685E-02 (  22.02%)
   displ. norm   :     0.8065100 α      lambda       -0.2447554E-02
   maximum displ.:     0.2847987 α      in ANC's #9, #8, #28, ...

........................................................................
.............................. CYCLE   42 ..............................
........................................................................
   1   -330.7658892 -0.330766E+03  0.114E-01    0.40       0.0  T
   2   -330.7659125 -0.233035E-04  0.646E-02    0.39       1.0  T
   3   -330.7658776  0.349305E-04  0.167E-02    0.39       1.0  T
   4   -330.7659167 -0.390794E-04  0.674E-03    0.39       1.1  T
   5   -330.7659193 -0.259925E-05  0.353E-03    0.39       2.0  T
   6   -330.7659210 -0.175564E-05  0.163E-03    0.39       4.4  T
   7   -330.7659214 -0.406255E-06  0.859E-04    0.39       8.4  T
   8   -330.7659215 -0.489761E-07  0.484E-04    0.39      14.9  T
     SCC iter.                  ...        0 min,  0.278 sec
     gradient                   ...        0 min,  0.116 sec
 * total energy  :  -325.6048233 Eh     change       -0.1869035E-02 Eh
   gradient norm :     0.0228904 Eh/α   predicted    -0.2019785E-02 (   8.07%)
   displ. norm   :     0.6765327 α      lambda       -0.2540303E-02
   maximum displ.:     0.2381087 α      in ANC's #9, #8, #28, ...
 * RMSD in coord.:     1.0547080 α      energy gain  -0.4490904E-01 Eh

generating ANC from model Hessian ...
Using Lindh-Hessian (1995)
 Shifting diagonal of input Hessian by   9.994620044947600E-003
 Lowest  eigenvalues of input Hessian
    0.000000    0.000000    0.000000    0.000000    0.000000    0.000000
    0.010000    0.010001    0.010002    0.010014    0.010032    0.010036
    0.010048    0.010056    0.010057    0.010081    0.010089    0.010115
 Highest eigenvalues
    2.264611    2.270817    2.614365    2.617309    2.659516    2.667867
 

........................................................................
.............................. CYCLE   43 ..............................
........................................................................
   1   -330.7672223 -0.330767E+03  0.984E-02    0.39       0.0  T
   2   -330.7672491 -0.268063E-04  0.570E-02    0.39       1.0  T
   3   -330.7671241  0.125026E-03  0.277E-02    0.39       1.0  T
   4   -330.7672574 -0.133312E-03  0.779E-03    0.39       1.0  T
   5   -330.7672674 -0.100346E-04  0.392E-03    0.39       1.8  T
   6   -330.7672693 -0.188575E-05  0.154E-03    0.39       4.7  T
   7   -330.7672695 -0.174270E-06  0.791E-04    0.39       9.1  T
   8   -330.7672695 -0.538849E-07  0.415E-04    0.39      17.4  T
     SCC iter.                  ...        0 min,  0.275 sec
     gradient                   ...        0 min,  0.116 sec
 * total energy  :  -325.6061677 Eh     change       -0.1344367E-02 Eh
   gradient norm :     0.0302674 Eh/α   predicted     0.0000000E+00 (-100.00%)
   displ. norm   :     0.2376939 α      lambda       -0.1856449E-02
   maximum displ.:     0.0963098 α      in ANC's #35, #33, #7, ...

........................................................................
.............................. CYCLE   44 ..............................
........................................................................
   1   -330.7756430 -0.330776E+03  0.669E-02    0.39       0.0  T
   2   -330.7756550 -0.120425E-04  0.382E-02    0.39       1.0  T
   3   -330.7756080  0.470240E-04  0.181E-02    0.39       1.0  T
   4   -330.7756629 -0.548904E-04  0.353E-03    0.39       2.0  T
   5   -330.7756637 -0.788962E-06  0.206E-03    0.39       3.5  T
   6   -330.7756641 -0.405203E-06  0.817E-04    0.39       8.8  T
   7   -330.7756642 -0.709270E-07  0.377E-04    0.39      19.1  T
     SCC iter.                  ...        0 min,  0.242 sec
     gradient                   ...        0 min,  0.116 sec
 * total energy  :  -325.6073608 Eh     change       -0.1193070E-02 Eh
   gradient norm :     0.0101791 Eh/α   predicted    -0.9813088E-03 ( -17.75%)
   displ. norm   :     0.4232283 α      lambda       -0.1592353E-02
   maximum displ.:     0.1783490 α      in ANC's #35, #33, #7, ...

........................................................................
.............................. CYCLE   45 ..............................
........................................................................
   1   -330.7877335 -0.330788E+03  0.100E-01    0.39       0.0  T
   2   -330.7877556 -0.220819E-04  0.562E-02    0.38       1.0  T
   3   -330.7877062  0.493370E-04  0.188E-02    0.39       1.0  T
   4   -330.7877654 -0.591673E-04  0.469E-03    0.38       1.5  T
   5   -330.7877662 -0.822977E-06  0.297E-03    0.39       2.4  T
   6   -330.7877673 -0.104760E-05  0.109E-03    0.39       6.6  T
   7   -330.7877675 -0.198338E-06  0.567E-04    0.39      12.7  T
   8   -330.7877675 -0.324681E-07  0.296E-04    0.39      24.3  T
     SCC iter.                  ...        0 min,  0.279 sec
     gradient                   ...        0 min,  0.118 sec
 * total energy  :  -325.6082114 Eh     change       -0.8506305E-03 Eh
   gradient norm :     0.0211838 Eh/α   predicted    -0.9388223E-03 (  10.37%)
   displ. norm   :     0.4991539 α      lambda       -0.1595078E-02
   maximum displ.:     0.2167741 α      in ANC's #35, #33, #7, ...

........................................................................
.............................. CYCLE   46 ..............................
........................................................................
   1   -330.7923631 -0.330792E+03  0.967E-02    0.39       0.0  T
   2   -330.7923823 -0.191524E-04  0.541E-02    0.39       1.0  T
   3   -330.7923502  0.320421E-04  0.148E-02    0.39       1.0  T
   4   -330.7923878 -0.375395E-04  0.520E-03    0.39       1.4  T
   5   -330.7923892 -0.140646E-05  0.326E-03    0.39       2.2  T
   6   -330.7923907 -0.156835E-05  0.105E-03    0.39       6.8  T
   7   -330.7923909 -0.172662E-06  0.516E-04    0.39      13.9  T
   8   -330.7923909 -0.274272E-07  0.271E-04    0.39      26.5  T
     SCC iter.                  ...        0 min,  0.280 sec
     gradient                   ...        0 min,  0.116 sec
 * total energy  :  -325.6094266 Eh     change       -0.1215159E-02 Eh
   gradient norm :     0.0217099 Eh/α   predicted    -0.9962529E-03 ( -18.01%)
   displ. norm   :     0.6769729 α      lambda       -0.2532333E-02
   maximum displ.:     0.2929885 α      in ANC's #35, #33, #7, ...

........................................................................
.............................. CYCLE   47 ..............................
........................................................................
   1   -330.7855217 -0.330786E+03  0.159E-01    0.39       0.0  T
   2   -330.7855702 -0.485179E-04  0.886E-02    0.39       1.0  T
   3   -330.7855057  0.645390E-04  0.213E-02    0.39       1.0  T
   4   -330.7855845 -0.787728E-04  0.759E-03    0.39       1.0  T
   5   -330.7855883 -0.384697E-05  0.483E-03    0.39       1.5  T
   6   -330.7855916 -0.329185E-05  0.155E-03    0.39       4.6  T
   7   -330.7855919 -0.253115E-06  0.831E-04    0.39       8.7  T
   8   -330.7855919 -0.673363E-07  0.447E-04    0.39      16.1  T
     SCC iter.                  ...        0 min,  0.298 sec
     gradient                   ...        0 min,  0.116 sec
 * total energy  :  -325.6107738 Eh     change       -0.1347199E-02 Eh
   gradient norm :     0.0253678 Eh/α   predicted    -0.1846441E-02 (  37.06%)
   displ. norm   :     0.5423675 α      lambda       -0.2472945E-02
   maximum displ.:     0.2363287 α      in ANC's #35, #7, #33, ...

........................................................................
.............................. CYCLE   48 ..............................
........................................................................
   1   -330.7793937 -0.330779E+03  0.116E-01    0.39       0.0  T
   2   -330.7794220 -0.282506E-04  0.652E-02    0.39       1.0  T
   3   -330.7794001  0.218467E-04  0.138E-02    0.39       1.0  T
   4   -330.7794287 -0.286056E-04  0.549E-03    0.39       1.3  T
   5   -330.7794310 -0.222678E-05  0.326E-03    0.39       2.2  T
   6   -330.7794323 -0.135643E-05  0.139E-03    0.39       5.2  T
   7   -330.7794326 -0.246347E-06  0.715E-04    0.39      10.1  T
   8   -330.7794326 -0.404135E-07  0.373E-04    0.39      19.3  T
     SCC iter.                  ...        0 min,  0.304 sec
     gradient                   ...        0 min,  0.116 sec
 * total energy  :  -325.6124643 Eh     change       -0.1690523E-02 Eh
   gradient norm :     0.0205181 Eh/α   predicted    -0.1600196E-02 (  -5.34%)
   displ. norm   :     0.6715493 α      lambda       -0.2110818E-02
   maximum displ.:     0.2742222 α      in ANC's #35, #33, #7, ...

........................................................................
.............................. CYCLE   49 ..............................
........................................................................
   1   -330.7740795 -0.330774E+03  0.126E-01    0.39       0.0  T
   2   -330.7741112 -0.316539E-04  0.705E-02    0.39       1.0  T
   3   -330.7740838  0.273539E-04  0.147E-02    0.39       1.0  T
   4   -330.7741203 -0.365123E-04  0.593E-03    0.39       1.2  T
   5   -330.7741231 -0.272143E-05  0.282E-03    0.39       2.6  T
   6   -330.7741241 -0.108778E-05  0.117E-03    0.39       6.2  T
   7   -330.7741243 -0.139038E-06  0.570E-04    0.39      12.6  T
   8   -330.7741243 -0.169417E-07  0.402E-04    0.39      17.9  T
     SCC iter.                  ...        0 min,  0.294 sec
     gradient                   ...        0 min,  0.116 sec
 * total energy  :  -325.6138515 Eh     change       -0.1387272E-02 Eh
   gradient norm :     0.0177039 Eh/α   predicted    -0.1531377E-02 (  10.39%)
   displ. norm   :     0.6491048 α      lambda       -0.2414712E-02
   maximum displ.:     0.2687294 α      in ANC's #35, #7, #33, ...

........................................................................
.............................. CYCLE   50 ..............................
........................................................................
   1   -330.7807408 -0.330781E+03  0.119E-01    0.39       0.0  T
   2   -330.7807706 -0.298137E-04  0.669E-02    0.39       1.0  T
   3   -330.7807410  0.295805E-04  0.145E-02    0.39       1.0  T
   4   -330.7807796 -0.385633E-04  0.571E-03    0.39       1.3  T
   5   -330.7807817 -0.209591E-05  0.323E-03    0.39       2.2  T
   6   -330.7807831 -0.145223E-05  0.131E-03    0.39       5.5  T
   7   -330.7807833 -0.197778E-06  0.600E-04    0.39      12.0  T
   8   -330.7807834 -0.406260E-07  0.326E-04    0.39      22.1  T
     SCC iter.                  ...        0 min,  0.295 sec
     gradient                   ...        0 min,  0.115 sec
 * total energy  :  -325.6153648 Eh     change       -0.1513245E-02 Eh
   gradient norm :     0.0201903 Eh/α   predicted    -0.1716058E-02 (  13.40%)
   displ. norm   :     0.6504603 α      lambda       -0.2092279E-02
   maximum displ.:     0.2631189 α      in ANC's #35, #7, #33, ...

........................................................................
.............................. CYCLE   51 ..............................
........................................................................
   1   -330.7891797 -0.330789E+03  0.100E-01    0.39       0.0  T
   2   -330.7891984 -0.186974E-04  0.568E-02    0.39       1.0  T
   3   -330.7891575  0.409194E-04  0.150E-02    0.39       1.0  T
   4   -330.7892016 -0.441006E-04  0.606E-03    0.39       1.2  T
   5   -330.7892058 -0.424795E-05  0.294E-03    0.39       2.4  T
   6   -330.7892068 -0.962685E-06  0.142E-03    0.39       5.1  T
   7   -330.7892070 -0.253347E-06  0.615E-04    0.39      11.7  T
   8   -330.7892071 -0.392510E-07  0.355E-04    0.39      20.3  T
     SCC iter.                  ...        0 min,  0.291 sec
     gradient                   ...        0 min,  0.115 sec
 * total energy  :  -325.6170149 Eh     change       -0.1650158E-02 Eh
   gradient norm :     0.0121015 Eh/α   predicted    -0.1488765E-02 (  -9.78%)
   displ. norm   :     0.8220368 α      lambda       -0.2108139E-02
   maximum displ.:     0.3243827 α      in ANC's #33, #35, #7, ...

........................................................................
.............................. CYCLE   52 ..............................
........................................................................
   1   -330.7856482 -0.330786E+03  0.128E-01    0.39       0.0  T
   2   -330.7856774 -0.291866E-04  0.714E-02    0.39       1.0  T
   3   -330.7855715  0.105901E-03  0.237E-02    0.39       1.0  T
   4   -330.7856867 -0.115281E-03  0.850E-03    0.39       1.0  T
   5   -330.7856916 -0.483046E-05  0.476E-03    0.39       1.5  T
   6   -330.7856948 -0.318945E-05  0.189E-03    0.39       3.8  T
   7   -330.7856952 -0.479865E-06  0.849E-04    0.39       8.5  T
   8   -330.7856953 -0.855024E-07  0.463E-04    0.39      15.5  T
     SCC iter.                  ...        0 min,  0.292 sec
     gradient                   ...        0 min,  0.115 sec
 * total energy  :  -325.6186793 Eh     change       -0.1664327E-02 Eh
   gradient norm :     0.0163872 Eh/α   predicted    -0.1766354E-02 (   6.13%)
   displ. norm   :     0.7438152 α      lambda       -0.2044732E-02
   maximum displ.:     0.2920932 α      in ANC's #7, #33, #35, ...

........................................................................
.............................. CYCLE   53 ..............................
........................................................................
   1   -330.8033458 -0.330803E+03  0.100E-01    0.39       0.0  T
   2   -330.8033663 -0.205630E-04  0.565E-02    0.39       1.0  T
   3   -330.8032351  0.131174E-03  0.252E-02    0.39       1.0  T
   4   -330.8033748 -0.139687E-03  0.825E-03    0.39       1.0  T
   5   -330.8033830 -0.814269E-05  0.362E-03    0.39       2.0  T
   6   -330.8033837 -0.752846E-06  0.196E-03    0.39       3.7  T
   7   -330.8033843 -0.564239E-06  0.856E-04    0.39       8.4  T
   8   -330.8033844 -0.640758E-07  0.467E-04    0.39      15.4  T
     SCC iter.                  ...        0 min,  0.290 sec
     gradient                   ...        0 min,  0.115 sec
 * total energy  :  -325.6201228 Eh     change       -0.1443495E-02 Eh
   gradient norm :     0.0191757 Eh/α   predicted    -0.1587999E-02 (  10.01%)
   displ. norm   :     0.8123083 α      lambda       -0.2312786E-02
   maximum displ.:     0.3244583 α      in ANC's #35, #7, #33, ...

........................................................................
.............................. CYCLE   54 ..............................
........................................................................
   1   -330.7953419 -0.330795E+03  0.124E-01    0.39       0.0  T
   2   -330.7953713 -0.293921E-04  0.697E-02    0.39       1.0  T
   3   -330.7952500  0.121288E-03  0.253E-02    0.39       1.0  T
   4   -330.7953841 -0.134125E-03  0.779E-03    0.39       1.0  T
[...]
                           123 C    0.950
   122   6 C    3.994 --   121 C    0.989   118 C    0.989   192 H    0.978
                           191 H    0.974
   123   6 C    3.984 --   107 C    0.993   117 C    0.975   193 H    0.960
                           121 C    0.950
   124   1 H    0.995 --     1 C    0.940
   125   1 H    0.996 --     6 C    0.964
   126   1 H    0.996 --     9 C    0.958
   127   1 H    0.997 --    17 C    0.960
   128   1 H    0.998 --    18 C    0.972
   129   1 H    0.999 --    19 C    0.971
   130   1 H    0.999 --    20 C    0.972
   131   1 H    0.999 --    21 C    0.972
   132   1 H    0.998 --    22 C    0.978
   133   1 H    0.996 --    22 C    0.977
   134   1 H    0.996 --    23 C    0.960
   135   1 H    0.997 --    25 C    0.963
   136   1 H    0.997 --    26 C    0.960
   137   1 H    0.998 --    33 C    0.965
   138   1 H    0.998 --    34 C    0.965
   139   1 H    0.997 --    37 C    0.982
   140   1 H    0.996 --    37 C    0.979
   141   1 H    0.996 --    37 C    0.982
   142   1 H    0.997 --    38 C    0.967
   143   1 H    0.998 --    39 C    0.963
   144   1 H    0.999 --    41 C    0.962
   145   1 H    0.997 --    42 C    0.959
   146   1 H    0.996 --    45 C    0.979
   147   1 H    0.996 --    45 C    0.979
   148   1 H    0.996 --    45 C    0.982
   149   1 H    0.997 --    46 C    0.967
   150   1 H    0.995 --    47 C    0.951
   151   1 H    0.998 --    54 C    0.966
   152   1 H    0.998 --    55 C    0.965
   153   1 H    0.995 --    58 C    0.978
   154   1 H    0.996 --    58 C    0.982
   155   1 H    0.996 --    58 C    0.982
   156   1 H    0.997 --    59 C    0.967
   157   1 H    0.998 --    60 C    0.966
   158   1 H    0.998 --    62 C    0.965
   159   1 H    0.997 --    63 C    0.964
   160   1 H    0.996 --    66 C    0.982
   161   1 H    0.996 --    66 C    0.980
   162   1 H    0.995 --    66 C    0.979
   163   1 H    0.995 --    67 C    0.960
   164   1 H    0.999 --    68 C    0.967
   165   1 H    0.999 --    81 C    0.970
   166   1 H    0.997 --    82 C    0.970
   167   1 H    0.998 --    83 C    0.964
   168   1 H    0.997 --    86 C    0.969
   169   1 H    0.999 --    86 C    0.966
   170   1 H    0.998 --    87 C    0.985
   171   1 H    0.998 --    87 C    0.985
   172   1 H    0.998 --    87 C    0.984
   173   1 H    0.997 --    88 C    0.963
   174   1 H    0.998 --    93 C    0.963
   175   1 H    0.997 --    94 C    0.970
   176   1 H    0.997 --    95 C    0.966
   177   1 H    0.999 --    98 C    0.965
   178   1 H    0.999 --    98 C    0.969
   179   1 H    0.997 --    99 C    0.986
   180   1 H    0.997 --    99 C    0.984
   181   1 H    0.997 --    99 C    0.984
   182   1 H    0.998 --   100 C    0.961
   183   1 H    0.992 --   101 C    0.940
   184   1 H    0.996 --   106 C    0.962
   185   1 H    0.997 --   109 C    0.959
   186   1 H    0.997 --   117 C    0.962
   187   1 H    0.998 --   118 C    0.971
   188   1 H    0.998 --   119 C    0.971
   189   1 H    0.999 --   120 C    0.971
   190   1 H    0.999 --   121 C    0.971
   191   1 H    0.999 --   122 C    0.974
   192   1 H    0.998 --   122 C    0.978
   193   1 H    0.996 --   123 C    0.960
 ---------------------------------------------------------------------------

Topologies differ in bond orders
Writing corrected topology to xtbtopo.mol

molecular dipole:
                 x           y           z       tot (Debye)
 q only:        1.949      -3.732       1.368
   full:        2.514      -3.744       1.607      12.169
molecular quadrupole (traceless):
                xx          xy          yy          xz          yz          zz
 q only:      -84.005     -65.206       3.352     -40.329     -12.027      80.653
  q+dip:      -87.248     -79.501      12.680     -49.240     -25.742      74.568
   full:      -87.954     -77.850      11.597     -57.184     -26.220      76.357

           -------------------------------------------------
          |                Geometry Summary                 |
           -------------------------------------------------

      molecular mass/u    :     1781.0470790
   center of mass at/Å    :       -0.4214594       0.2310074      -0.1816379
  moments of inertia/u·Å² :        0.2767803E+05   0.1016116E+06   0.1118249E+06
rotational constants/cm⁻¹ :        0.6090619E-03   0.1659027E-03   0.1507502E-03

 * 184 selected distances

     #   Z          #   Z                                           value/Å
     1   6 C        2   6 C                                       1.3749135
     3   6 C        4   8 O                                       1.2268385
     5   6 C        6   6 C                                       1.3925742
     6   6 C        7   6 C                                       1.3744576
     7   6 C        8   6 C                                       1.4005569
     8   6 C        9   6 C                                       1.3753543
     5   6 C       10   6 C                                       1.4104541
     9   6 C       10   6 C                                       1.3966777
    11   6 C       12   6 C                                       1.3714302
    13   6 C       14   7 N                                       1.1484323
    15   6 C       16   7 N                                       1.1491361
     8   6 C       17   6 C                                       1.5080260
    17   6 C       18   6 C                                       1.5486152
    19   6 C       20   6 C                                       1.3262498
    18   6 C       22   6 C                                       1.5370060
    21   6 C       22   6 C                                       1.5370332
     7   6 C       23   6 C                                       1.5082452
    17   6 C       23   6 C                                       1.5612743
    21   6 C       23   6 C                                       1.5491115
     1   6 C       24   6 C                                       1.4006906
    24   6 C       25   6 C                                       1.4014369
    25   6 C       26   6 C                                       1.3785411
    26   6 C       27   6 C                                       1.3915233
    24   6 C       28  34 Se                                      1.8903899 (max)
    27   6 C       28  34 Se                                      1.8703874
    27   6 C       29   6 C                                       1.4112715
    29   6 C       30   6 C                                       1.3868967
    30   6 C       31   7 N                                       1.4041254
    31   7 N       32   6 C                                       1.4072352
    32   6 C       33   6 C                                       1.3896352
    33   6 C       34   6 C                                       1.3823139
    34   6 C       35   6 C                                       1.3873117
    35   6 C       38   6 C                                       1.3938028
    32   6 C       39   6 C                                       1.3955614
    38   6 C       39   6 C                                       1.3755600
    31   7 N       40   6 C                                       1.4106925
    40   6 C       41   6 C                                       1.3889381
    41   6 C       42   6 C                                       1.3825618
    42   6 C       43   6 C                                       1.3869921
    43   6 C       46   6 C                                       1.3946432
    40   6 C       47   6 C                                       1.3970700
    46   6 C       47   6 C                                       1.3762644
    30   6 C       48   6 C                                       1.4082798
    48   6 C       49  16 S                                       1.7269306
    49  16 S       50   6 C                                       1.7522511
    50   6 C       51   6 C                                       1.3925478
    51   6 C       52   7 N                                       1.3788968
    52   7 N       53   6 C                                       1.4028584
    53   6 C       54   6 C                                       1.3915751
    54   6 C       55   6 C                                       1.3811449
    55   6 C       56   6 C                                       1.3880248
    56   6 C       59   6 C                                       1.3948116
    53   6 C       60   6 C                                       1.3950155
    59   6 C       60   6 C                                       1.3757678
    52   7 N       61   6 C                                       1.4044326
    61   6 C       62   6 C                                       1.3927499
    62   6 C       63   6 C                                       1.3809257
    63   6 C       64   6 C                                       1.3884252
    64   6 C       67   6 C                                       1.3937312
    61   6 C       68   6 C                                       1.3955573
    67   6 C       68   6 C                                       1.3769686
    48   6 C       69   6 C                                       1.3899769
    51   6 C       69   6 C                                       1.4162527
    29   6 C       70  16 S                                       1.7579082
    69   6 C       70  16 S                                       1.7323953
    50   6 C       71   6 C                                       1.4353908
    71   6 C       72   6 C                                       1.3884184
    72   6 C       74   6 C                                       1.3938607
    74   6 C       76   6 C                                       1.3882858
    76   6 C       77   6 C                                       1.4223677
    77   6 C       78   7 N                                       1.3374538
    78   7 N       79   6 C                                       1.3081309
    80   6 C       81   6 C                                       1.3919621
    81   6 C       82   6 C                                       1.3811682
    82   6 C       83   6 C                                       1.3855176
    83   6 C       84   6 C                                       1.3913191
    84   6 C       85   8 O                                       1.3616892
    85   8 O       86   6 C                                       1.4138347
    86   6 C       87   6 C                                       1.5252709
    80   6 C       88   6 C                                       1.3825325
    84   6 C       88   6 C                                       1.3943665
    79   6 C       89   6 C                                       1.4297146
    89   6 C       90   7 N                                       1.3143808
    71   6 C       91   6 C                                       1.4220754
    77   6 C       91   6 C                                       1.4161090
    90   7 N       91   6 C                                       1.3360864
    92   6 C       93   6 C                                       1.3896738
    93   6 C       94   6 C                                       1.3853616
    94   6 C       95   6 C                                       1.3793359
    95   6 C       96   6 C                                       1.3972533
    96   6 C       97   8 O                                       1.3600898
    97   8 O       98   6 C                                       1.4167730
    98   6 C       99   6 C                                       1.5205500
    92   6 C      100   6 C                                       1.3966559
    96   6 C      100   6 C                                       1.3860244
   101   6 C      102   6 C                                       1.3557151
   103   6 C      104   8 O                                       1.2129253
   105   6 C      106   6 C                                       1.3941499
   106   6 C      107   6 C                                       1.3726829
   107   6 C      108   6 C                                       1.4020900
   108   6 C      109   6 C                                       1.3738497
   105   6 C      110   6 C                                       1.4086040
   109   6 C      110   6 C                                       1.3999220
   111   6 C      112   6 C                                       1.3684296
   113   6 C      114   7 N                                       1.1483482
   115   6 C      116   7 N                                       1.1479576
   108   6 C      117   6 C                                       1.5092556
   117   6 C      118   6 C                                       1.5433803
   119   6 C      120   6 C                                       1.3268594
   118   6 C      122   6 C                                       1.5340333
   121   6 C      122   6 C                                       1.5340335
   107   6 C      123   6 C                                       1.5075328
   117   6 C      123   6 C                                       1.5625414
   121   6 C      123   6 C                                       1.5436175
     1   6 C      124   1 H                                       1.0845884
     6   6 C      125   1 H                                       1.0787607
     9   6 C      126   1 H                                       1.0768986
    17   6 C      127   1 H                                       1.0880913
    18   6 C      128   1 H                                       1.0865987
    19   6 C      129   1 H                                       1.0742498
    20   6 C      130   1 H                                       1.0743400
    21   6 C      131   1 H                                       1.0869198
    22   6 C      132   1 H                                       1.0891554
    22   6 C      133   1 H                                       1.0889510
    23   6 C      134   1 H                                       1.0883380
    25   6 C      135   1 H                                       1.0783516
    26   6 C      136   1 H                                       1.0785360
    33   6 C      137   1 H                                       1.0794094
    34   6 C      138   1 H                                       1.0780417
    37   6 C      139   1 H                                       1.0860122
    37   6 C      140   1 H                                       1.0856062
    37   6 C      141   1 H                                       1.0861277
    38   6 C      142   1 H                                       1.0792485
    39   6 C      143   1 H                                       1.0805796
    41   6 C      144   1 H                                       1.0799955
    42   6 C      145   1 H                                       1.0768090
    45   6 C      146   1 H                                       1.0852523
    45   6 C      147   1 H                                       1.0856456
    45   6 C      148   1 H                                       1.0858911
    46   6 C      149   1 H                                       1.0790470
    47   6 C      150   1 H                                       1.0801982
    54   6 C      151   1 H                                       1.0798134
    55   6 C      152   1 H                                       1.0777449
    58   6 C      153   1 H                                       1.0856187
    58   6 C      154   1 H                                       1.0860484
    58   6 C      155   1 H                                       1.0861403
    59   6 C      156   1 H                                       1.0790980
    60   6 C      157   1 H                                       1.0797187
    62   6 C      158   1 H                                       1.0794791
    63   6 C      159   1 H                                       1.0776373
    66   6 C      160   1 H                                       1.0859161
    66   6 C      161   1 H                                       1.0857722
    66   6 C      162   1 H                                       1.0858266
    67   6 C      163   1 H                                       1.0777344
    68   6 C      164   1 H                                       1.0799107
    81   6 C      165   1 H                                       1.0798598
    82   6 C      166   1 H                                       1.0800461
    83   6 C      167   1 H                                       1.0785700
    86   6 C      168   1 H                                       1.0932360
    86   6 C      169   1 H                                       1.0967965
    87   6 C      170   1 H                                       1.0876037
    87   6 C      171   1 H                                       1.0863858
    87   6 C      172   1 H                                       1.0872991
    88   6 C      173   1 H                                       1.0768631
    93   6 C      174   1 H                                       1.0770137
    94   6 C      175   1 H                                       1.0798064
    95   6 C      176   1 H                                       1.0790542
    98   6 C      177   1 H                                       1.0982208
    98   6 C      178   1 H                                       1.0982210
    99   6 C      179   1 H                                       1.0865805
    99   6 C      180   1 H                                       1.0868697
    99   6 C      181   1 H                                       1.0859387
   100   6 C      182   1 H                                       1.0776814
   101   6 C      183   1 H                                       1.0827295
   106   6 C      184   1 H                                       1.0788502
   109   6 C      185   1 H                                       1.0773231
   117   6 C      186   1 H                                       1.0884614
   118   6 C      187   1 H                                       1.0864082
   119   6 C      188   1 H                                       1.0741677 (min)
   120   6 C      189   1 H                                       1.0743105
   121   6 C      190   1 H                                       1.0864934
   122   6 C      191   1 H                                       1.0883254
   122   6 C      192   1 H                                       1.0886184
   123   6 C      193   1 H                                       1.0878408

 * 6 distinct bonds (by element types)

   Z      Z             #   av. dist./Å        max./Å        min./Å
   1 H    6 C          70     1.0831097     1.0982210     1.0741677
   6 C    6 C          88     1.4158484     1.5625414     1.3262498
   6 C    7 N          14     1.3070119     1.4106925     1.1479576
   6 C    8 O           6     1.3320251     1.4167730     1.2129253
   6 C   16 S           4     1.7423713     1.7579082     1.7269306
   6 C   34 Se          2     1.8803886     1.8903899     1.8703874


optimized geometry written to: xtbopt.mol


           -------------------------------------------------
          | TOTAL ENERGY             -325.705018709747 Eh   |
          | GRADIENT NORM               0.000921867180 Eh/α |
          | HOMO-LUMO GAP               0.531237126677 eV   |
           -------------------------------------------------

------------------------------------------------------------------------
 * finished run on 2022/02/04 at 14:03:21.254     
------------------------------------------------------------------------
 total:
 * wall-time:     0 d,  0 h,  2 min, 29.456 sec
 *  cpu-time:     0 d,  0 h, 19 min, 55.479 sec
 * ratio c/w:     7.999 speedup
 SCF:
 * wall-time:     0 d,  0 h,  0 min,  0.939 sec
 *  cpu-time:     0 d,  0 h,  0 min,  7.511 sec
 * ratio c/w:     7.996 speedup
 ANC optimizer:
 * wall-time:     0 d,  0 h,  2 min, 28.410 sec
 *  cpu-time:     0 d,  0 h, 19 min, 47.205 sec
 * ratio c/w:     8.000 speedup

