      -----------------------------------------------------------      
     |                   =====================                   |     
     |                           x T B                           |     
     |                   =====================                   |     
     |                         S. Grimme                         |     
     |          Mulliken Center for Theoretical Chemistry        |     
     |                    University of Bonn                     |     
      -----------------------------------------------------------      

   * xtb version 6.4.1 (unknown) compiled by 'oda6@login1.crc.pitt.edu' on 2021-06-25

   xtb is free software: you can redistribute it and/or modify it under
   the terms of the GNU Lesser General Public License as published by
   the Free Software Foundation, either version 3 of the License, or
   (at your option) any later version.
   
   xtb is distributed in the hope that it will be useful,
   but WITHOUT ANY WARRANTY; without even the implied warranty of
   MERCHANTABILITY or FITNESS FOR A PARTICULAR PURPOSE.  See the
   GNU Lesser General Public License for more details.
   
   Cite this work as:
   * C. Bannwarth, E. Caldeweyher, S. Ehlert, A. Hansen, P. Pracht,
     J. Seibert, S. Spicher, S. Grimme, WIREs Comput. Mol. Sci., 2020, 11,
     e01493. DOI: 10.1002/wcms.1493
   
   for GFN2-xTB:
   * C. Bannwarth, S. Ehlert and S. Grimme., J. Chem. Theory Comput., 2019,
     15, 1652-1671. DOI: 10.1021/acs.jctc.8b01176
   for GFN1-xTB:
   * S. Grimme, C. Bannwarth, P. Shushkov, J. Chem. Theory Comput., 2017,
     13, 1989-2009. DOI: 10.1021/acs.jctc.7b00118
   for GFN0-xTB:
   * P. Pracht, E. Caldeweyher, S. Ehlert, S. Grimme, ChemRxiv, 2019, preprint.
     DOI: 10.26434/chemrxiv.8326202.v1
   for GFN-FF:
   * S. Spicher and S. Grimme, Angew. Chem. Int. Ed., 2020, 59, 15665-15673.
     DOI: 10.1002/anie.202004239
   
   for DFT-D4:
   * E. Caldeweyher, C. Bannwarth and S. Grimme, J. Chem. Phys., 2017,
     147, 034112. DOI: 10.1063/1.4993215
   * E. Caldeweyher, S. Ehlert, A. Hansen, H. Neugebauer, S. Spicher,
     C. Bannwarth and S. Grimme, J. Chem. Phys., 2019, 150, 154122.
     DOI: 10.1063/1.5090222
   * E. Caldeweyher, J.-M. Mewes, S. Ehlert and S. Grimme, Phys. Chem. Chem. Phys.
     2020, 22, 8499-8512. DOI: 10.1039/D0CP00502A
   
   for sTDA-xTB:
   * S. Grimme and C. Bannwarth, J. Chem. Phys., 2016, 145, 054103.
     DOI: 10.1063/1.4959605
   
   in the mass-spec context:
   * V. Asgeirsson, C. Bauer and S. Grimme, Chem. Sci., 2017, 8, 4879.
     DOI: 10.1039/c7sc00601b
   * J. Koopman and S. Grimme, ACS Omega 2019, 4, 12, 15120-15133.
     DOI: 10.1021/acsomega.9b02011
   
   for metadynamics refer to:
   * S. Grimme, J. Chem. Theory Comput., 2019, 155, 2847-2862
     DOI: 10.1021/acs.jctc.9b00143
   
   for SPH calculations refer to:
   * S. Spicher and S. Grimme, J. Chem. Theory Comput., 2021, 17, 1701-1714
     DOI: 10.1021/acs.jctc.0c01306
   
   with help from (in alphabetical order)
   P. Atkinson, C. Bannwarth, F. Bohle, G. Brandenburg, E. Caldeweyher
   M. Checinski, S. Dohm, S. Ehlert, S. Ehrlich, I. Gerasimov, J. Koopman
   C. Lavigne, S. Lehtola, F. März, M. Müller, F. Musil, H. Neugebauer
   J. Pisarek, C. Plett, P. Pracht, J. Seibert, P. Shushkov, S. Spicher
   M. Stahn, M. Steiner, T. Strunk, J. Stückrath, T. Rose, and J. Unsleber
   
 * started run on 2022/02/09 at 11:20:05.604     

           -------------------------------------------------
          |                Calculation Setup                |
           -------------------------------------------------

          program call               : /ihome/ghutchison/oda6/xtb/xtb-641/bin/xtb ../../FF_optimized/39_34_130_74_38.mol -opt
          hostname                   : smp-n26
          coordinate file            : ../../FF_optimized/39_34_130_74_38.mol
          omp threads                :                     8
          number of atoms            :                   217
          number of electrons        :                   670
          charge                     :                     0
          spin                       :                   0.0
          first test random number   :      0.84562529198739

   ID    Z sym.   atoms
    1    6 C      1-3, 5-13, 15, 17-25, 27-39, 41, 42, 44-56, 58, 59, 61-64,
                  66-72, 74-77, 79, 80, 82-85, 87-93, 95-98, 100-105,
                  108-112, 115-124, 126, 127, 129-136, 138
    2    8 O      4, 106, 113, 125, 128
    3    7 N      14, 16, 26, 43, 60, 81, 107, 114, 137, 139
    4   16 S      40, 57, 65, 73, 78, 86, 94, 99
    5    1 H      140-217
########################################################################
[WARNING] Please study the warnings concerning your input carefully
-1- prog_main_parseArguments: the use of '-opt' is discouraged, please use '--opt' next time
########################################################################

           -------------------------------------------------
          |                 G F N 2 - x T B                 |
           -------------------------------------------------

        Reference                      10.1021/acs.jctc.8b01176
      * Hamiltonian:
        H0-scaling (s, p, d)           1.850000    2.230000    2.230000
        zeta-weighting                 0.500000
      * Dispersion:
        s8                             2.700000
        a1                             0.520000
        a2                             5.000000
        s9                             5.000000
      * Repulsion:
        kExp                           1.500000    1.000000
        rExp                           1.000000
      * Coulomb:
        alpha                          2.000000
        third order                    shell-resolved
        anisotropic                    true
        a3                             3.000000
        a5                             4.000000
        cn-shift                       1.200000
        cn-exp                         4.000000
        max-rad                        5.000000


          ...................................................
          :                      SETUP                      :
          :.................................................:
          :  # basis functions                 682          :
          :  # atomic orbitals                 674          :
          :  # shells                          364          :
          :  # electrons                       670          :
          :  max. iterations                   250          :
          :  Hamiltonian                  GFN2-xTB          :
          :  restarted?                      false          :
          :  GBSA solvation                  false          :
          :  PC potential                    false          :
          :  electronic temp.          300.0000000     K    :
          :  accuracy                    1.0000000          :
          :  -> integral cutoff          0.2500000E+02      :
          :  -> integral neglect         0.1000000E-07      :
          :  -> SCF convergence          0.1000000E-05 Eh   :
          :  -> wf. convergence          0.1000000E-03 e    :
          :  Broyden damping             0.4000000          :
          ...................................................

 iter      E             dE          RMSdq      gap      omega  full diag
   1   -368.5623548 -0.368562E+03  0.488E+00    0.63       0.0  T
   2   -368.8232277 -0.260873E+00  0.290E+00    0.92       1.0  T
   3   -368.4126525  0.410575E+00  0.193E+00    0.32       1.0  T
   4   -368.9172698 -0.504617E+00  0.691E-01    0.48       1.0  T
   5   -368.9965323 -0.792625E-01  0.199E-01    0.30       1.0  T
   6   -368.9977371 -0.120476E-02  0.102E-01    0.42       1.0  T
   7   -368.9990992 -0.136214E-02  0.422E-02    0.40       1.0  T
   8   -368.9993319 -0.232705E-03  0.217E-02    0.40       1.0  T
   9   -368.9993840 -0.520675E-04  0.105E-02    0.40       1.0  T
  10   -368.9993883 -0.436024E-05  0.555E-03    0.40       1.2  T
  11   -368.9993921 -0.377797E-05  0.228E-03    0.40       3.0  T
  12   -368.9993928 -0.669074E-06  0.114E-03    0.40       6.0  T
  13   -368.9993929 -0.104430E-06  0.585E-04    0.40      11.6  T
  14   -368.9993929 -0.284325E-07  0.320E-04    0.40      21.2  T

   *** convergence criteria satisfied after 14 iterations ***

         #    Occupation            Energy/Eh            Energy/eV
      -------------------------------------------------------------
         1        2.0000           -0.7544637             -20.5300
       ...           ...                  ...                  ...
       329        2.0000           -0.3698749             -10.0648
       330        2.0000           -0.3688386             -10.0366
       331        2.0000           -0.3662069              -9.9650
       332        2.0000           -0.3636565              -9.8956
       333        2.0000           -0.3601548              -9.8003
       334        1.9999           -0.3591460              -9.7729
       335        1.9992           -0.3570147              -9.7149 (HOMO)
       336        0.0010           -0.3423821              -9.3167 (LUMO)
       337        0.0000           -0.3364434              -9.1551
       338        0.0000           -0.3339174              -9.0864
       339                         -0.3282081              -8.9310
       340                         -0.3271786              -8.9030
       ...                                ...                  ...
       674                          1.0714692              29.1562
      -------------------------------------------------------------
                  HL-Gap            0.0146325 Eh            0.3982 eV
             Fermi-level           -0.3496355 Eh           -9.5141 eV

 SCC (total)                   0 d,  0 h,  0 min,  0.832 sec
 SCC setup                      ...        0 min,  0.004 sec (  0.422%)
 Dispersion                     ...        0 min,  0.010 sec (  1.234%)
 classical contributions        ...        0 min,  0.000 sec (  0.051%)
 integral evaluation            ...        0 min,  0.042 sec (  5.037%)
 iterations                     ...        0 min,  0.610 sec ( 73.286%)
 molecular gradient             ...        0 min,  0.162 sec ( 19.506%)
 printout                       ...        0 min,  0.004 sec (  0.453%)

         :::::::::::::::::::::::::::::::::::::::::::::::::::::
         ::                     SUMMARY                     ::
         :::::::::::::::::::::::::::::::::::::::::::::::::::::
         :: total energy            -363.364229707407 Eh    ::
         :: gradient norm              0.345451183312 Eh/a0 ::
         :: HOMO-LUMO gap              0.398171656692 eV    ::
         ::.................................................::
         :: SCC energy              -368.999392904664 Eh    ::
         :: -> isotropic ES            0.200700869380 Eh    ::
         :: -> anisotropic ES          0.028733394843 Eh    ::
         :: -> anisotropic XC          0.239257068704 Eh    ::
         :: -> dispersion             -0.382310691997 Eh    ::
         :: repulsion energy           5.610919006322 Eh    ::
         :: add. restraining           0.000000000000 Eh    ::
         :: total charge               0.000000000000 e     ::
         :::::::::::::::::::::::::::::::::::::::::::::::::::::

      ----------------------------------------------------------- 
     |                   =====================                   |
     |                        A N C O P T                        |
     |                   =====================                   |
     |               Approximate Normal Coordinate               |
     |                Rational Function Optimizer                |
      ----------------------------------------------------------- 

          ...................................................
          :                      SETUP                      :
          :.................................................:
          :   optimization level            normal          :
          :   max. optcycles                   651          :
          :   ANC micro-cycles                  20          :
          :   degrees of freedom               645          :
          :.................................................:
          :   RF solver                   davidson          :
          :   write xtbopt.log                true          :
          :   linear?                        false          :
          :   energy convergence         0.5000000E-05 Eh   :
          :   grad. convergence          0.1000000E-02 Eh/α :
          :   maximium RF displ.         1.0000000          :
          :   Hlow (freq-cutoff)         0.1000000E-01      :
          :   Hmax (freq-cutoff)         5.0000000          :
          :   S6 in model hess.         20.0000000          :
          ...................................................

generating ANC from model Hessian ...
Using Lindh-Hessian (1995)
 Shifting diagonal of input Hessian by   1.003860905655973E-002
 Lowest  eigenvalues of input Hessian
    0.010000    0.010028    0.010034    0.000000    0.000000    0.000000
    0.000000    0.000000    0.000000    0.010055    0.010071    0.010087
    0.010096    0.010103    0.010122    0.010172    0.010178    0.010199
 Highest eigenvalues
    2.140164    2.141998    2.507440    2.507732    2.561150    2.561702
 

........................................................................
.............................. CYCLE    1 ..............................
........................................................................
   1   -368.9993929 -0.368999E+03  0.139E-04    0.40       0.0  T
   2   -368.9993929  0.122884E-08  0.133E-04    0.40      51.0  T
   3   -368.9993929 -0.372904E-08  0.569E-05    0.40     119.2  T
     SCC iter.                  ...        0 min,  0.133 sec
     gradient                   ...        0 min,  0.160 sec
 * total energy  :  -363.3642297 Eh     change       -0.1431277E-07 Eh
   gradient norm :     0.3454524 Eh/α   predicted     0.0000000E+00 (-100.00%)
   displ. norm   :     0.4861358 α      lambda       -0.1186843E+00
   maximum displ.:     0.0864572 α      in ANC's #169, #174, #347, ...

........................................................................
.............................. CYCLE    2 ..............................
........................................................................
   1   -369.2495930 -0.369250E+03  0.228E-01    0.40       0.0  T
   2   -369.2516405 -0.204746E-02  0.148E-01    0.46       1.0  T
   3   -369.2517293 -0.888255E-04  0.806E-02    0.44       1.0  T
   4   -369.2520859 -0.356606E-03  0.368E-02    0.44       1.0  T
   5   -369.2523625 -0.276565E-03  0.143E-02    0.44       1.0  T
   6   -369.2523953 -0.328221E-04  0.652E-03    0.44       1.0  T
   7   -369.2524013 -0.597271E-05  0.304E-03    0.44       2.2  T
   8   -369.2524030 -0.167370E-05  0.117E-03    0.44       5.8  T
   9   -369.2524031 -0.105701E-06  0.662E-04    0.44      10.3  T
  10   -369.2524031 -0.317050E-07  0.336E-04    0.44      20.2  T
     SCC iter.                  ...        0 min,  0.412 sec
     gradient                   ...        0 min,  0.161 sec
 * total energy  :  -363.4512788 Eh     change       -0.8704911E-01 Eh
   gradient norm :     0.1581028 Eh/α   predicted    -0.7342598E-01 ( -15.65%)
   displ. norm   :     0.5234905 α      lambda       -0.5190336E-01
   maximum displ.:     0.1391997 α      in ANC's #169, #94, #174, ...

........................................................................
.............................. CYCLE    3 ..............................
........................................................................
   1   -369.4153734 -0.369415E+03  0.190E-01    0.40       0.0  T
   2   -369.4167686 -0.139524E-02  0.124E-01    0.46       1.0  T
   3   -369.4169128 -0.144196E-03  0.695E-02    0.44       1.0  T
   4   -369.4172525 -0.339658E-03  0.323E-02    0.45       1.0  T
   5   -369.4174594 -0.206903E-03  0.128E-02    0.45       1.0  T
   6   -369.4174885 -0.291034E-04  0.532E-03    0.45       1.3  T
   7   -369.4174925 -0.399093E-05  0.251E-03    0.45       2.7  T
   8   -369.4174935 -0.999105E-06  0.971E-04    0.45       7.0  T
   9   -369.4174936 -0.688110E-07  0.542E-04    0.45      12.5  T
     SCC iter.                  ...        0 min,  0.377 sec
     gradient                   ...        0 min,  0.161 sec
 * total energy  :  -363.4845493 Eh     change       -0.3327050E-01 Eh
   gradient norm :     0.0495189 Eh/α   predicted    -0.3306356E-01 (  -0.62%)
   displ. norm   :     0.5793361 α      lambda       -0.1702653E-01
   maximum displ.:     0.1568075 α      in ANC's #94, #117, #169, ...

........................................................................
.............................. CYCLE    4 ..............................
........................................................................
   1   -369.4792757 -0.369479E+03  0.173E-01    0.43       0.0  T
   2   -369.4796046 -0.328906E-03  0.104E-01    0.45       1.0  T
   3   -369.4790044  0.600151E-03  0.566E-02    0.43       1.0  T
   4   -369.4797499 -0.745427E-03  0.173E-02    0.45       1.0  T
   5   -369.4798222 -0.723712E-04  0.705E-03    0.45       1.0  T
   6   -369.4798303 -0.804403E-05  0.320E-03    0.45       2.1  T
   7   -369.4798311 -0.840966E-06  0.163E-03    0.45       4.2  T
   8   -369.4798316 -0.456354E-06  0.596E-04    0.45      11.4  T
   9   -369.4798316 -0.226169E-07  0.325E-04    0.45      20.9  T
     SCC iter.                  ...        0 min,  0.369 sec
     gradient                   ...        0 min,  0.160 sec
 * total energy  :  -363.4943998 Eh     change       -0.9850465E-02 Eh
   gradient norm :     0.0349566 Eh/α   predicted    -0.1137066E-01 (  15.43%)
   displ. norm   :     0.7013313 α      lambda       -0.1482574E-01
   maximum displ.:     0.1842394 α      in ANC's #94, #169, #117, ...

........................................................................
.............................. CYCLE    5 ..............................
........................................................................
   1   -369.5226866 -0.369523E+03  0.308E-01    0.40       0.0  T
   2   -369.5231622 -0.475668E-03  0.173E-01    0.41       1.0  T
   3   -369.5222088  0.953405E-03  0.628E-02    0.39       1.0  T
   4   -369.5233250 -0.111613E-02  0.168E-02    0.41       1.0  T
   5   -369.5233915 -0.665414E-04  0.667E-03    0.41       1.0  T
   6   -369.5233952 -0.374834E-05  0.365E-03    0.41       1.9  T
   7   -369.5233967 -0.143794E-05  0.160E-03    0.41       4.2  T
   8   -369.5233971 -0.465112E-06  0.635E-04    0.41      10.7  T
   9   -369.5233972 -0.283923E-07  0.346E-04    0.41      19.6  T
     SCC iter.                  ...        0 min,  0.384 sec
     gradient                   ...        0 min,  0.162 sec
 * total energy  :  -363.4991067 Eh     change       -0.4706954E-02 Eh
   gradient norm :     0.0407212 Eh/α   predicted    -0.1105909E-01 ( 134.95%)
   displ. norm   :     0.3725043 α      lambda       -0.6668515E-02
   maximum displ.:     0.0846216 α      in ANC's #94, #39, #50, ...

........................................................................
.............................. CYCLE    6 ..............................
........................................................................
   1   -369.5315258 -0.369532E+03  0.139E-01    0.42       0.0  T
   2   -369.5315791 -0.533304E-04  0.776E-02    0.43       1.0  T
   3   -369.5314444  0.134735E-03  0.256E-02    0.42       1.0  T
   4   -369.5316033 -0.158879E-03  0.584E-03    0.43       1.2  T
   5   -369.5316082 -0.499238E-05  0.269E-03    0.43       2.5  T
   6   -369.5316086 -0.366629E-06  0.140E-03    0.43       4.8  T
   7   -369.5316089 -0.270909E-06  0.561E-04    0.43      12.1  T
   8   -369.5316089 -0.459665E-07  0.259E-04    0.43      26.2  T
     SCC iter.                  ...        0 min,  0.335 sec
     gradient                   ...        0 min,  0.158 sec
 * total energy  :  -363.5035597 Eh     change       -0.4452907E-02 Eh
   gradient norm :     0.0255046 Eh/α   predicted    -0.3796918E-02 ( -14.73%)
   displ. norm   :     0.5995352 α      lambda       -0.5947358E-02
   maximum displ.:     0.1617428 α      in ANC's #34, #39, #50, ...

........................................................................
.............................. CYCLE    7 ..............................
........................................................................
   1   -369.5194917 -0.369519E+03  0.223E-01    0.41       0.0  T
   2   -369.5196327 -0.141005E-03  0.125E-01    0.41       1.0  T
   3   -369.5192608  0.371925E-03  0.443E-02    0.41       1.0  T
   4   -369.5197092 -0.448439E-03  0.833E-03    0.42       1.0  T
   5   -369.5197162 -0.698054E-05  0.413E-03    0.41       1.6  T
   6   -369.5197174 -0.118931E-05  0.194E-03    0.42       3.5  T
   7   -369.5197180 -0.547638E-06  0.752E-04    0.42       9.0  T
   8   -369.5197180 -0.761638E-07  0.334E-04    0.42      20.3  T
     SCC iter.                  ...        0 min,  0.342 sec
     gradient                   ...        0 min,  0.159 sec
 * total energy  :  -363.5039088 Eh     change       -0.3491327E-03 Eh
   gradient norm :     0.0371148 Eh/α   predicted    -0.4042547E-02 (1057.88%)
   displ. norm   :     0.3849758 α      lambda       -0.6609911E-02
   maximum displ.:     0.0894944 α      in ANC's #79, #37, #44, ...

........................................................................
.............................. CYCLE    8 ..............................
........................................................................
   1   -369.5325374 -0.369533E+03  0.176E-01    0.40       0.0  T
   2   -369.5326161 -0.786912E-04  0.978E-02    0.41       1.0  T
   3   -369.5325361  0.799737E-04  0.218E-02    0.40       1.0  T
   4   -369.5326506 -0.114476E-03  0.489E-03    0.41       1.4  T
   5   -369.5326523 -0.173727E-05  0.266E-03    0.41       2.6  T
   6   -369.5326529 -0.615057E-06  0.115E-03    0.41       5.9  T
   7   -369.5326531 -0.197385E-06  0.448E-04    0.41      15.2  T
   8   -369.5326532 -0.279369E-07  0.207E-04    0.41      32.8  T
     SCC iter.                  ...        0 min,  0.333 sec
     gradient                   ...        0 min,  0.159 sec
 * total energy  :  -363.5077944 Eh     change       -0.3885583E-02 Eh
   gradient norm :     0.0226293 Eh/α   predicted    -0.3794778E-02 (  -2.34%)
   displ. norm   :     0.4799648 α      lambda       -0.2957726E-02
   maximum displ.:     0.1267895 α      in ANC's #39, #50, #58, ...

........................................................................
.............................. CYCLE    9 ..............................
........................................................................
   1   -369.5373118 -0.369537E+03  0.149E-01    0.39       0.0  T
   2   -369.5373923 -0.805550E-04  0.829E-02    0.40       1.0  T
   3   -369.5372530  0.139287E-03  0.278E-02    0.40       1.0  T
   4   -369.5374261 -0.173045E-03  0.584E-03    0.40       1.2  T
   5   -369.5374300 -0.393281E-05  0.305E-03    0.40       2.2  T
   6   -369.5374313 -0.126151E-05  0.132E-03    0.40       5.2  T
   7   -369.5374314 -0.161780E-06  0.579E-04    0.40      11.7  T
   8   -369.5374315 -0.564968E-07  0.230E-04    0.40      29.5  T
     SCC iter.                  ...        0 min,  0.332 sec
     gradient                   ...        0 min,  0.159 sec
 * total energy  :  -363.5087744 Eh     change       -0.9800520E-03 Eh
   gradient norm :     0.0318605 Eh/α   predicted    -0.1819552E-02 (  85.66%)
   displ. norm   :     0.5254609 α      lambda       -0.4206635E-02
   maximum displ.:     0.1614215 α      in ANC's #39, #50, #57, ...

........................................................................
.............................. CYCLE   10 ..............................
........................................................................
   1   -369.5550755 -0.369555E+03  0.150E-01    0.39       0.0  T
   2   -369.5551463 -0.708114E-04  0.833E-02    0.40       1.0  T
   3   -369.5550252  0.121129E-03  0.256E-02    0.39       1.0  T
   4   -369.5551765 -0.151344E-03  0.579E-03    0.40       1.2  T
   5   -369.5551800 -0.348085E-05  0.323E-03    0.40       2.1  T
   6   -369.5551814 -0.139921E-05  0.129E-03    0.40       5.3  T
   7   -369.5551816 -0.183670E-06  0.637E-04    0.40      10.7  T
   8   -369.5551816 -0.767604E-07  0.230E-04    0.40      29.5  T
     SCC iter.                  ...        0 min,  0.344 sec
     gradient                   ...        0 min,  0.159 sec
 * total energy  :  -363.5113859 Eh     change       -0.2611485E-02 Eh
   gradient norm :     0.0255374 Eh/α   predicted    -0.2684063E-02 (   2.78%)
   displ. norm   :     0.6133469 α      lambda       -0.2548571E-02
   maximum displ.:     0.2037404 α      in ANC's #39, #50, #35, ...

........................................................................
.............................. CYCLE   11 ..............................
........................................................................
   1   -369.5477317 -0.369548E+03  0.916E-02    0.38       0.0  T
   2   -369.5477548 -0.230940E-04  0.520E-02    0.39       1.0  T
   3   -369.5476533  0.101552E-03  0.233E-02    0.38       1.0  T
   4   -369.5477681 -0.114795E-03  0.531E-03    0.39       1.3  T
   5   -369.5477706 -0.254867E-05  0.288E-03    0.39       2.4  T
   6   -369.5477717 -0.103054E-05  0.995E-04    0.39       6.8  T
   7   -369.5477718 -0.109462E-06  0.505E-04    0.39      13.5  T
   8   -369.5477718 -0.462978E-07  0.212E-04    0.39      32.0  T
     SCC iter.                  ...        0 min,  0.329 sec
     gradient                   ...        0 min,  0.159 sec
 * total energy  :  -363.5134268 Eh     change       -0.2040878E-02 Eh
   gradient norm :     0.0140137 Eh/α   predicted    -0.1753672E-02 ( -14.07%)
   displ. norm   :     0.7432440 α      lambda       -0.2862406E-02
   maximum displ.:     0.2637067 α      in ANC's #39, #34, #50, ...

........................................................................
.............................. CYCLE   12 ..............................
........................................................................
   1   -369.5449860 -0.369545E+03  0.140E-01    0.37       0.0  T
   2   -369.5450417 -0.556514E-04  0.785E-02    0.37       1.0  T
   3   -369.5449243  0.117421E-03  0.261E-02    0.37       1.0  T
   4   -369.5450634 -0.139160E-03  0.681E-03    0.38       1.0  T
   5   -369.5450679 -0.444132E-05  0.376E-03    0.37       1.8  T
   6   -369.5450697 -0.188995E-05  0.121E-03    0.37       5.6  T
   7   -369.5450699 -0.113679E-06  0.600E-04    0.37      11.3  T
   8   -369.5450699 -0.564231E-07  0.269E-04    0.37      25.3  T
     SCC iter.                  ...        0 min,  0.333 sec
     gradient                   ...        0 min,  0.159 sec
 * total energy  :  -363.5149184 Eh     change       -0.1491569E-02 Eh
   gradient norm :     0.0396006 Eh/α   predicted    -0.2221826E-02 (  48.96%)
   displ. norm   :     0.6136283 α      lambda       -0.3503428E-02
   maximum displ.:     0.2155284 α      in ANC's #39, #35, #28, ...

........................................................................
.............................. CYCLE   13 ..............................
........................................................................
   1   -369.5578004 -0.369558E+03  0.151E-01    0.38       0.0  T
   2   -369.5578675 -0.670754E-04  0.838E-02    0.38       1.0  T
   3   -369.5577910  0.764638E-04  0.211E-02    0.38       1.0  T
   4   -369.5578909 -0.998236E-04  0.587E-03    0.38       1.2  T
   5   -369.5578943 -0.344148E-05  0.313E-03    0.38       2.2  T
   6   -369.5578955 -0.123178E-05  0.101E-03    0.38       6.7  T
   7   -369.5578956 -0.777461E-07  0.452E-04    0.38      15.0  T
   8   -369.5578956 -0.240265E-07  0.247E-04    0.38      27.5  T
     SCC iter.                  ...        0 min,  0.339 sec
     gradient                   ...        0 min,  0.158 sec
 * total energy  :  -363.5168691 Eh     change       -0.1950709E-02 Eh
   gradient norm :     0.0269996 Eh/α   predicted    -0.2411308E-02 (  23.61%)
   displ. norm   :     0.6452644 α      lambda       -0.2175025E-02
   maximum displ.:     0.2195406 α      in ANC's #39, #35, #37, ...

........................................................................
.............................. CYCLE   14 ..............................
........................................................................
   1   -369.5431386 -0.369543E+03  0.109E-01    0.37       0.0  T
   2   -369.5431753 -0.367169E-04  0.609E-02    0.37       1.0  T
   3   -369.5431167  0.586244E-04  0.182E-02    0.37       1.0  T
   4   -369.5431857 -0.690449E-04  0.583E-03    0.38       1.2  T
   5   -369.5431894 -0.370189E-05  0.303E-03    0.37       2.2  T
   6   -369.5431907 -0.130197E-05  0.112E-03    0.37       6.0  T
   7   -369.5431909 -0.147391E-06  0.468E-04    0.37      14.5  T
   8   -369.5431909 -0.303863E-07  0.232E-04    0.37      29.3  T
     SCC iter.                  ...        0 min,  0.352 sec
     gradient                   ...        0 min,  0.158 sec
 * total energy  :  -363.5183324 Eh     change       -0.1463333E-02 Eh
   gradient norm :     0.0234479 Eh/α   predicted    -0.1540316E-02 (   5.26%)
   displ. norm   :     0.6045483 α      lambda       -0.1828106E-02
   maximum displ.:     0.2096104 α      in ANC's #39, #35, #20, ...

........................................................................
.............................. CYCLE   15 ..............................
........................................................................
   1   -369.5486284 -0.369549E+03  0.813E-02    0.37       0.0  T
   2   -369.5486473 -0.189415E-04  0.455E-02    0.37       1.0  T
   3   -369.5485960  0.513013E-04  0.170E-02    0.37       1.0  T
   4   -369.5486523 -0.563334E-04  0.550E-03    0.37       1.2  T
   5   -369.5486554 -0.300722E-05  0.305E-03    0.37       2.2  T
   6   -369.5486567 -0.138896E-05  0.881E-04    0.37       7.7  T
   7   -369.5486568 -0.815355E-07  0.503E-04    0.37      13.5  T
   8   -369.5486569 -0.506299E-07  0.209E-04    0.37      32.5  T
     SCC iter.                  ...        0 min,  0.342 sec
     gradient                   ...        0 min,  0.158 sec
 * total energy  :  -363.5198759 Eh     change       -0.1543474E-02 Eh
   gradient norm :     0.0183569 Eh/α   predicted    -0.1248125E-02 ( -19.14%)
   displ. norm   :     0.7327252 α      lambda       -0.2057083E-02
   maximum displ.:     0.2508856 α      in ANC's #39, #35, #20, ...

........................................................................
.............................. CYCLE   16 ..............................
........................................................................
   1   -369.5599382 -0.369560E+03  0.982E-02    0.36       0.0  T
   2   -369.5599582 -0.200168E-04  0.551E-02    0.36       1.0  T
   3   -369.5598691  0.891674E-04  0.215E-02    0.36       1.0  T
   4   -369.5599661 -0.969795E-04  0.642E-03    0.36       1.1  T
   5   -369.5599696 -0.351408E-05  0.353E-03    0.36       1.9  T
   6   -369.5599714 -0.187432E-05  0.105E-03    0.36       6.5  T
   7   -369.5599716 -0.170369E-06  0.549E-04    0.36      12.4  T
   8   -369.5599717 -0.573168E-07  0.211E-04    0.36      32.1  T
     SCC iter.                  ...        0 min,  0.332 sec
     gradient                   ...        0 min,  0.158 sec
 * total energy  :  -363.5215211 Eh     change       -0.1645227E-02 Eh
   gradient norm :     0.0133190 Eh/α   predicted    -0.1580752E-02 (  -3.92%)
   displ. norm   :     0.7630951 α      lambda       -0.1981041E-02
   maximum displ.:     0.2737776 α      in ANC's #39, #37, #40, ...

........................................................................
.............................. CYCLE   17 ..............................
........................................................................
   1   -369.5674218 -0.369567E+03  0.106E-01    0.35       0.0  T
   2   -369.5674488 -0.270155E-04  0.593E-02    0.35       1.0  T
   3   -369.5673885  0.603428E-04  0.188E-02    0.36       1.0  T
   4   -369.5674555 -0.670569E-04  0.665E-03    0.35       1.0  T
   5   -369.5674590 -0.343449E-05  0.391E-03    0.35       1.7  T
   6   -369.5674617 -0.268170E-05  0.109E-03    0.35       6.2  T
   7   -369.5674618 -0.149444E-06  0.584E-04    0.35      11.6  T
   8   -369.5674619 -0.594626E-07  0.252E-04    0.35      26.9  T
     SCC iter.                  ...        0 min,  0.331 sec
     gradient                   ...        0 min,  0.158 sec
 * total energy  :  -363.5231106 Eh     change       -0.1589467E-02 Eh
   gradient norm :     0.0125153 Eh/α   predicted    -0.1567318E-02 (  -1.39%)
   displ. norm   :     0.8311308 α      lambda       -0.1826104E-02
   maximum displ.:     0.3171698 α      in ANC's #39, #37, #40, ...

........................................................................
.............................. CYCLE   18 ..............................
........................................................................
   1   -369.5541565 -0.369554E+03  0.108E-01    0.34       0.0  T
   2   -369.5541824 -0.258403E-04  0.605E-02    0.34       1.0  T
   3   -369.5541327  0.496955E-04  0.178E-02    0.35       1.0  T
   4   -369.5541884 -0.556743E-04  0.645E-03    0.35       1.1  T
   5   -369.5541913 -0.294647E-05  0.355E-03    0.35       1.9  T
   6   -369.5541934 -0.208183E-05  0.102E-03    0.35       6.7  T
   7   -369.5541935 -0.149014E-06  0.468E-04    0.35      14.5  T
   8   -369.5541936 -0.356097E-07  0.231E-04    0.35      29.4  T
     SCC iter.                  ...        0 min,  0.335 sec
     gradient                   ...        0 min,  0.159 sec
 * total energy  :  -363.5245967 Eh     change       -0.1486152E-02 Eh
   gradient norm :     0.0131882 Eh/α   predicted    -0.1543753E-02 (   3.88%)
   displ. norm   :     0.7304838 α      lambda       -0.1927493E-02
   maximum displ.:     0.1702621 α      in ANC's #23, #40, #6, ...

........................................................................
.............................. CYCLE   19 ..............................
........................................................................
   1   -369.5605841 -0.369561E+03  0.984E-02    0.34       0.0  T
   2   -369.5606027 -0.186454E-04  0.554E-02    0.34       1.0  T
   3   -369.5605678  0.349152E-04  0.152E-02    0.34       1.0  T
   4   -369.5606082 -0.403456E-04  0.553E-03    0.34       1.2  T
   5   -369.5606099 -0.170392E-05  0.298E-03    0.34       2.3  T
   6   -369.5606113 -0.145107E-05  0.774E-04    0.34       8.8  T
   7   -369.5606114 -0.781429E-07  0.389E-04    0.34      17.5  T
   8   -369.5606114 -0.145372E-07  0.203E-04    0.34      33.4  T
     SCC iter.                  ...        0 min,  0.331 sec
     gradient                   ...        0 min,  0.159 sec
 * total energy  :  -363.5258513 Eh     change       -0.1254582E-02 Eh
   gradient norm :     0.0172197 Eh/α   predicted    -0.1478011E-02 (  17.81%)
   displ. norm   :     0.7171032 α      lambda       -0.1743127E-02
   maximum displ.:     0.2840451 α      in ANC's #39, #23, #40, ...

........................................................................
.............................. CYCLE   20 ..............................
........................................................................
   1   -369.5548504 -0.369555E+03  0.889E-02    0.33       0.0  T
   2   -369.5548750 -0.245728E-04  0.502E-02    0.33       1.0  T
   3   -369.5548155  0.594463E-04  0.180E-02    0.33       1.0  T
   4   -369.5548816 -0.660554E-04  0.562E-03    0.33       1.2  T
   5   -369.5548850 -0.339251E-05  0.272E-03    0.33       2.5  T
   6   -369.5548859 -0.913134E-06  0.103E-03    0.33       6.6  T
   7   -369.5548860 -0.157530E-06  0.442E-04    0.33      15.4  T
   8   -369.5548861 -0.340694E-07  0.203E-04    0.33      33.5  T
     SCC iter.                  ...        0 min,  0.332 sec
     gradient                   ...        0 min,  0.158 sec
 * total energy  :  -363.5270199 Eh     change       -0.1168564E-02 Eh
   gradient norm :     0.0187515 Eh/α   predicted    -0.1319744E-02 (  12.94%)
   displ. norm   :     0.6262067 α      lambda       -0.1739615E-02
   maximum displ.:     0.2223466 α      in ANC's #39, #23, #40, ...
 * RMSD in coord.:     0.6325189 α      energy gain  -0.1627902E+00 Eh

generating ANC from model Hessian ...
Using Lindh-Hessian (1995)
 Shifting diagonal of input Hessian by   1.001502451859055E-002
 Lowest  eigenvalues of input Hessian
    0.010000    0.010002    0.000000    0.000000    0.000000    0.000000
    0.000000    0.000000    0.010018    0.010029    0.010037    0.010056
    0.010067    0.010101    0.010144    0.010153    0.010175    0.010184
 Highest eigenvalues
    2.387401    2.406808    2.612134    2.614905    2.654969    2.656882
 

........................................................................
.............................. CYCLE   21 ..............................
........................................................................
   1   -369.5600821 -0.369560E+03  0.792E-02    0.33       0.0  T
   2   -369.5601019 -0.198827E-04  0.447E-02    0.33       1.0  T
   3   -369.5600594  0.425923E-04  0.153E-02    0.32       1.0  T
   4   -369.5601061 -0.467585E-04  0.503E-03    0.33       1.3  T
   5   -369.5601089 -0.279169E-05  0.247E-03    0.33       2.7  T
   6   -369.5601096 -0.722685E-06  0.114E-03    0.33       6.0  T
   7   -369.5601099 -0.228813E-06  0.478E-04    0.33      14.2  T
   8   -369.5601099 -0.410549E-07  0.204E-04    0.33      33.2  T
     SCC iter.                  ...        0 min,  0.334 sec
     gradient                   ...        0 min,  0.158 sec
 * total energy  :  -363.5280139 Eh     change       -0.9940871E-03 Eh
   gradient norm :     0.0192699 Eh/α   predicted     0.0000000E+00 (-100.00%)
   displ. norm   :     0.1839750 α      lambda       -0.1169485E-02
   maximum displ.:     0.0619393 α      in ANC's #37, #35, #24, ...

........................................................................
.............................. CYCLE   22 ..............................
........................................................................
   1   -369.5644721 -0.369564E+03  0.472E-02    0.32       0.0  T
   2   -369.5644791 -0.701933E-05  0.268E-02    0.32       1.0  T
   3   -369.5644726  0.649368E-05  0.684E-03    0.32       1.0  T
   4   -369.5644812 -0.853420E-05  0.220E-03    0.32       3.1  T
   5   -369.5644817 -0.507846E-06  0.114E-03    0.32       6.0  T
   6   -369.5644818 -0.128904E-06  0.510E-04    0.32      13.3  T
   7   -369.5644818 -0.368550E-07  0.221E-04    0.32      30.7  T
     SCC iter.                  ...        0 min,  0.292 sec
     gradient                   ...        0 min,  0.158 sec
 * total energy  :  -363.5287611 Eh     change       -0.7471388E-03 Eh
   gradient norm :     0.0080369 Eh/α   predicted    -0.6045674E-03 ( -19.08%)
   displ. norm   :     0.4501577 α      lambda       -0.1786857E-02
   maximum displ.:     0.1431905 α      in ANC's #36, #20, #37, ...

........................................................................
.............................. CYCLE   23 ..............................
........................................................................
   1   -369.5689069 -0.369569E+03  0.152E-01    0.32       0.0  T
   2   -369.5689719 -0.650121E-04  0.846E-02    0.32       1.0  T
   3   -369.5689660  0.591534E-05  0.127E-02    0.32       1.0  T
   4   -369.5689935 -0.275298E-04  0.504E-03    0.32       1.3  T
   5   -369.5689953 -0.179024E-05  0.282E-03    0.32       2.4  T
   6   -369.5689964 -0.110095E-05  0.103E-03    0.32       6.6  T
   7   -369.5689966 -0.173137E-06  0.443E-04    0.32      15.3  T
   8   -369.5689966 -0.280865E-07  0.194E-04    0.32      35.0  T
     SCC iter.                  ...        0 min,  0.341 sec
     gradient                   ...        0 min,  0.160 sec
 * total energy  :  -363.5283768 Eh     change        0.3843281E-03 Eh
   gradient norm :     0.0296647 Eh/α   predicted    -0.1074479E-02 (-379.57%)
   displ. norm   :     0.1777621 α      lambda       -0.2393767E-02
   maximum displ.:     0.0590633 α      in ANC's #37, #35, #24, ...

........................................................................
.............................. CYCLE   24 ..............................
........................................................................
   1   -369.5729493 -0.369573E+03  0.104E-01    0.32       0.0  T
   2   -369.5729800 -0.306948E-04  0.577E-02    0.32       1.0  T
   3   -369.5729770  0.304401E-05  0.798E-03    0.32       1.0  T
   4   -369.5729912 -0.142022E-04  0.262E-03    0.32       2.6  T
   5   -369.5729918 -0.650046E-06  0.130E-03    0.32       5.2  T
   6   -369.5729920 -0.153368E-06  0.556E-04    0.32      12.2  T
   7   -369.5729921 -0.593797E-07  0.228E-04    0.32      29.7  T
     SCC iter.                  ...        0 min,  0.292 sec
     gradient                   ...        0 min,  0.159 sec
 * total energy  :  -363.5298004 Eh     change       -0.1423619E-02 Eh
   gradient norm :     0.0113390 Eh/α   predicted    -0.1234706E-02 ( -13.27%)
   displ. norm   :     0.3363130 α      lambda       -0.9287962E-03
   maximum displ.:     0.1257397 α      in ANC's #37, #35, #6, ...

........................................................................
.............................. CYCLE   25 ..............................
........................................................................
   1   -369.5675019 -0.369568E+03  0.580E-02    0.32       0.0  T
   2   -369.5675109 -0.899264E-05  0.326E-02    0.32       1.0  T
   3   -369.5674933  0.175991E-04  0.936E-03    0.32       1.0  T
   4   -369.5675146 -0.213111E-04  0.260E-03    0.32       2.6  T
   5   -369.5675152 -0.628426E-06  0.131E-03    0.32       5.2  T
   6   -369.5675154 -0.214373E-06  0.510E-04    0.32      13.3  T
   7   -369.5675155 -0.370525E-07  0.222E-04    0.32      30.5  T
     SCC iter.                  ...        0 min,  0.292 sec
     gradient                   ...        0 min,  0.158 sec
 * total energy  :  -363.5305116 Eh     change       -0.7112310E-03 Eh
   gradient norm :     0.0082586 Eh/α   predicted    -0.5169311E-03 ( -27.32%)
   displ. norm   :     0.6990744 α      lambda       -0.1503304E-02
   maximum displ.:     0.2611502 α      in ANC's #37, #35, #6, ...

........................................................................
.............................. CYCLE   26 ..............................
........................................................................
   1   -369.5581297 -0.369558E+03  0.101E-01    0.31       0.0  T
   2   -369.5581509 -0.212400E-04  0.574E-02    0.31       1.0  T
   3   -369.5580840  0.668672E-04  0.178E-02    0.31       1.0  T
   4   -369.5581598 -0.757328E-04  0.505E-03    0.31       1.3  T
   5   -369.5581620 -0.225713E-05  0.261E-03    0.31       2.6  T
   6   -369.5581629 -0.915488E-06  0.999E-04    0.31       6.8  T
   7   -369.5581631 -0.161267E-06  0.455E-04    0.31      14.9  T
     SCC iter.                  ...        0 min,  0.288 sec
     gradient                   ...        0 min,  0.159 sec
 * total energy  :  -363.5315830 Eh     change       -0.1071357E-02 Eh
   gradient norm :     0.0156981 Eh/α   predicted    -0.1118991E-02 (   4.45%)
   displ. norm   :     0.6034642 α      lambda       -0.1280618E-02
   maximum displ.:     0.1982285 α      in ANC's #37, #1, #6, ...

........................................................................
.............................. CYCLE   27 ..............................
........................................................................
   1   -369.5586402 -0.369559E+03  0.811E-02    0.30       0.0  T
   2   -369.5586523 -0.120898E-04  0.458E-02    0.31       1.0  T
   3   -369.5586140  0.383113E-04  0.138E-02    0.31       1.0  T
   4   -369.5586571 -0.430929E-04  0.421E-03    0.31       1.6  T
   5   -369.5586584 -0.131302E-05  0.218E-03    0.31       3.1  T
   6   -369.5586591 -0.748150E-06  0.686E-04    0.31       9.9  T
   7   -369.5586592 -0.703530E-07  0.306E-04    0.31      22.1  T
     SCC iter.                  ...        0 min,  0.286 sec
     gradient                   ...        0 min,  0.160 sec
 * total energy  :  -363.5326411 Eh     change       -0.1058128E-02 Eh
   gradient norm :     0.0161003 Eh/α   predicted    -0.8735148E-03 ( -17.45%)
   displ. norm   :     0.6105199 α      lambda       -0.1802316E-02
   maximum displ.:     0.1650343 α      in ANC's #6, #21, #37, ...

........................................................................
.............................. CYCLE   28 ..............................
........................................................................
   1   -369.5687523 -0.369569E+03  0.969E-02    0.30       0.0  T
   2   -369.5687731 -0.207252E-04  0.542E-02    0.30       1.0  T
   3   -369.5687419  0.311805E-04  0.137E-02    0.30       1.0  T
   4   -369.5687799 -0.380674E-04  0.481E-03    0.31       1.4  T
   5   -369.5687814 -0.145827E-05  0.267E-03    0.30       2.5  T
   6   -369.5687825 -0.114644E-05  0.713E-04    0.30       9.5  T
   7   -369.5687826 -0.568547E-07  0.361E-04    0.30      18.8  T
   8   -369.5687826 -0.138942E-07  0.183E-04    0.30      37.0  T
     SCC iter.                  ...        0 min,  0.358 sec
     gradient                   ...        0 min,  0.160 sec
 * total energy  :  -363.5337949 Eh     change       -0.1153796E-02 Eh
   gradient norm :     0.0150106 Eh/α   predicted    -0.1237050E-02 (   7.22%)
   displ. norm   :     0.6726700 α      lambda       -0.1986485E-02
   maximum displ.:     0.1950962 α      in ANC's #1, #6, #9, ...

........................................................................
.............................. CYCLE   29 ..............................
........................................................................
   1   -369.5736518 -0.369574E+03  0.129E-01    0.29       0.0  T
   2   -369.5736883 -0.364729E-04  0.717E-02    0.30       1.0  T
   3   -369.5736582  0.300873E-04  0.147E-02    0.30       1.0  T
   4   -369.5737011 -0.429004E-04  0.539E-03    0.31       1.3  T
   5   -369.5737029 -0.178065E-05  0.299E-03    0.30       2.3  T
   6   -369.5737043 -0.144422E-05  0.696E-04    0.30       9.8  T
   7   -369.5737044 -0.415802E-07  0.374E-04    0.30      18.2  T
   8   -369.5737044 -0.109148E-07  0.185E-04    0.30      36.8  T
     SCC iter.                  ...        0 min,  0.343 sec
     gradient                   ...        0 min,  0.161 sec
 * total energy  :  -363.5347332 Eh     change       -0.9383440E-03 Eh
   gradient norm :     0.0137769 Eh/α   predicted    -0.1442670E-02 (  53.75%)
   displ. norm   :     0.6793809 α      lambda       -0.1997722E-02
   maximum displ.:     0.2152298 α      in ANC's #37, #6, #21, ...

........................................................................
.............................. CYCLE   30 ..............................
........................................................................
   1   -369.5596372 -0.369560E+03  0.108E-01    0.29       0.0  T
   2   -369.5596697 -0.325322E-04  0.607E-02    0.30       1.0  T
   3   -369.5596273  0.424056E-04  0.156E-02    0.30       1.0  T
   4   -369.5596782 -0.508670E-04  0.559E-03    0.30       1.2  T
   5   -369.5596814 -0.323320E-05  0.279E-03    0.30       2.4  T
   6   -369.5596823 -0.862289E-06  0.110E-03    0.30       6.2  T
   7   -369.5596825 -0.177777E-06  0.433E-04    0.30      15.7  T
   8   -369.5596825 -0.242042E-07  0.216E-04    0.30      31.4  T
     SCC iter.                  ...        0 min,  0.342 sec
     gradient                   ...        0 min,  0.161 sec
 * total energy  :  -363.5356133 Eh     change       -0.8800826E-03 Eh
   gradient norm :     0.0220079 Eh/α   predicted    -0.1459895E-02 (  65.88%)
   displ. norm   :     0.4150316 α      lambda       -0.1829473E-02
   maximum displ.:     0.1359461 α      in ANC's #37, #1, #21, ...

........................................................................
.............................. CYCLE   31 ..............................
........................................................................
   1   -369.5617448 -0.369562E+03  0.618E-02    0.29       0.0  T
   2   -369.5617588 -0.139939E-04  0.350E-02    0.30       1.0  T
   3   -369.5617350  0.238311E-04  0.115E-02    0.30       1.0  T
   4   -369.5617616 -0.266305E-04  0.399E-03    0.30       1.7  T
   5   -369.5617636 -0.194375E-05  0.191E-03    0.30       3.5  T
   6   -369.5617640 -0.402081E-06  0.757E-04    0.30       9.0  T
   7   -369.5617640 -0.749144E-07  0.298E-04    0.30      22.8  T
     SCC iter.                  ...        0 min,  0.297 sec
     gradient                   ...        0 min,  0.160 sec
 * total energy  :  -363.5366837 Eh     change       -0.1070373E-02 Eh
   gradient norm :     0.0121101 Eh/α   predicted    -0.1072304E-02 (   0.18%)
   displ. norm   :     0.6617019 α      lambda       -0.1417663E-02
   maximum displ.:     0.1953028 α      in ANC's #1, #6, #21, ...

........................................................................
.............................. CYCLE   32 ..............................
........................................................................
   1   -369.5698257 -0.369570E+03  0.810E-02    0.29       0.0  T
   2   -369.5698391 -0.134477E-04  0.454E-02    0.30       1.0  T
   3   -369.5697872  0.519005E-04  0.169E-02    0.29       1.0  T
   4   -369.5698451 -0.579247E-04  0.507E-03    0.30       1.3  T
   5   -369.5698470 -0.182786E-05  0.280E-03    0.30       2.4  T
   6   -369.5698482 -0.122554E-05  0.554E-04    0.30      12.2  T
   7   -369.5698482 -0.416419E-07  0.288E-04    0.30      23.6  T
   8   -369.5698482 -0.652909E-08  0.165E-04    0.30      41.1  T
     SCC iter.                  ...        0 min,  0.336 sec
     gradient                   ...        0 min,  0.160 sec
 * total energy  :  -363.5378944 Eh     change       -0.1210714E-02 Eh
   gradient norm :     0.0071041 Eh/α   predicted    -0.1019195E-02 ( -15.82%)
   displ. norm   :     0.8262111 α      lambda       -0.1497421E-02
   maximum displ.:     0.2412416 α      in ANC's #6, #1, #21, ...

........................................................................
.............................. CYCLE   33 ..............................
........................................................................
   1   -369.5758072 -0.369576E+03  0.995E-02    0.29       0.0  T
   2   -369.5758278 -0.206026E-04  0.559E-02    0.31       1.0  T
   3   -369.5757319  0.959004E-04  0.226E-02    0.29       1.0  T
   4   -369.5758382 -0.106326E-03  0.637E-03    0.31       1.1  T
   5   -369.5758415 -0.325800E-05  0.339E-03    0.30       2.0  T
   6   -369.5758431 -0.164875E-05  0.733E-04    0.30       9.3  T
   7   -369.5758432 -0.788138E-07  0.359E-04    0.30      18.9  T
   8   -369.5758432 -0.141529E-07  0.201E-04    0.30      33.7  T
     SCC iter.                  ...        0 min,  0.333 sec
     gradient                   ...        0 min,  0.160 sec
 * total energy  :  -363.5392390 Eh     change       -0.1344583E-02 Eh
   gradient norm :     0.0058602 Eh/α   predicted    -0.1259805E-02 (  -6.31%)
   displ. norm   :     0.9192009 α      lambda       -0.1486116E-02
   maximum displ.:     0.2648887 α      in ANC's #6, #1, #21, ...

........................................................................
.............................. CYCLE   34 ..............................
........................................................................
   1   -369.5699186 -0.369570E+03  0.118E-01    0.28       0.0  T
   2   -369.5699490 -0.303765E-04  0.662E-02    0.31       1.0  T
   3   -369.5697973  0.151708E-03  0.279E-02    0.29       1.0  T
   4   -369.5699661 -0.168785E-03  0.747E-03    0.31       1.0  T
   5   -369.5699707 -0.466375E-05  0.396E-03    0.31       1.7  T
   6   -369.5699728 -0.209772E-05  0.973E-04    0.31       7.0  T
   7   -369.5699730 -0.150142E-06  0.457E-04    0.31      14.8  T
   8   -369.5699730 -0.270574E-07  0.245E-04    0.31      27.7  T
     SCC iter.                  ...        0 min,  0.334 sec
     gradient                   ...        0 min,  0.159 sec
 * total energy  :  -363.5405661 Eh     change       -0.1327153E-02 Eh
   gradient norm :     0.0098577 Eh/α   predicted    -0.1370890E-02 (   3.30%)
   displ. norm   :     0.8188352 α      lambda       -0.1610807E-02
   maximum displ.:     0.2444295 α      in ANC's #6, #1, #21, ...

........................................................................
.............................. CYCLE   35 ..............................
........................................................................
   1   -369.5854156 -0.369585E+03  0.114E-01    0.29       0.0  T
   2   -369.5854445 -0.289261E-04  0.639E-02    0.32       1.0  T
   3   -369.5852908  0.153685E-03  0.280E-02    0.30       1.0  T
   4   -369.5854629 -0.172074E-03  0.690E-03    0.31       1.0  T
   5   -369.5854668 -0.387841E-05  0.369E-03    0.31       1.8  T
   6   -369.5854685 -0.176244E-05  0.955E-04    0.31       7.1  T
   7   -369.5854686 -0.128860E-06  0.466E-04    0.31      14.6  T
   8   -369.5854687 -0.269581E-07  0.244E-04    0.31      27.8  T
     SCC iter.                  ...        0 min,  0.335 sec
     gradient                   ...        0 min,  0.160 sec
 * total energy  :  -363.5417494 Eh     change       -0.1183283E-02 Eh
   gradient norm :     0.0113596 Eh/α   predicted    -0.1345423E-02 (  13.70%)
   displ. norm   :     0.8334969 α      lambda       -0.1681824E-02
   maximum displ.:     0.2391414 α      in ANC's #6, #1, #21, ...

........................................................................
.............................. CYCLE   36 ..............................
........................................................................
   1   -369.5712644 -0.369571E+03  0.124E-01    0.30       0.0  T
   2   -369.5713018 -0.374811E-04  0.696E-02    0.32       1.0  T
   3   -369.5711025  0.199315E-03  0.311E-02    0.30       1.0  T
   4   -369.5713277 -0.225146E-03  0.736E-03    0.32       1.0  T
   5   -369.5713326 -0.490673E-05  0.385E-03    0.32       1.8  T
   6   -369.5713343 -0.171187E-05  0.112E-03    0.32       6.0  T
   7   -369.5713345 -0.198543E-06  0.517E-04    0.32      13.1  T
   8   -369.5713345 -0.351264E-07  0.258E-04    0.32      26.3  T
     SCC iter.                  ...        0 min,  0.334 sec
     gradient                   ...        0 min,  0.159 sec
 * total energy  :  -363.5429504 Eh     change       -0.1201015E-02 Eh
   gradient norm :     0.0124209 Eh/α   predicted    -0.1425108E-02 (  18.66%)
   displ. norm   :     0.7923743 α      lambda       -0.1370813E-02
   maximum displ.:     0.2427748 α      in ANC's #6, #1, #21, ...

........................................................................
.............................. CYCLE   37 ..............................
........................................................................
   1   -369.5648912 -0.369565E+03  0.100E-01    0.30       0.0  T
   2   -369.5649184 -0.271966E-04  0.561E-02    0.32       1.0  T
   3   -369.5647422  0.176251E-03  0.296E-02    0.30       1.0  T
   4   -369.5649418 -0.199651E-03  0.676E-03    0.32       1.0  T
   5   -369.5649460 -0.424054E-05  0.355E-03    0.32       1.9  T
   6   -369.5649475 -0.144370E-05  0.103E-03    0.32       6.6  T
   7   -369.5649477 -0.176599E-06  0.498E-04    0.32      13.6  T
   8   -369.5649477 -0.405531E-07  0.242E-04    0.32      28.0  T
     SCC iter.                  ...        0 min,  0.334 sec
     gradient                   ...        0 min,  0.162 sec
 * total energy  :  -363.5441066 Eh     change       -0.1156148E-02 Eh
   gradient norm :     0.0126913 Eh/α   predicted    -0.1115744E-02 (  -3.49%)
   displ. norm   :     0.6710998 α      lambda       -0.1541587E-02
   maximum displ.:     0.2104715 α      in ANC's #6, #19, #17, ...

........................................................................
.............................. CYCLE   38 ..............................
........................................................................
   1   -369.5778242 -0.369578E+03  0.926E-02    0.30       0.0  T
   2   -369.5778489 -0.246163E-04  0.516E-02    0.32       1.0  T
   3   -369.5777137  0.135119E-03  0.257E-02    0.31       1.0  T
   4   -369.5778668 -0.153059E-03  0.599E-03    0.32       1.1  T
   5   -369.5778698 -0.300179E-05  0.329E-03    0.32       2.1  T
   6   -369.5778710 -0.124686E-05  0.112E-03    0.32       6.1  T
   7   -369.5778713 -0.219233E-06  0.503E-04    0.32      13.5  T
   8   -369.5778713 -0.386202E-07  0.247E-04    0.32      27.4  T
     SCC iter.                  ...        0 min,  0.340 sec
     gradient                   ...        0 min,  0.166 sec
 * total energy  :  -363.5451324 Eh     change       -0.1025789E-02 Eh
   gradient norm :     0.0154859 Eh/α   predicted    -0.1117943E-02 (   8.98%)
   displ. norm   :     0.8237161 α      lambda       -0.1496485E-02
   maximum displ.:     0.2564941 α      in ANC's #6, #1, #17, ...

........................................................................
.............................. CYCLE   39 ..............................
........................................................................
   1   -369.5714680 -0.369571E+03  0.106E-01    0.30       0.0  T
   2   -369.5714921 -0.240871E-04  0.596E-02    0.33       1.0  T
   3   -369.5713041  0.187972E-03  0.298E-02    0.31       1.0  T
   4   -369.5715138 -0.209686E-03  0.702E-03    0.33       1.0  T
   5   -369.5715181 -0.430574E-05  0.375E-03    0.32       1.8  T
   6   -369.5715198 -0.173281E-05  0.112E-03    0.32       6.1  T
   7   -369.5715201 -0.251274E-06  0.496E-04    0.32      13.7  T
   8   -369.5715201 -0.379052E-07  0.247E-04    0.32      27.4  T
     SCC iter.                  ...        0 min,  0.367 sec
     gradient                   ...        0 min,  0.166 sec
 * total energy  :  -363.5463695 Eh     change       -0.1237115E-02 Eh
   gradient norm :     0.0125539 Eh/α   predicted    -0.1255939E-02 (   1.52%)
   displ. norm   :     0.7621741 α      lambda       -0.1471121E-02
   maximum displ.:     0.2445901 α      in ANC's #6, #1, #17, ...

........................................................................
.............................. CYCLE   40 ..............................
........................................................................
   1   -369.5728236 -0.369573E+03  0.967E-02    0.31       0.0  T
   2   -369.5728445 -0.208522E-04  0.545E-02    0.33       1.0  T
   3   -369.5726655  0.178973E-03  0.281E-02    0.31       1.0  T
   4   -369.5728659 -0.200405E-03  0.609E-03    0.33       1.1  T
   5   -369.5728687 -0.278796E-05  0.333E-03    0.33       2.0  T
   6   -369.5728701 -0.136240E-05  0.128E-03    0.32       5.3  T
   7   -369.5728704 -0.349456E-06  0.482E-04    0.32      14.1  T
   8   -369.5728705 -0.366769E-07  0.236E-04    0.32      28.8  T
     SCC iter.                  ...        0 min,  0.356 sec
     gradient                   ...        0 min,  0.166 sec
 * total energy  :  -363.5473504 Eh     change       -0.9808966E-03 Eh
   gradient norm :     0.0162710 Eh/α   predicted    -0.1162856E-02 (  18.55%)
   displ. norm   :     0.7508801 α      lambda       -0.1394808E-02
   maximum displ.:     0.2471200 α      in ANC's #6, #17, #1, ...

........................................................................
.............................. CYCLE   41 ..............................
........................................................................
   1   -369.5712165 -0.369571E+03  0.911E-02    0.31       0.0  T
   2   -369.5712386 -0.220968E-04  0.510E-02    0.33       1.0  T
   3   -369.5710835  0.155089E-03  0.266E-02    0.31       1.0  T
   4   -369.5712574 -0.173951E-03  0.668E-03    0.33       1.0  T
   5   -369.5712610 -0.352073E-05  0.352E-03    0.32       1.9  T
   6   -369.5712623 -0.138365E-05  0.125E-03    0.32       5.4  T
   7   -369.5712627 -0.352301E-06  0.504E-04    0.32      13.5  T
   8   -369.5712627 -0.420774E-07  0.241E-04    0.32      28.2  T
     SCC iter.                  ...        0 min,  0.355 sec
     gradient                   ...        0 min,  0.166 sec
 * total energy  :  -363.5483733 Eh     change       -0.1022934E-02 Eh
   gradient norm :     0.0143604 Eh/α   predicted    -0.1090617E-02 (   6.62%)
   displ. norm   :     0.6276627 α      lambda       -0.1569248E-02
   maximum displ.:     0.2125926 α      in ANC's #6, #17, #19, ...

........................................................................
.............................. CYCLE   42 ..............................
........................................................................
   1   -369.5961932 -0.369596E+03  0.837E-02    0.32       0.0  T
   2   -369.5962238 -0.305683E-04  0.470E-02    0.33       1.0  T
   3   -369.5961353  0.884550E-04  0.205E-02    0.32       1.0  T
   4   -369.5962317 -0.964103E-04  0.668E-03    0.33       1.0  T
   5   -369.5962382 -0.644592E-05  0.302E-03    0.32       2.2  T
   6   -369.5962390 -0.806695E-06  0.142E-03    0.33       4.8  T
   7   -369.5962394 -0.410796E-06  0.584E-04    0.32      11.6  T
   8   -369.5962394 -0.549532E-07  0.262E-04    0.32      25.9  T
     SCC iter.                  ...        0 min,  0.344 sec
     gradient                   ...        0 min,  0.161 sec
 * total energy  :  -363.5486748 Eh     change       -0.3015127E-03 Eh
   gradient norm :     0.0264437 Eh/α   predicted    -0.1093740E-02 ( 262.75%)
   displ. norm   :     0.5016515 α      lambda       -0.1961378E-02
   maximum displ.:     0.1606824 α      in ANC's #6, #1, #17, ...
 * RMSD in coord.:     0.8769922 α      energy gain  -0.2165497E-01 Eh

generating ANC from model Hessian ...
Using Lindh-Hessian (1995)
 Shifting diagonal of input Hessian by   1.002999965048200E-002
 Lowest  eigenvalues of input Hessian
    0.010000    0.010015    0.000000    0.000000    0.000000    0.000000
    0.000000    0.000000    0.010031    0.010043    0.010061    0.010070
    0.010086    0.010127    0.010155    0.010159    0.010175    0.010222
 Highest eigenvalues
    2.387195    2.406147    2.606594    2.608560    2.640882    2.657197
 

........................................................................
.............................. CYCLE   43 ..............................
........................................................................
   1   -369.5800784 -0.369580E+03  0.682E-02    0.31       0.0  T
   2   -369.5800957 -0.172937E-04  0.376E-02    0.32       1.0  T
   3   -369.5800339  0.617774E-04  0.181E-02    0.31       1.0  T
   4   -369.5801042 -0.703377E-04  0.507E-03    0.32       1.3  T
   5   -369.5801065 -0.224769E-05  0.256E-03    0.32       2.7  T
   6   -369.5801070 -0.555968E-06  0.115E-03    0.32       5.9  T
   7   -369.5801073 -0.287692E-06  0.384E-04    0.32      17.7  T
   8   -369.5801073 -0.172865E-07  0.217E-04    0.32      31.2  T
     SCC iter.                  ...        0 min,  0.338 sec
     gradient                   ...        0 min,  0.162 sec
 * total energy  :  -363.5497931 Eh     change       -0.1118263E-02 Eh
   gradient norm :     0.0148632 Eh/α   predicted     0.0000000E+00 (-100.00%)
   displ. norm   :     0.1378123 α      lambda       -0.5288702E-03
   maximum displ.:     0.0394441 α      in ANC's #23, #6, #18, ...

........................................................................
.............................. CYCLE   44 ..............................
........................................................................
   1   -369.5840309 -0.369584E+03  0.351E-02    0.32       0.0  T
   2   -369.5840346 -0.375376E-05  0.194E-02    0.32       1.0  T
   3   -369.5840286  0.603716E-05  0.566E-03    0.32       1.2  T
   4   -369.5840355 -0.691456E-05  0.203E-03    0.32       3.3  T
   5   -369.5840361 -0.586601E-06  0.952E-04    0.32       7.1  T
   6   -369.5840362 -0.108314E-06  0.340E-04    0.32      20.0  T
     SCC iter.                  ...        0 min,  0.255 sec
     gradient                   ...        0 min,  0.162 sec
 * total energy  :  -363.5501482 Eh     change       -0.3550581E-03 Eh
   gradient norm :     0.0050246 Eh/α   predicted    -0.2694634E-03 ( -24.11%)
   displ. norm   :     0.3634975 α      lambda       -0.8250436E-03
   maximum displ.:     0.1063015 α      in ANC's #6, #18, #23, ...

........................................................................
.............................. CYCLE   45 ..............................
........................................................................
   1   -369.5882756 -0.369588E+03  0.106E-01    0.32       0.0  T
   2   -369.5883058 -0.301735E-04  0.582E-02    0.32       1.0  T
   3   -369.5882956  0.102070E-04  0.953E-03    0.32       1.0  T
   4   -369.5883130 -0.174289E-04  0.471E-03    0.32       1.4  T
   5   -369.5883162 -0.317478E-05  0.239E-03    0.32       2.8  T
   6   -369.5883172 -0.106081E-05  0.719E-04    0.32       9.4  T
   7   -369.5883173 -0.722149E-07  0.352E-04    0.32      19.3  T
   8   -369.5883173 -0.150179E-07  0.181E-04    0.32      37.6  T
     SCC iter.                  ...        0 min,  0.343 sec
     gradient                   ...        0 min,  0.166 sec
 * total energy  :  -363.5501234 Eh     change        0.2474494E-04 Eh
   gradient norm :     0.0181752 Eh/α   predicted    -0.4670296E-03 (*******%)
   displ. norm   :     0.2172558 α      lambda       -0.1065009E-02
   maximum displ.:     0.0635760 α      in ANC's #1, #23, #6, ...

........................................................................
.............................. CYCLE   46 ..............................
........................................................................
   1   -369.5891750 -0.369589E+03  0.799E-02    0.32       0.0  T
   2   -369.5891920 -0.170322E-04  0.438E-02    0.32       1.0  T
   3   -369.5891929 -0.932689E-06  0.536E-03    0.32       1.3  T
   4   -369.5891975 -0.457471E-05  0.265E-03    0.32       2.6  T
   5   -369.5891983 -0.773061E-06  0.123E-03    0.32       5.5  T
   6   -369.5891986 -0.309110E-06  0.427E-04    0.32      15.9  T
   7   -369.5891986 -0.283474E-07  0.188E-04    0.32      36.1  T
     SCC iter.                  ...        0 min,  0.308 sec
     gradient                   ...        0 min,  0.166 sec
 * total energy  :  -363.5507126 Eh     change       -0.5892363E-03 Eh
   gradient norm :     0.0144823 Eh/α   predicted    -0.5576384E-03 (  -5.36%)
   displ. norm   :     0.2965391 α      lambda       -0.9443208E-03
   maximum displ.:     0.0830210 α      in ANC's #23, #6, #18, ...

........................................................................
.............................. CYCLE   47 ..............................
........................................................................
   1   -369.5836829 -0.369584E+03  0.994E-02    0.32       0.0  T
   2   -369.5837067 -0.237857E-04  0.545E-02    0.32       1.0  T
   3   -369.5836959  0.108464E-04  0.102E-02    0.32       1.0  T
   4   -369.5837152 -0.193045E-04  0.355E-03    0.32       1.9  T
   5   -369.5837159 -0.758052E-06  0.182E-03    0.32       3.7  T
   6   -369.5837166 -0.613012E-06  0.683E-04    0.32       9.9  T
   7   -369.5837166 -0.859345E-07  0.274E-04    0.32      24.8  T
     SCC iter.                  ...        0 min,  0.297 sec
     gradient                   ...        0 min,  0.162 sec
 * total energy  :  -363.5510060 Eh     change       -0.2933151E-03 Eh
   gradient norm :     0.0107278 Eh/α   predicted    -0.5136801E-03 (  75.13%)
   displ. norm   :     0.3668879 α      lambda       -0.7885865E-03
   maximum displ.:     0.1104082 α      in ANC's #6, #23, #18, ...

........................................................................
.............................. CYCLE   48 ..............................
........................................................................
   1   -369.5854125 -0.369585E+03  0.625E-02    0.32       0.0  T
   2   -369.5854220 -0.957197E-05  0.332E-02    0.32       1.0  T
   3   -369.5854158  0.628414E-05  0.716E-03    0.32       1.0  T
   4   -369.5854232 -0.743152E-05  0.388E-03    0.32       1.8  T
   5   -369.5854251 -0.190227E-05  0.162E-03    0.32       4.2  T
   6   -369.5854256 -0.561612E-06  0.496E-04    0.32      13.7  T
   7   -369.5854257 -0.391410E-07  0.237E-04    0.32      28.7  T
     SCC iter.                  ...        0 min,  0.294 sec
     gradient                   ...        0 min,  0.161 sec
 * total energy  :  -363.5516655 Eh     change       -0.6595821E-03 Eh
   gradient norm :     0.0064754 Eh/α   predicted    -0.4473698E-03 ( -32.17%)
   displ. norm   :     0.7281739 α      lambda       -0.1063106E-02
   maximum displ.:     0.2214006 α      in ANC's #6, #23, #18, ...

........................................................................
.............................. CYCLE   49 ..............................
........................................................................
   1   -369.5834456 -0.369583E+03  0.987E-02    0.31       0.0  T
   2   -369.5834705 -0.248510E-04  0.511E-02    0.31       1.0  T
   3   -369.5834499  0.205745E-04  0.130E-02    0.32       1.0  T
   4   -369.5834728 -0.228604E-04  0.697E-03    0.31       1.0  T
   5   -369.5834774 -0.463185E-05  0.308E-03    0.31       2.2  T
   6   -369.5834795 -0.207538E-05  0.892E-04    0.31       7.6  T
   7   -369.5834796 -0.142764E-06  0.412E-04    0.31      16.5  T
   8   -369.5834796 -0.217473E-07  0.199E-04    0.31      34.2  T
     SCC iter.                  ...        0 min,  0.333 sec
     gradient                   ...        0 min,  0.160 sec
 * total energy  :  -363.5525623 Eh     change       -0.8967423E-03 Eh
   gradient norm :     0.0065152 Eh/α   predicted    -0.8134043E-03 (  -9.29%)
   displ. norm   :     0.7826638 α      lambda       -0.9311175E-03
   maximum displ.:     0.2458054 α      in ANC's #6, #18, #23, ...

........................................................................
.............................. CYCLE   50 ..............................
........................................................................
   1   -369.5825601 -0.369583E+03  0.958E-02    0.31       0.0  T
   2   -369.5825839 -0.238293E-04  0.490E-02    0.31       1.0  T
   3   -369.5825631  0.208864E-04  0.132E-02    0.31       1.0  T
   4   -369.5825862 -0.231252E-04  0.708E-03    0.31       1.0  T
   5   -369.5825903 -0.416492E-05  0.306E-03    0.31       2.2  T
   6   -369.5825923 -0.200409E-05  0.876E-04    0.31       7.7  T
   7   -369.5825925 -0.141562E-06  0.418E-04    0.31      16.2  T
   8   -369.5825925 -0.274838E-07  0.189E-04    0.31      35.9  T
     SCC iter.                  ...        0 min,  0.335 sec
     gradient                   ...        0 min,  0.161 sec
 * total energy  :  -363.5533944 Eh     change       -0.8321622E-03 Eh
   gradient norm :     0.0087344 Eh/α   predicted    -0.7507545E-03 (  -9.78%)
   displ. norm   :     0.7953753 α      lambda       -0.1058152E-02
   maximum displ.:     0.2514154 α      in ANC's #6, #18, #23, ...

........................................................................
.............................. CYCLE   51 ..............................
........................................................................
   1   -369.5859258 -0.369586E+03  0.990E-02    0.30       0.0  T
   2   -369.5859515 -0.257958E-04  0.512E-02    0.31       1.0  T
   3   -369.5859293  0.222261E-04  0.140E-02    0.31       1.0  T
   4   -369.5859558 -0.264557E-04  0.704E-03    0.31       1.0  T
   5   -369.5859596 -0.384858E-05  0.281E-03    0.31       2.4  T
   6   -369.5859611 -0.142983E-05  0.779E-04    0.31       8.7  T
   7   -369.5859611 -0.837773E-07  0.411E-04    0.31      16.5  T
   8   -369.5859612 -0.250139E-07  0.202E-04    0.31      33.6  T
     SCC iter.                  ...        0 min,  0.338 sec
     gradient                   ...        0 min,  0.161 sec
 * total energy  :  -363.5542344 Eh     change       -0.8399874E-03 Eh
   gradient norm :     0.0097944 Eh/α   predicted    -0.8637879E-03 (   2.83%)
   displ. norm   :     0.7354236 α      lambda       -0.1293517E-02
   maximum displ.:     0.2538762 α      in ANC's #6, #18, #23, ...

........................................................................
.............................. CYCLE   52 ..............................
........................................................................
   1   -369.5944968 -0.369594E+03  0.107E-01    0.30       0.0  T
   2   -369.5945268 -0.299987E-04  0.567E-02    0.31       1.0  T
   3   -369.5944983  0.285211E-04  0.148E-02    0.30       1.0  T
   4   -369.5945335 -0.352476E-04  0.684E-03    0.31       1.0  T
   5   -369.5945374 -0.392385E-05  0.286E-03    0.31       2.4  T
   6   -369.5945388 -0.134951E-05  0.845E-04    0.31       8.0  T
   7   -369.5945389 -0.961459E-07  0.452E-04    0.31      15.0  T
   8   -369.5945389 -0.302380E-07  0.230E-04    0.31      29.5  T
     SCC iter.                  ...        0 min,  0.335 sec
     gradient                   ...        0 min,  0.161 sec
 * total energy  :  -363.5550699 Eh     change       -0.8354380E-03 Eh
   gradient norm :     0.0134628 Eh/α   predicted    -0.9965580E-03 (  19.29%)
   displ. norm   :     0.7609755 α      lambda       -0.1239692E-02
   maximum displ.:     0.2379383 α      in ANC's #6, #18, #23, ...

........................................................................
.............................. CYCLE   53 ..............................
........................................................................
   1   -369.5837342 -0.369584E+03  0.986E-02    0.30       0.0  T
   2   -369.5837607 -0.265260E-04  0.502E-02    0.31       1.0  T
   3   -369.5837469  0.137421E-04  0.127E-02    0.31       1.0  T
   4   -369.5837625 -0.155692E-04  0.715E-03    0.31       1.0  T
   5   -369.5837672 -0.469460E-05  0.280E-03    0.31       2.4  T
   6   -369.5837685 -0.128814E-05  0.977E-04    0.31       6.9  T
   7   -369.5837687 -0.189099E-06  0.396E-04    0.31      17.1  T
   8   -369.5837687 -0.169469E-07  0.224E-04    0.31      30.4  T
     SCC iter.                  ...        0 min,  0.335 sec
     gradient                   ...        0 min,  0.160 sec
 * total energy  :  -363.5559311 Eh     change       -0.8611968E-03 Eh
   gradient norm :     0.0112087 Eh/α   predicted    -0.9787962E-03 (  13.66%)
   displ. norm   :     0.6735307 α      lambda       -0.9486441E-03
   maximum displ.:     0.2243229 α      in ANC's #6, #18, #23, ...

........................................................................
.............................. CYCLE   54 ..............................
........................................................................
   1   -369.5843837 -0.369584E+03  0.785E-02    0.30       0.0  T
   2   -369.5843996 -0.159204E-04  0.405E-02    0.31       1.0  T
   3   -369.5843828  0.167800E-04  0.117E-02    0.30       1.0  T
   4   -369.5844016 -0.188031E-04  0.583E-03    0.31       1.2  T
   5   -369.5844045 -0.289546E-05  0.230E-03    0.31       2.9  T
   6   -369.5844054 -0.919999E-06  0.677E-04    0.31      10.0  T
   7   -369.5844055 -0.794767E-07  0.321E-04    0.31      21.1  T
     SCC iter.                  ...        0 min,  0.288 sec
     gradient                   ...        0 min,  0.160 sec
 * total energy  :  -363.5567406 Eh     change       -0.8094973E-03 Eh
   gradient norm :     0.0083314 Eh/α   predicted    -0.6894986E-03 ( -14.82%)
   displ. norm   :     0.7696971 α      lambda       -0.1016760E-02
   maximum displ.:     0.2610264 α      in ANC's #6, #18, #12, ...

........................................................................
.............................. CYCLE   55 ..............................
........................................................................
   1   -369.5911509 -0.369591E+03  0.857E-02    0.30       0.0  T
   2   -369.5911703 -0.194489E-04  0.441E-02    0.30       1.0  T
   3   -369.5911499  0.204246E-04  0.127E-02    0.30       1.0  T
   4   -369.5911716 -0.217393E-04  0.666E-03    0.31       1.0  T
   5   -369.5911758 -0.415344E-05  0.278E-03    0.30       2.4  T
   6   -369.5911771 -0.135266E-05  0.820E-04    0.30       8.3  T
   7   -369.5911772 -0.120116E-06  0.401E-04    0.30      16.9  T
   8   -369.5911773 -0.282927E-07  0.209E-04    0.30      32.4  T
     SCC iter.                  ...        0 min,  0.328 sec
     gradient                   ...        0 min,  0.161 sec
 * total energy  :  -363.5575824 Eh     change       -0.8417939E-03 Eh
   gradient norm :     0.0080784 Eh/α   predicted    -0.8095661E-03 (  -3.83%)
   displ. norm   :     0.8522619 α      lambda       -0.9958145E-03
   maximum displ.:     0.2913385 α      in ANC's #6, #18, #9, ...

........................................................................
.............................. CYCLE   56 ..............................
........................................................................
   1   -369.5904204 -0.369590E+03  0.993E-02    0.30       0.0  T
   2   -369.5904458 -0.254198E-04  0.503E-02    0.30       1.0  T
   3   -369.5904304  0.154545E-04  0.131E-02    0.30       1.0  T
   4   -369.5904476 -0.171951E-04  0.729E-03    0.31       1.0  T
   5   -369.5904519 -0.436783E-05  0.302E-03    0.30       2.2  T
   6   -369.5904537 -0.181605E-05  0.770E-04    0.30       8.8  T
   7   -369.5904538 -0.103961E-06  0.384E-04    0.30      17.7  T
   8   -369.5904539 -0.290207E-07  0.193E-04    0.30      35.1  T
     SCC iter.                  ...        0 min,  0.353 sec
     gradient                   ...        0 min,  0.160 sec
 * total energy  :  -363.5584579 Eh     change       -0.8755400E-03 Eh
   gradient norm :     0.0059575 Eh/α   predicted    -0.8595679E-03 (  -1.82%)
   displ. norm   :     0.8202784 α      lambda       -0.9456014E-03
   maximum displ.:     0.2845176 α      in ANC's #18, #6, #9, ...

........................................................................
.............................. CYCLE   57 ..............................
........................................................................
   1   -369.5967256 -0.369597E+03  0.943E-02    0.30       0.0  T
   2   -369.5967488 -0.232813E-04  0.483E-02    0.30       1.0  T
   3   -369.5967380  0.108154E-04  0.119E-02    0.30       1.0  T
   4   -369.5967504 -0.123247E-04  0.672E-03    0.31       1.0  T
   5   -369.5967542 -0.386192E-05  0.274E-03    0.30       2.5  T
   6   -369.5967556 -0.141670E-05  0.818E-04    0.30       8.3  T
   7   -369.5967558 -0.124430E-06  0.332E-04    0.30      20.4  T
   8   -369.5967558 -0.116965E-07  0.207E-04    0.30      32.8  T
     SCC iter.                  ...        0 min,  0.348 sec
     gradient                   ...        0 min,  0.162 sec
 * total energy  :  -363.5592406 Eh     change       -0.7826980E-03 Eh
   gradient norm :     0.0062463 Eh/α   predicted    -0.7909369E-03 (   1.05%)
   displ. norm   :     0.8876197 α      lambda       -0.9461607E-03
   maximum displ.:     0.3028702 α      in ANC's #18, #6, #3, ...

........................................................................
.............................. CYCLE   58 ..............................
........................................................................
   1   -369.5845610 -0.369585E+03  0.108E-01    0.30       0.0  T
   2   -369.5845912 -0.301568E-04  0.545E-02    0.31       1.0  T
[...]
   187   1 H    0.996 --    87 C    0.979
   188   1 H    0.996 --    87 C    0.982
   189   1 H    0.996 --    87 C    0.982
   190   1 H    0.998 --    88 C    0.965
   191   1 H    0.999 --    89 C    0.966
   192   1 H    0.998 --    91 C    0.965
   193   1 H    0.997 --    92 C    0.967
   194   1 H    0.996 --    95 C    0.984
   195   1 H    0.995 --    95 C    0.972
   196   1 H    0.996 --    95 C    0.980
   197   1 H    0.997 --    96 C    0.962
   198   1 H    0.999 --    97 C    0.967
   199   1 H    0.997 --   101 C    0.962
   200   1 H    0.996 --   102 C    0.962
   201   1 H    0.996 --   108 C    0.973
   202   1 H    0.997 --   108 C    0.976
   203   1 H    0.992 --   108 C    0.974
   204   1 H    0.998 --   110 C    0.965
   205   1 H    0.996 --   115 C    0.975
   206   1 H    0.996 --   115 C    0.976
   207   1 H    0.992 --   115 C    0.974
   208   1 H    0.997 --   117 C    0.965
   209   1 H    0.998 --   119 C    0.967
   210   1 H    0.996 --   120 C    0.950
   211   1 H    0.994 --   122 C    0.946
   212   1 H    0.995 --   129 C    0.978
   213   1 H    0.993 --   129 C    0.959
   214   1 H    0.998 --   129 C    0.977
   215   1 H    0.995 --   130 C    0.965
   216   1 H    0.996 --   131 C    0.968
   217   1 H    0.995 --   132 C    0.959
 ---------------------------------------------------------------------------

Topologies differ in bond orders
Writing corrected topology to xtbtopo.mol

molecular dipole:
                 x           y           z       tot (Debye)
 q only:        0.108      -2.648      -2.273
   full:       -0.177      -3.243      -3.321      11.805
molecular quadrupole (traceless):
                xx          xy          yy          xz          yz          zz
 q only:       63.639     -11.202      21.185      15.466       5.391     -84.824
  q+dip:       71.191     -17.006      27.525      14.942      14.744     -98.715
   full:       63.733     -17.543      41.469      13.345      11.763    -105.202

           -------------------------------------------------
          |                Geometry Summary                 |
           -------------------------------------------------

      molecular mass/u    :     1948.4470989
   center of mass at/Å    :        0.0117259       0.1029332       0.0851754
  moments of inertia/u·Å² :        0.4397457E+05   0.9809021E+05   0.1121459E+06
rotational constants/cm⁻¹ :        0.3833495E-03   0.1718585E-03   0.1503188E-03

 * 210 selected distances

     #   Z          #   Z                                           value/Å
     1   6 C        2   6 C                                       1.3740705
     3   6 C        4   8 O                                       1.2196362
     5   6 C        6   6 C                                       1.3922470
     6   6 C        7   6 C                                       1.3744732
     7   6 C        8   6 C                                       1.4006566
     8   6 C        9   6 C                                       1.3751649
     5   6 C       10   6 C                                       1.4096179
     9   6 C       10   6 C                                       1.3969445
    11   6 C       12   6 C                                       1.3737271
    13   6 C       14   7 N                                       1.1500195
    15   6 C       16   7 N                                       1.1487122
     8   6 C       17   6 C                                       1.5082678
    17   6 C       18   6 C                                       1.5485818
    19   6 C       20   6 C                                       1.3263160
    18   6 C       22   6 C                                       1.5370436
    21   6 C       22   6 C                                       1.5370166
     7   6 C       23   6 C                                       1.5082171
    17   6 C       23   6 C                                       1.5613055
    21   6 C       23   6 C                                       1.5490443
     1   6 C       24   6 C                                       1.3960804
    24   6 C       25   6 C                                       1.4171055
    25   6 C       26   7 N                                       1.3731017
    26   7 N       27   6 C                                       1.4082850
    27   6 C       28   6 C                                       1.3932037
    28   6 C       29   6 C                                       1.3813926
    29   6 C       30   6 C                                       1.3846358
    30   6 C       31   6 C                                       1.3853087
    27   6 C       32   6 C                                       1.3920521
    31   6 C       32   6 C                                       1.3819116
    26   7 N       33   6 C                                       1.4063752
    33   6 C       34   6 C                                       1.3942400
    34   6 C       35   6 C                                       1.3805489
    35   6 C       36   6 C                                       1.3862857
    36   6 C       37   6 C                                       1.3843111
    33   6 C       38   6 C                                       1.3927092
    37   6 C       38   6 C                                       1.3824041
    25   6 C       39   6 C                                       1.4037143
    39   6 C       40  16 S                                       1.7329487
    40  16 S       41   6 C                                       1.7544525
    41   6 C       42   6 C                                       1.3794777
    42   6 C       43   7 N                                       1.4120275
    43   7 N       44   6 C                                       1.4118574
    44   6 C       45   6 C                                       1.3937617
    45   6 C       46   6 C                                       1.3814606
    46   6 C       47   6 C                                       1.3850121
    47   6 C       48   6 C                                       1.3836178
    44   6 C       49   6 C                                       1.3937117
    48   6 C       49   6 C                                       1.3826516
    43   7 N       50   6 C                                       1.3988485
    50   6 C       51   6 C                                       1.3929632
    51   6 C       52   6 C                                       1.3819839
    52   6 C       53   6 C                                       1.3830130
    53   6 C       54   6 C                                       1.3858137
    50   6 C       55   6 C                                       1.3966364
    54   6 C       55   6 C                                       1.3798884
    39   6 C       56   6 C                                       1.3895304
    42   6 C       56   6 C                                       1.4141910
    56   6 C       57  16 S                                       1.7265597
    41   6 C       58   6 C                                       1.4324477
    58   6 C       59   6 C                                       1.3817686
    59   6 C       60   7 N                                       1.3871312
    60   7 N       61   6 C                                       1.4060961
    61   6 C       62   6 C                                       1.3963521
    62   6 C       63   6 C                                       1.3756720
    63   6 C       64   6 C                                       1.3934635
    64   6 C       67   6 C                                       1.3880138
    61   6 C       68   6 C                                       1.3905677
    67   6 C       68   6 C                                       1.3818422
    60   7 N       69   6 C                                       1.3953942
    69   6 C       70   6 C                                       1.3934312
    70   6 C       71   6 C                                       1.3815209
    71   6 C       72   6 C                                       1.3867275
    72   6 C       75   6 C                                       1.3923343
    69   6 C       76   6 C                                       1.3962653
    75   6 C       76   6 C                                       1.3756761
    59   6 C       77   6 C                                       1.4204556
    77   6 C       78  16 S                                       1.7286030
    78  16 S       79   6 C                                       1.7576064 (max)
    79   6 C       80   6 C                                       1.3857550
    80   6 C       81   7 N                                       1.3898609
    81   7 N       82   6 C                                       1.3990772
    82   6 C       83   6 C                                       1.3958186
    83   6 C       84   6 C                                       1.3760157
    84   6 C       85   6 C                                       1.3941735
    85   6 C       88   6 C                                       1.3871617
    82   6 C       89   6 C                                       1.3932626
    88   6 C       89   6 C                                       1.3810796
    81   7 N       90   6 C                                       1.4020509
    90   6 C       91   6 C                                       1.3949254
    91   6 C       92   6 C                                       1.3780357
    92   6 C       93   6 C                                       1.3915051
    93   6 C       96   6 C                                       1.3893102
    90   6 C       97   6 C                                       1.3941643
    96   6 C       97   6 C                                       1.3796251
    77   6 C       98   6 C                                       1.3829018
    80   6 C       98   6 C                                       1.4168320
    98   6 C       99  16 S                                       1.7260000
   100   6 C      101   6 C                                       1.4014286
   101   6 C      102   6 C                                       1.3791130
   102   6 C      103   6 C                                       1.3907020
   103   6 C      104   6 C                                       1.4375998
   105   6 C      106   8 O                                       1.2027220
   105   6 C      107   7 N                                       1.3866045
   107   7 N      108   6 C                                       1.4365692
   103   6 C      109   6 C                                       1.4135190
   107   7 N      109   6 C                                       1.3758094
   100   6 C      110   6 C                                       1.4035862
   109   6 C      110   6 C                                       1.3758849
   104   6 C      111   6 C                                       1.3652716
   112   6 C      113   8 O                                       1.2046997
   112   6 C      114   7 N                                       1.3859753
   114   7 N      115   6 C                                       1.4363338
   114   7 N      116   6 C                                       1.3718045
   116   6 C      117   6 C                                       1.3792265
   117   6 C      118   6 C                                       1.4030188
   118   6 C      119   6 C                                       1.4003413
   119   6 C      120   6 C                                       1.3783981
   116   6 C      121   6 C                                       1.4180695
   120   6 C      121   6 C                                       1.3884976
   122   6 C      123   6 C                                       1.3544972
   124   6 C      125   8 O                                       1.2161462
   126   6 C      127   6 C                                       1.3981558
   127   6 C      128   8 O                                       1.3413732
   128   8 O      129   6 C                                       1.4103569
   127   6 C      130   6 C                                       1.4078611
   130   6 C      131   6 C                                       1.3748825
   131   6 C      132   6 C                                       1.3922664
   126   6 C      133   6 C                                       1.4195461
   132   6 C      133   6 C                                       1.3803351
   134   6 C      135   6 C                                       1.3674498
   136   6 C      137   7 N                                       1.1477181
   138   6 C      139   7 N                                       1.1480271
     1   6 C      140   1 H                                       1.0824050
     6   6 C      141   1 H                                       1.0788825
     9   6 C      142   1 H                                       1.0770865
    17   6 C      143   1 H                                       1.0882296
    18   6 C      144   1 H                                       1.0866597
    19   6 C      145   1 H                                       1.0742892 (min)
    20   6 C      146   1 H                                       1.0743246
    21   6 C      147   1 H                                       1.0869648
    22   6 C      148   1 H                                       1.0889925
    22   6 C      149   1 H                                       1.0891730
    23   6 C      150   1 H                                       1.0884127
    28   6 C      151   1 H                                       1.0803399
    29   6 C      152   1 H                                       1.0793680
    30   6 C      153   1 H                                       1.0786130
    31   6 C      154   1 H                                       1.0801764
    32   6 C      155   1 H                                       1.0800631
    34   6 C      156   1 H                                       1.0804074
    35   6 C      157   1 H                                       1.0799611
    36   6 C      158   1 H                                       1.0792449
    37   6 C      159   1 H                                       1.0788698
    38   6 C      160   1 H                                       1.0783445
    45   6 C      161   1 H                                       1.0793231
    46   6 C      162   1 H                                       1.0801989
    47   6 C      163   1 H                                       1.0786530
    48   6 C      164   1 H                                       1.0804360
    49   6 C      165   1 H                                       1.0785404
    51   6 C      166   1 H                                       1.0783847
    52   6 C      167   1 H                                       1.0797117
    53   6 C      168   1 H                                       1.0793549
    54   6 C      169   1 H                                       1.0805822
    55   6 C      170   1 H                                       1.0795638
    62   6 C      171   1 H                                       1.0799969
    63   6 C      172   1 H                                       1.0795613
    66   6 C      173   1 H                                       1.0861768
    66   6 C      174   1 H                                       1.0856490
    66   6 C      175   1 H                                       1.0860318
    67   6 C      176   1 H                                       1.0778840
    68   6 C      177   1 H                                       1.0795193
    70   6 C      178   1 H                                       1.0792967
    71   6 C      179   1 H                                       1.0782766
    74   6 C      180   1 H                                       1.0855232
    74   6 C      181   1 H                                       1.0859998
    74   6 C      182   1 H                                       1.0862481
    75   6 C      183   1 H                                       1.0787937
    76   6 C      184   1 H                                       1.0779404
    83   6 C      185   1 H                                       1.0794451
    84   6 C      186   1 H                                       1.0792158
    87   6 C      187   1 H                                       1.0857804
    87   6 C      188   1 H                                       1.0863672
    87   6 C      189   1 H                                       1.0861842
    88   6 C      190   1 H                                       1.0777786
    89   6 C      191   1 H                                       1.0805809
    91   6 C      192   1 H                                       1.0805519
    92   6 C      193   1 H                                       1.0790415
    95   6 C      194   1 H                                       1.0854214
    95   6 C      195   1 H                                       1.0840982
    95   6 C      196   1 H                                       1.0853103
    96   6 C      197   1 H                                       1.0783106
    97   6 C      198   1 H                                       1.0802622
   101   6 C      199   1 H                                       1.0800734
   102   6 C      200   1 H                                       1.0787608
   108   6 C      201   1 H                                       1.0906005
   108   6 C      202   1 H                                       1.0925054
   108   6 C      203   1 H                                       1.0895140
   110   6 C      204   1 H                                       1.0776601
   115   6 C      205   1 H                                       1.0920262
   115   6 C      206   1 H                                       1.0919921
   115   6 C      207   1 H                                       1.0895012
   117   6 C      208   1 H                                       1.0789286
   119   6 C      209   1 H                                       1.0781788
   120   6 C      210   1 H                                       1.0745474
   122   6 C      211   1 H                                       1.0822319
   129   6 C      212   1 H                                       1.0892456
   129   6 C      213   1 H                                       1.0926361
   129   6 C      214   1 H                                       1.0949442
   130   6 C      215   1 H                                       1.0787072
   131   6 C      216   1 H                                       1.0789935
   132   6 C      217   1 H                                       1.0764347

 * 5 distinct bonds (by element types)

   Z      Z             #   av. dist./Å        max./Å        min./Å
   1 H    6 C          78     1.0821575     1.0949442     1.0742892
   6 C    6 C          98     1.4000925     1.5613055     1.3263160
   6 C    7 N          22     1.3535309     1.4365692     1.1477181
   6 C    8 O           6     1.2658224     1.4103569     1.2027220
   6 C   16 S           6     1.7376951     1.7576064     1.7260000


optimized geometry written to: xtbopt.mol


           -------------------------------------------------
          | TOTAL ENERGY             -363.616279411861 Eh   |
          | GRADIENT NORM               0.000438217585 Eh/α |
          | HOMO-LUMO GAP               0.445382621735 eV   |
           -------------------------------------------------

------------------------------------------------------------------------
 * finished run on 2022/02/09 at 11:24:18.195     
------------------------------------------------------------------------
 total:
 * wall-time:     0 d,  0 h,  4 min, 12.592 sec
 *  cpu-time:     0 d,  0 h, 33 min, 40.391 sec
 * ratio c/w:     7.999 speedup
 SCF:
 * wall-time:     0 d,  0 h,  0 min,  0.835 sec
 *  cpu-time:     0 d,  0 h,  0 min,  6.662 sec
 * ratio c/w:     7.980 speedup
 ANC optimizer:
 * wall-time:     0 d,  0 h,  4 min, 11.645 sec
 *  cpu-time:     0 d,  0 h, 33 min, 32.930 sec
 * ratio c/w:     7.999 speedup

