      -----------------------------------------------------------      
     |                   =====================                   |     
     |                           x T B                           |     
     |                   =====================                   |     
     |                         S. Grimme                         |     
     |          Mulliken Center for Theoretical Chemistry        |     
     |                    University of Bonn                     |     
      -----------------------------------------------------------      

   * xtb version 6.4.1 (unknown) compiled by 'oda6@login1.crc.pitt.edu' on 2021-06-25

   xtb is free software: you can redistribute it and/or modify it under
   the terms of the GNU Lesser General Public License as published by
   the Free Software Foundation, either version 3 of the License, or
   (at your option) any later version.
   
   xtb is distributed in the hope that it will be useful,
   but WITHOUT ANY WARRANTY; without even the implied warranty of
   MERCHANTABILITY or FITNESS FOR A PARTICULAR PURPOSE.  See the
   GNU Lesser General Public License for more details.
   
   Cite this work as:
   * C. Bannwarth, E. Caldeweyher, S. Ehlert, A. Hansen, P. Pracht,
     J. Seibert, S. Spicher, S. Grimme, WIREs Comput. Mol. Sci., 2020, 11,
     e01493. DOI: 10.1002/wcms.1493
   
   for GFN2-xTB:
   * C. Bannwarth, S. Ehlert and S. Grimme., J. Chem. Theory Comput., 2019,
     15, 1652-1671. DOI: 10.1021/acs.jctc.8b01176
   for GFN1-xTB:
   * S. Grimme, C. Bannwarth, P. Shushkov, J. Chem. Theory Comput., 2017,
     13, 1989-2009. DOI: 10.1021/acs.jctc.7b00118
   for GFN0-xTB:
   * P. Pracht, E. Caldeweyher, S. Ehlert, S. Grimme, ChemRxiv, 2019, preprint.
     DOI: 10.26434/chemrxiv.8326202.v1
   for GFN-FF:
   * S. Spicher and S. Grimme, Angew. Chem. Int. Ed., 2020, 59, 15665-15673.
     DOI: 10.1002/anie.202004239
   
   for DFT-D4:
   * E. Caldeweyher, C. Bannwarth and S. Grimme, J. Chem. Phys., 2017,
     147, 034112. DOI: 10.1063/1.4993215
   * E. Caldeweyher, S. Ehlert, A. Hansen, H. Neugebauer, S. Spicher,
     C. Bannwarth and S. Grimme, J. Chem. Phys., 2019, 150, 154122.
     DOI: 10.1063/1.5090222
   * E. Caldeweyher, J.-M. Mewes, S. Ehlert and S. Grimme, Phys. Chem. Chem. Phys.
     2020, 22, 8499-8512. DOI: 10.1039/D0CP00502A
   
   for sTDA-xTB:
   * S. Grimme and C. Bannwarth, J. Chem. Phys., 2016, 145, 054103.
     DOI: 10.1063/1.4959605
   
   in the mass-spec context:
   * V. Asgeirsson, C. Bauer and S. Grimme, Chem. Sci., 2017, 8, 4879.
     DOI: 10.1039/c7sc00601b
   * J. Koopman and S. Grimme, ACS Omega 2019, 4, 12, 15120-15133.
     DOI: 10.1021/acsomega.9b02011
   
   for metadynamics refer to:
   * S. Grimme, J. Chem. Theory Comput., 2019, 155, 2847-2862
     DOI: 10.1021/acs.jctc.9b00143
   
   for SPH calculations refer to:
   * S. Spicher and S. Grimme, J. Chem. Theory Comput., 2021, 17, 1701-1714
     DOI: 10.1021/acs.jctc.0c01306
   
   with help from (in alphabetical order)
   P. Atkinson, C. Bannwarth, F. Bohle, G. Brandenburg, E. Caldeweyher
   M. Checinski, S. Dohm, S. Ehlert, S. Ehrlich, I. Gerasimov, J. Koopman
   C. Lavigne, S. Lehtola, F. März, M. Müller, F. Musil, H. Neugebauer
   J. Pisarek, C. Plett, P. Pracht, J. Seibert, P. Shushkov, S. Spicher
   M. Stahn, M. Steiner, T. Strunk, J. Stückrath, T. Rose, and J. Unsleber
   
 * started run on 2022/02/04 at 21:43:23.697     

           -------------------------------------------------
          |                Calculation Setup                |
           -------------------------------------------------

          program call               : /ihome/ghutchison/oda6/xtb/xtb-641/bin/xtb ../../FF_optimized/39_3_130_3_66.mol -opt
          hostname                   : smp-n57
          coordinate file            : ../../FF_optimized/39_3_130_3_66.mol
          omp threads                :                     8
          number of atoms            :                   183
          number of electrons        :                   564
          charge                     :                     0
          spin                       :                   0.0
          first test random number   :      0.08949306542376

   ID    Z sym.   atoms
    1    6 C      1-3, 5-13, 15, 17-26, 28-40, 42-45, 47-53, 55-58, 60, 61,
                  63-66, 68-74, 76-79, 81-83, 85-98, 100-104, 106, 108-114,
                  116
    2    8 O      4, 99
    3    7 N      14, 16, 27, 41, 62, 84, 115, 117
    4   16 S      46, 54, 59, 67, 75, 80
    5    9 F      105, 107
    6    1 H      118-183
########################################################################
[WARNING] Please study the warnings concerning your input carefully
-1- prog_main_parseArguments: the use of '-opt' is discouraged, please use '--opt' next time
########################################################################

           -------------------------------------------------
          |                 G F N 2 - x T B                 |
           -------------------------------------------------

        Reference                      10.1021/acs.jctc.8b01176
      * Hamiltonian:
        H0-scaling (s, p, d)           1.850000    2.230000    2.230000
        zeta-weighting                 0.500000
      * Dispersion:
        s8                             2.700000
        a1                             0.520000
        a2                             5.000000
        s9                             5.000000
      * Repulsion:
        kExp                           1.500000    1.000000
        rExp                           1.000000
      * Coulomb:
        alpha                          2.000000
        third order                    shell-resolved
        anisotropic                    true
        a3                             3.000000
        a5                             4.000000
        cn-shift                       1.200000
        cn-exp                         4.000000
        max-rad                        5.000000


          ...................................................
          :                      SETUP                      :
          :.................................................:
          :  # basis functions                 570          :
          :  # atomic orbitals                 564          :
          :  # shells                          306          :
          :  # electrons                       564          :
          :  max. iterations                   250          :
          :  Hamiltonian                  GFN2-xTB          :
          :  restarted?                      false          :
          :  GBSA solvation                  false          :
          :  PC potential                    false          :
          :  electronic temp.          300.0000000     K    :
          :  accuracy                    1.0000000          :
          :  -> integral cutoff          0.2500000E+02      :
          :  -> integral neglect         0.1000000E-07      :
          :  -> SCF convergence          0.1000000E-05 Eh   :
          :  -> wf. convergence          0.1000000E-03 e    :
          :  Broyden damping             0.4000000          :
          ...................................................

 iter      E             dE          RMSdq      gap      omega  full diag
   1   -310.2525439 -0.310253E+03  0.477E+00    1.21       0.0  T
   2   -310.4675014 -0.214957E+00  0.292E+00    1.42       1.0  T
   3   -310.0957915  0.371710E+00  0.197E+00    0.50       1.0  T
   4   -310.5725425 -0.476751E+00  0.685E-01    0.56       1.0  T
   5   -310.6364355 -0.638930E-01  0.208E-01    0.44       1.0  T
   6   -310.6378324 -0.139685E-02  0.106E-01    0.51       1.0  T
   7   -310.6389246 -0.109225E-02  0.413E-02    0.53       1.0  T
   8   -310.6391044 -0.179807E-03  0.208E-02    0.54       1.0  T
   9   -310.6391378 -0.333081E-04  0.105E-02    0.54       1.0  T
  10   -310.6391424 -0.467262E-05  0.494E-03    0.54       1.5  T
  11   -310.6391449 -0.249218E-05  0.170E-03    0.54       4.3  T
  12   -310.6391450 -0.122268E-06  0.107E-03    0.54       6.9  T
  13   -310.6391451 -0.811963E-07  0.522E-04    0.54      14.2  T
  14   -310.6391451 -0.206382E-07  0.236E-04    0.54      31.3  T

   *** convergence criteria satisfied after 14 iterations ***

         #    Occupation            Energy/Eh            Energy/eV
      -------------------------------------------------------------
         1        2.0000           -0.8421748             -22.9167
       ...           ...                  ...                  ...
       276        2.0000           -0.3788035             -10.3078
       277        2.0000           -0.3716406             -10.1129
       278        2.0000           -0.3688099             -10.0358
       279        2.0000           -0.3679671             -10.0129
       280        2.0000           -0.3632974              -9.8858
       281        2.0000           -0.3624110              -9.8617
       282        1.9999           -0.3592788              -9.7765 (HOMO)
       283        0.0001           -0.3395259              -9.2390 (LUMO)
       284                         -0.3324876              -9.0474
       285                         -0.3284646              -8.9380
       286                         -0.3203906              -8.7183
       287                         -0.3045378              -8.2869
       ...                                ...                  ...
       564                          1.0661029              29.0101
      -------------------------------------------------------------
                  HL-Gap            0.0197529 Eh            0.5375 eV
             Fermi-level           -0.3493787 Eh           -9.5071 eV

 SCC (total)                   0 d,  0 h,  0 min,  0.621 sec
 SCC setup                      ...        0 min,  0.001 sec (  0.237%)
 Dispersion                     ...        0 min,  0.012 sec (  1.953%)
 classical contributions        ...        0 min,  0.000 sec (  0.050%)
 integral evaluation            ...        0 min,  0.038 sec (  6.072%)
 iterations                     ...        0 min,  0.462 sec ( 74.342%)
 molecular gradient             ...        0 min,  0.105 sec ( 16.902%)
 printout                       ...        0 min,  0.003 sec (  0.431%)

         :::::::::::::::::::::::::::::::::::::::::::::::::::::
         ::                     SUMMARY                     ::
         :::::::::::::::::::::::::::::::::::::::::::::::::::::
         :: total energy            -305.817608551635 Eh    ::
         :: gradient norm              0.320585869197 Eh/a0 ::
         :: HOMO-LUMO gap              0.537503762097 eV    ::
         ::.................................................::
         :: SCC energy              -310.639145141091 Eh    ::
         :: -> isotropic ES            0.137071418656 Eh    ::
         :: -> anisotropic ES          0.025539899432 Eh    ::
         :: -> anisotropic XC          0.203022542141 Eh    ::
         :: -> dispersion             -0.285335680388 Eh    ::
         :: repulsion energy           4.811410387205 Eh    ::
         :: add. restraining           0.000000000000 Eh    ::
         :: total charge               0.000000000635 e     ::
         :::::::::::::::::::::::::::::::::::::::::::::::::::::

      ----------------------------------------------------------- 
     |                   =====================                   |
     |                        A N C O P T                        |
     |                   =====================                   |
     |               Approximate Normal Coordinate               |
     |                Rational Function Optimizer                |
      ----------------------------------------------------------- 

          ...................................................
          :                      SETUP                      :
          :.................................................:
          :   optimization level            normal          :
          :   max. optcycles                   549          :
          :   ANC micro-cycles                  20          :
          :   degrees of freedom               543          :
          :.................................................:
          :   RF solver                   davidson          :
          :   write xtbopt.log                true          :
          :   linear?                        false          :
          :   energy convergence         0.5000000E-05 Eh   :
          :   grad. convergence          0.1000000E-02 Eh/α :
          :   maximium RF displ.         1.0000000          :
          :   Hlow (freq-cutoff)         0.1000000E-01      :
          :   Hmax (freq-cutoff)         5.0000000          :
          :   S6 in model hess.         20.0000000          :
          ...................................................

generating ANC from model Hessian ...
Using Lindh-Hessian (1995)
 Shifting diagonal of input Hessian by   9.992555528649848E-003
 Lowest  eigenvalues of input Hessian
    0.000000    0.000000    0.000000    0.000000    0.000000    0.000000
    0.010000    0.010000    0.010018    0.010031    0.010041    0.010049
    0.010076    0.010087    0.010113    0.010135    0.010142    0.010164
 Highest eigenvalues
    2.241423    2.256030    2.492236    2.499317    2.549189    2.549585
 

........................................................................
.............................. CYCLE    1 ..............................
........................................................................
   1   -310.6391451 -0.310639E+03  0.105E-04    0.54       0.0  T
   2   -310.6391451  0.800924E-10  0.867E-05    0.54      85.2  T
   3   -310.6391451 -0.110151E-08  0.467E-05    0.54     158.4  T
     SCC iter.                  ...        0 min,  0.102 sec
     gradient                   ...        0 min,  0.104 sec
 * total energy  :  -305.8176086 Eh     change       -0.4850961E-08 Eh
   gradient norm :     0.3205860 Eh/α   predicted     0.0000000E+00 (-100.00%)
   displ. norm   :     0.4634530 α      lambda       -0.1035887E+00
   maximum displ.:     0.0823378 α      in ANC's #149, #276, #102, ...

........................................................................
.............................. CYCLE    2 ..............................
........................................................................
   1   -310.8560912 -0.310856E+03  0.227E-01    0.56       0.0  T
   2   -310.8574970 -0.140571E-02  0.152E-01    0.56       1.0  T
   3   -310.8575254 -0.284500E-04  0.806E-02    0.56       1.0  T
   4   -310.8580406 -0.515235E-03  0.332E-02    0.55       1.0  T
   5   -310.8582124 -0.171716E-03  0.122E-02    0.56       1.0  T
   6   -310.8582312 -0.188034E-04  0.518E-03    0.56       1.4  T
   7   -310.8582337 -0.258749E-05  0.244E-03    0.56       3.0  T
   8   -310.8582345 -0.788129E-06  0.939E-04    0.56       7.9  T
   9   -310.8582346 -0.416063E-07  0.507E-04    0.56      14.6  T
     SCC iter.                  ...        0 min,  0.289 sec
     gradient                   ...        0 min,  0.103 sec
 * total energy  :  -305.8919749 Eh     change       -0.7436634E-01 Eh
   gradient norm :     0.1397633 Eh/α   predicted    -0.6296436E-01 ( -15.33%)
   displ. norm   :     0.4901196 α      lambda       -0.4042002E-01
   maximum displ.:     0.1278036 α      in ANC's #102, #149, #103, ...

........................................................................
.............................. CYCLE    3 ..............................
........................................................................
   1   -310.9822520 -0.310982E+03  0.195E-01    0.55       0.0  T
   2   -310.9832044 -0.952384E-03  0.126E-01    0.55       1.0  T
   3   -310.9831807  0.236493E-04  0.693E-02    0.56       1.0  T
   4   -310.9836170 -0.436327E-03  0.258E-02    0.54       1.0  T
   5   -310.9837120 -0.949410E-04  0.923E-03    0.55       1.0  T
   6   -310.9837234 -0.114024E-04  0.423E-03    0.55       1.7  T
   7   -310.9837250 -0.160005E-05  0.206E-03    0.55       3.6  T
   8   -310.9837255 -0.485354E-06  0.830E-04    0.55       8.9  T
   9   -310.9837255 -0.281482E-07  0.461E-04    0.55      16.0  T
     SCC iter.                  ...        0 min,  0.281 sec
     gradient                   ...        0 min,  0.103 sec
 * total energy  :  -305.9173826 Eh     change       -0.2540771E-01 Eh
   gradient norm :     0.0381623 Eh/α   predicted    -0.2506481E-01 (  -1.35%)
   displ. norm   :     0.5273489 α      lambda       -0.1171720E-01
   maximum displ.:     0.1789315 α      in ANC's #102, #58, #103, ...

........................................................................
.............................. CYCLE    4 ..............................
........................................................................
   1   -311.0188745 -0.311019E+03  0.168E-01    0.54       0.0  T
   2   -311.0190171 -0.142593E-03  0.994E-02    0.54       1.0  T
   3   -311.0185470  0.470108E-03  0.504E-02    0.54       1.0  T
   4   -311.0191152 -0.568244E-03  0.985E-03    0.53       1.0  T
   5   -311.0191280 -0.127810E-04  0.444E-03    0.54       1.7  T
   6   -311.0191295 -0.149616E-05  0.234E-03    0.54       3.2  T
   7   -311.0191299 -0.399293E-06  0.111E-03    0.54       6.6  T
   8   -311.0191300 -0.155674E-06  0.448E-04    0.54      16.5  T
   9   -311.0191300 -0.885302E-08  0.237E-04    0.54      31.1  T
     SCC iter.                  ...        0 min,  0.297 sec
     gradient                   ...        0 min,  0.103 sec
 * total energy  :  -305.9241029 Eh     change       -0.6720340E-02 Eh
   gradient norm :     0.0293871 Eh/α   predicted    -0.7487873E-02 (  11.42%)
   displ. norm   :     0.6531698 α      lambda       -0.1061483E-01
   maximum displ.:     0.1729953 α      in ANC's #28, #102, #33, ...

........................................................................
.............................. CYCLE    5 ..............................
........................................................................
   1   -311.0312701 -0.311031E+03  0.316E-01    0.53       0.0  T
   2   -311.0315536 -0.283474E-03  0.179E-01    0.53       1.0  T
   3   -311.0306598  0.893834E-03  0.719E-02    0.54       1.0  T
   4   -311.0317207 -0.106092E-02  0.125E-02    0.53       1.0  T
   5   -311.0317351 -0.143443E-04  0.726E-03    0.53       1.0  T
   6   -311.0317412 -0.615440E-05  0.294E-03    0.53       2.5  T
   7   -311.0317417 -0.536740E-06  0.134E-03    0.53       5.5  T
   8   -311.0317420 -0.231787E-06  0.532E-04    0.53      13.9  T
   9   -311.0317420 -0.142257E-07  0.302E-04    0.53      24.5  T
     SCC iter.                  ...        0 min,  0.297 sec
     gradient                   ...        0 min,  0.103 sec
 * total energy  :  -305.9268396 Eh     change       -0.2736689E-02 Eh
   gradient norm :     0.0477425 Eh/α   predicted    -0.7571771E-02 ( 176.68%)
   displ. norm   :     0.3295833 α      lambda       -0.5996387E-02
   maximum displ.:     0.1210856 α      in ANC's #58, #33, #40, ...

........................................................................
.............................. CYCLE    6 ..............................
........................................................................
   1   -311.0414597 -0.311041E+03  0.175E-01    0.52       0.0  T
   2   -311.0415466 -0.868929E-04  0.980E-02    0.53       1.0  T
   3   -311.0413017  0.244860E-03  0.363E-02    0.53       1.0  T
   4   -311.0415903 -0.288562E-03  0.648E-03    0.54       1.1  T
   5   -311.0415947 -0.440047E-05  0.308E-03    0.53       2.4  T
   6   -311.0415955 -0.867621E-06  0.137E-03    0.53       5.4  T
   7   -311.0415957 -0.159625E-06  0.558E-04    0.53      13.2  T
   8   -311.0415957 -0.364975E-07  0.222E-04    0.53      33.3  T
     SCC iter.                  ...        0 min,  0.258 sec
     gradient                   ...        0 min,  0.103 sec
 * total energy  :  -305.9297333 Eh     change       -0.2893695E-02 Eh
   gradient norm :     0.0349667 Eh/α   predicted    -0.3323882E-02 (  14.87%)
   displ. norm   :     0.4963367 α      lambda       -0.5019421E-02
   maximum displ.:     0.1404939 α      in ANC's #40, #67, #26, ...

........................................................................
.............................. CYCLE    7 ..............................
........................................................................
   1   -311.0273665 -0.311027E+03  0.247E-01    0.53       0.0  T
   2   -311.0275187 -0.152148E-03  0.138E-01    0.55       1.0  T
   3   -311.0267476  0.771011E-03  0.681E-02    0.53       1.0  T
   4   -311.0276463 -0.898696E-03  0.899E-03    0.55       1.0  T
   5   -311.0276529 -0.655140E-05  0.479E-03    0.55       1.5  T
   6   -311.0276552 -0.229458E-05  0.191E-03    0.55       3.9  T
   7   -311.0276555 -0.307361E-06  0.793E-04    0.55       9.3  T
   8   -311.0276556 -0.560353E-07  0.309E-04    0.55      23.9  T
     SCC iter.                  ...        0 min,  0.266 sec
     gradient                   ...        0 min,  0.103 sec
 * total energy  :  -305.9298598 Eh     change       -0.1264457E-03 Eh
   gradient norm :     0.0395418 Eh/α   predicted    -0.3127994E-02 (2373.78%)
   displ. norm   :     0.3097026 α      lambda       -0.5095915E-02
   maximum displ.:     0.1020375 α      in ANC's #28, #20, #66, ...

........................................................................
.............................. CYCLE    8 ..............................
........................................................................
   1   -311.0410390 -0.311041E+03  0.159E-01    0.55       0.0  T
   2   -311.0411089 -0.698346E-04  0.886E-02    0.55       1.0  T
   3   -311.0409620  0.146855E-03  0.327E-02    0.56       1.0  T
   4   -311.0411466 -0.184613E-03  0.443E-03    0.55       1.7  T
   5   -311.0411474 -0.749394E-06  0.301E-03    0.56       2.5  T
   6   -311.0411487 -0.130421E-05  0.105E-03    0.55       7.0  T
   7   -311.0411488 -0.698805E-07  0.443E-04    0.55      16.7  T
   8   -311.0411488 -0.219280E-07  0.158E-04    0.55      46.7  T
     SCC iter.                  ...        0 min,  0.274 sec
     gradient                   ...        0 min,  0.104 sec
 * total energy  :  -305.9327056 Eh     change       -0.2845798E-02 Eh
   gradient norm :     0.0194209 Eh/α   predicted    -0.2792352E-02 (  -1.88%)
   displ. norm   :     0.4707904 α      lambda       -0.2930714E-02
   maximum displ.:     0.1580284 α      in ANC's #28, #40, #36, ...

........................................................................
.............................. CYCLE    9 ..............................
........................................................................
   1   -311.0308512 -0.311031E+03  0.185E-01    0.53       0.0  T
   2   -311.0309679 -0.116650E-03  0.103E-01    0.54       1.0  T
   3   -311.0307767  0.191171E-03  0.360E-02    0.53       1.0  T
   4   -311.0310188 -0.242144E-03  0.644E-03    0.54       1.1  T
   5   -311.0310209 -0.208219E-05  0.404E-03    0.54       1.8  T
   6   -311.0310231 -0.219659E-05  0.160E-03    0.54       4.6  T
   7   -311.0310233 -0.228819E-06  0.625E-04    0.54      11.8  T
   8   -311.0310234 -0.429845E-07  0.249E-04    0.54      29.7  T
     SCC iter.                  ...        0 min,  0.265 sec
     gradient                   ...        0 min,  0.103 sec
 * total energy  :  -305.9334001 Eh     change       -0.6945040E-03 Eh
   gradient norm :     0.0497224 Eh/α   predicted    -0.1790156E-02 ( 157.76%)
   displ. norm   :     0.4180012 α      lambda       -0.3635806E-02
   maximum displ.:     0.1494135 α      in ANC's #40, #28, #42, ...

........................................................................
.............................. CYCLE   10 ..............................
........................................................................
   1   -311.0415271 -0.311042E+03  0.116E-01    0.54       0.0  T
   2   -311.0415730 -0.458797E-04  0.649E-02    0.55       1.0  T
   3   -311.0414977  0.752898E-04  0.236E-02    0.55       1.0  T
   4   -311.0415918 -0.940842E-04  0.410E-03    0.55       1.8  T
   5   -311.0415925 -0.662341E-06  0.222E-03    0.55       3.3  T
   6   -311.0415931 -0.585232E-06  0.959E-04    0.55       7.7  T
   7   -311.0415932 -0.974683E-07  0.419E-04    0.55      17.7  T
     SCC iter.                  ...        0 min,  0.233 sec
     gradient                   ...        0 min,  0.103 sec
 * total energy  :  -305.9356192 Eh     change       -0.2219117E-02 Eh
   gradient norm :     0.0118296 Eh/α   predicted    -0.2135545E-02 (  -3.77%)
   displ. norm   :     0.6203459 α      lambda       -0.2401450E-02
   maximum displ.:     0.2289118 α      in ANC's #28, #40, #26, ...

........................................................................
.............................. CYCLE   11 ..............................
........................................................................
   1   -311.0359919 -0.311036E+03  0.131E-01    0.55       0.0  T
   2   -311.0360212 -0.292313E-04  0.741E-02    0.56       1.0  T
   3   -311.0359144  0.106730E-03  0.246E-02    0.56       1.0  T
   4   -311.0360368 -0.122418E-03  0.646E-03    0.56       1.1  T
   5   -311.0360390 -0.212077E-05  0.338E-03    0.56       2.2  T
   6   -311.0360403 -0.134542E-05  0.109E-03    0.56       6.8  T
   7   -311.0360404 -0.131953E-06  0.494E-04    0.56      15.0  T
   8   -311.0360405 -0.215913E-07  0.244E-04    0.56      30.3  T
     SCC iter.                  ...        0 min,  0.250 sec
     gradient                   ...        0 min,  0.103 sec
 * total energy  :  -305.9374671 Eh     change       -0.1847862E-02 Eh
   gradient norm :     0.0228378 Eh/α   predicted    -0.1662808E-02 ( -10.01%)
   displ. norm   :     0.7437599 α      lambda       -0.2542603E-02
   maximum displ.:     0.2792015 α      in ANC's #40, #28, #36, ...

........................................................................
.............................. CYCLE   12 ..............................
........................................................................
   1   -311.0380265 -0.311038E+03  0.130E-01    0.55       0.0  T
   2   -311.0380590 -0.325125E-04  0.730E-02    0.56       1.0  T
   3   -311.0379146  0.144386E-03  0.297E-02    0.56       1.0  T
   4   -311.0380801 -0.165503E-03  0.689E-03    0.57       1.1  T
   5   -311.0380819 -0.183453E-05  0.381E-03    0.56       1.9  T
   6   -311.0380837 -0.181647E-05  0.124E-03    0.56       6.0  T
   7   -311.0380839 -0.201362E-06  0.509E-04    0.56      14.5  T
   8   -311.0380840 -0.268679E-07  0.253E-04    0.56      29.2  T
     SCC iter.                  ...        0 min,  0.257 sec
     gradient                   ...        0 min,  0.103 sec
 * total energy  :  -305.9394718 Eh     change       -0.2004779E-02 Eh
   gradient norm :     0.0155569 Eh/α   predicted    -0.1974564E-02 (  -1.51%)
   displ. norm   :     0.7686810 α      lambda       -0.2761363E-02
   maximum displ.:     0.2817746 α      in ANC's #40, #28, #42, ...

........................................................................
.............................. CYCLE   13 ..............................
........................................................................
   1   -311.0390475 -0.311039E+03  0.168E-01    0.56       0.0  T
   2   -311.0391133 -0.657301E-04  0.935E-02    0.56       1.0  T
   3   -311.0389543  0.158958E-03  0.346E-02    0.57       1.0  T
   4   -311.0391509 -0.196569E-03  0.696E-03    0.56       1.1  T
   5   -311.0391517 -0.825960E-06  0.339E-03    0.57       2.2  T
   6   -311.0391533 -0.157732E-05  0.130E-03    0.56       5.7  T
   7   -311.0391535 -0.208188E-06  0.547E-04    0.56      13.5  T
   8   -311.0391535 -0.257124E-07  0.268E-04    0.56      27.5  T
     SCC iter.                  ...        0 min,  0.261 sec
     gradient                   ...        0 min,  0.103 sec
 * total energy  :  -305.9413224 Eh     change       -0.1850549E-02 Eh
   gradient norm :     0.0179340 Eh/α   predicted    -0.2196490E-02 (  18.69%)
   displ. norm   :     0.7108201 α      lambda       -0.2273333E-02
   maximum displ.:     0.2492245 α      in ANC's #40, #28, #26, ...

........................................................................
.............................. CYCLE   14 ..............................
........................................................................
   1   -311.0279357 -0.311028E+03  0.162E-01    0.53       0.0  T
   2   -311.0279987 -0.629789E-04  0.902E-02    0.54       1.0  T
   3   -311.0279139  0.847851E-04  0.245E-02    0.53       1.0  T
   4   -311.0280213 -0.107340E-03  0.742E-03    0.54       1.0  T
   5   -311.0280244 -0.311410E-05  0.399E-03    0.54       1.9  T
   6   -311.0280264 -0.200554E-05  0.130E-03    0.54       5.7  T
   7   -311.0280266 -0.163925E-06  0.529E-04    0.54      14.0  T
   8   -311.0280266 -0.278839E-07  0.261E-04    0.54      28.3  T
     SCC iter.                  ...        0 min,  0.260 sec
     gradient                   ...        0 min,  0.103 sec
 * total energy  :  -305.9427283 Eh     change       -0.1405930E-02 Eh
   gradient norm :     0.0373515 Eh/α   predicted    -0.1710994E-02 (  21.70%)
   displ. norm   :     0.5715030 α      lambda       -0.2136047E-02
   maximum displ.:     0.1965505 α      in ANC's #40, #20, #28, ...

........................................................................
.............................. CYCLE   15 ..............................
........................................................................
   1   -311.0402806 -0.311040E+03  0.983E-02    0.52       0.0  T
   2   -311.0403118 -0.311946E-04  0.547E-02    0.53       1.0  T
   3   -311.0402573  0.544584E-04  0.198E-02    0.53       1.0  T
   4   -311.0403204 -0.630603E-04  0.571E-03    0.54       1.3  T
   5   -311.0403223 -0.195878E-05  0.290E-03    0.54       2.6  T
   6   -311.0403233 -0.958707E-06  0.113E-03    0.54       6.6  T
   7   -311.0403235 -0.165474E-06  0.417E-04    0.54      17.7  T
   8   -311.0403235 -0.217753E-07  0.171E-04    0.54      43.2  T
     SCC iter.                  ...        0 min,  0.260 sec
     gradient                   ...        0 min,  0.103 sec
 * total energy  :  -305.9439798 Eh     change       -0.1251480E-02 Eh
   gradient norm :     0.0305339 Eh/α   predicted    -0.1416861E-02 (  13.21%)
   displ. norm   :     0.6434686 α      lambda       -0.1632159E-02
   maximum displ.:     0.2236082 α      in ANC's #40, #20, #28, ...

........................................................................
.............................. CYCLE   16 ..............................
........................................................................
   1   -311.0421965 -0.311042E+03  0.107E-01    0.52       0.0  T
   2   -311.0422236 -0.270594E-04  0.591E-02    0.53       1.0  T
   3   -311.0421861  0.374458E-04  0.184E-02    0.53       1.0  T
   4   -311.0422326 -0.464732E-04  0.576E-03    0.53       1.3  T
   5   -311.0422341 -0.148027E-05  0.225E-03    0.53       3.3  T
   6   -311.0422347 -0.612170E-06  0.886E-04    0.53       8.3  T
   7   -311.0422348 -0.110112E-06  0.330E-04    0.53      22.4  T
     SCC iter.                  ...        0 min,  0.231 sec
     gradient                   ...        0 min,  0.104 sec
 * total energy  :  -305.9452723 Eh     change       -0.1292483E-02 Eh
   gradient norm :     0.0121665 Eh/α   predicted    -0.1153981E-02 ( -10.72%)
   displ. norm   :     0.6905270 α      lambda       -0.1525950E-02
   maximum displ.:     0.2491743 α      in ANC's #20, #15, #9, ...

........................................................................
.............................. CYCLE   17 ..............................
........................................................................
   1   -311.0545945 -0.311055E+03  0.118E-01    0.51       0.0  T
   2   -311.0546259 -0.314038E-04  0.654E-02    0.51       1.0  T
   3   -311.0545668  0.591729E-04  0.213E-02    0.52       1.0  T
   4   -311.0546377 -0.709830E-04  0.669E-03    0.51       1.1  T
   5   -311.0546395 -0.175659E-05  0.335E-03    0.52       2.2  T
   6   -311.0546412 -0.166720E-05  0.105E-03    0.52       7.1  T
   7   -311.0546413 -0.128860E-06  0.441E-04    0.51      16.8  T
   8   -311.0546413 -0.190392E-07  0.215E-04    0.52      34.4  T
     SCC iter.                  ...        0 min,  0.265 sec
     gradient                   ...        0 min,  0.103 sec
 * total energy  :  -305.9463591 Eh     change       -0.1086788E-02 Eh
   gradient norm :     0.0209597 Eh/α   predicted    -0.1126792E-02 (   3.68%)
   displ. norm   :     0.7624164 α      lambda       -0.1336229E-02
   maximum displ.:     0.2624975 α      in ANC's #20, #40, #15, ...

........................................................................
.............................. CYCLE   18 ..............................
........................................................................
   1   -311.0423526 -0.311042E+03  0.118E-01    0.50       0.0  T
   2   -311.0423805 -0.278985E-04  0.645E-02    0.50       1.0  T
   3   -311.0423183  0.622621E-04  0.204E-02    0.50       1.0  T
   4   -311.0423861 -0.678483E-04  0.820E-03    0.51       1.0  T
   5   -311.0423916 -0.551104E-05  0.368E-03    0.50       2.0  T
   6   -311.0423932 -0.157913E-05  0.111E-03    0.50       6.6  T
   7   -311.0423934 -0.138273E-06  0.396E-04    0.50      18.7  T
   8   -311.0423934 -0.156762E-07  0.209E-04    0.50      35.3  T
     SCC iter.                  ...        0 min,  0.268 sec
     gradient                   ...        0 min,  0.103 sec
 * total energy  :  -305.9474167 Eh     change       -0.1057657E-02 Eh
   gradient norm :     0.0163948 Eh/α   predicted    -0.1056478E-02 (  -0.11%)
   displ. norm   :     0.6777920 α      lambda       -0.1392720E-02
   maximum displ.:     0.2734708 α      in ANC's #20, #15, #9, ...

........................................................................
.............................. CYCLE   19 ..............................
........................................................................
   1   -311.0514944 -0.311051E+03  0.960E-02    0.49       0.0  T
   2   -311.0515153 -0.208845E-04  0.521E-02    0.50       1.0  T
   3   -311.0515020  0.133075E-04  0.128E-02    0.51       1.0  T
   4   -311.0515179 -0.158723E-04  0.611E-03    0.50       1.2  T
   5   -311.0515208 -0.289196E-05  0.212E-03    0.50       3.5  T
   6   -311.0515212 -0.449715E-06  0.860E-04    0.50       8.6  T
   7   -311.0515213 -0.107159E-06  0.350E-04    0.50      21.1  T
     SCC iter.                  ...        0 min,  0.238 sec
     gradient                   ...        0 min,  0.103 sec
 * total energy  :  -305.9484097 Eh     change       -0.9929843E-03 Eh
   gradient norm :     0.0218674 Eh/α   predicted    -0.1016272E-02 (   2.35%)
   displ. norm   :     0.7402198 α      lambda       -0.1185828E-02
   maximum displ.:     0.2937750 α      in ANC's #20, #15, #9, ...

........................................................................
.............................. CYCLE   20 ..............................
........................................................................
   1   -311.0451838 -0.311045E+03  0.110E-01    0.49       0.0  T
   2   -311.0452061 -0.222628E-04  0.598E-02    0.49       1.0  T
   3   -311.0451774  0.286635E-04  0.159E-02    0.50       1.0  T
   4   -311.0452104 -0.330141E-04  0.702E-03    0.50       1.1  T
   5   -311.0452141 -0.373359E-05  0.286E-03    0.50       2.6  T
   6   -311.0452153 -0.117323E-05  0.913E-04    0.50       8.1  T
   7   -311.0452154 -0.997664E-07  0.350E-04    0.50      21.1  T
   8   -311.0452154 -0.632622E-08  0.195E-04    0.50      37.8  T
     SCC iter.                  ...        0 min,  0.248 sec
     gradient                   ...        0 min,  0.102 sec
 * total energy  :  -305.9494229 Eh     change       -0.1013148E-02 Eh
   gradient norm :     0.0121522 Eh/α   predicted    -0.9177894E-03 (  -9.41%)
   displ. norm   :     0.7664402 α      lambda       -0.1211337E-02
   maximum displ.:     0.3061043 α      in ANC's #20, #15, #9, ...
 * RMSD in coord.:     0.6856468 α      energy gain  -0.1318143E+00 Eh

generating ANC from model Hessian ...
Using Lindh-Hessian (1995)
 Shifting diagonal of input Hessian by   1.047607642096754E-002
 Lowest  eigenvalues of input Hessian
    0.010000    0.010333    0.010448    0.000000    0.000000    0.000000
    0.000000    0.000000    0.000000    0.010482    0.010493    0.010505
    0.010523    0.010530    0.010550    0.010569    0.010607    0.010629
 Highest eigenvalues
    2.272477    2.284779    2.603080    2.610845    2.639333    2.653549
 

........................................................................
.............................. CYCLE   21 ..............................
........................................................................
   1   -311.0484185 -0.311048E+03  0.106E-01    0.49       0.0  T
   2   -311.0484391 -0.206561E-04  0.565E-02    0.49       1.0  T
   3   -311.0484221  0.169926E-04  0.140E-02    0.50       1.0  T
   4   -311.0484420 -0.198324E-04  0.704E-03    0.49       1.0  T
   5   -311.0484459 -0.393010E-05  0.238E-03    0.49       3.1  T
   6   -311.0484467 -0.763873E-06  0.895E-04    0.49       8.3  T
   7   -311.0484468 -0.114299E-06  0.358E-04    0.49      20.7  T
     SCC iter.                  ...        0 min,  0.225 sec
     gradient                   ...        0 min,  0.102 sec
 * total energy  :  -305.9504324 Eh     change       -0.1009561E-02 Eh
   gradient norm :     0.0112218 Eh/α   predicted     0.0000000E+00 (-100.00%)
   displ. norm   :     0.1682054 α      lambda       -0.5185793E-03
   maximum displ.:     0.0599412 α      in ANC's #11, #1, #31, ...

........................................................................
.............................. CYCLE   22 ..............................
........................................................................
   1   -311.0514968 -0.311051E+03  0.694E-02    0.49       0.0  T
   2   -311.0515077 -0.109680E-04  0.384E-02    0.50       1.0  T
   3   -311.0514983  0.946803E-05  0.881E-03    0.49       1.0  T
   4   -311.0515126 -0.143429E-04  0.208E-03    0.50       3.6  T
   5   -311.0515127 -0.980715E-07  0.121E-03    0.50       6.1  T
   6   -311.0515129 -0.210081E-06  0.377E-04    0.50      19.6  T
   7   -311.0515129 -0.184152E-07  0.146E-04    0.50      50.5  T
     SCC iter.                  ...        0 min,  0.226 sec
     gradient                   ...        0 min,  0.102 sec
 * total energy  :  -305.9507505 Eh     change       -0.3180607E-03 Eh
   gradient norm :     0.0056368 Eh/α   predicted    -0.2666377E-03 ( -16.17%)
   displ. norm   :     0.3791178 α      lambda       -0.8486001E-03
   maximum displ.:     0.1624062 α      in ANC's #11, #24, #15, ...

........................................................................
.............................. CYCLE   23 ..............................
........................................................................
   1   -311.0572374 -0.311057E+03  0.784E-02    0.50       0.0  T
   2   -311.0572521 -0.147454E-04  0.430E-02    0.50       1.0  T
   3   -311.0572422  0.989404E-05  0.963E-03    0.50       1.0  T
   4   -311.0572560 -0.137570E-04  0.423E-03    0.50       1.7  T
   5   -311.0572573 -0.131378E-05  0.191E-03    0.50       3.9  T
   6   -311.0572579 -0.545423E-06  0.612E-04    0.50      12.1  T
   7   -311.0572579 -0.507630E-07  0.260E-04    0.50      28.4  T
     SCC iter.                  ...        0 min,  0.226 sec
     gradient                   ...        0 min,  0.102 sec
 * total energy  :  -305.9511406 Eh     change       -0.3901083E-03 Eh
   gradient norm :     0.0156374 Eh/α   predicted    -0.4852915E-03 (  24.40%)
   displ. norm   :     0.4316078 α      lambda       -0.9416133E-03
   maximum displ.:     0.1765909 α      in ANC's #11, #21, #24, ...

........................................................................
.............................. CYCLE   24 ..............................
........................................................................
   1   -311.0573199 -0.311057E+03  0.103E-01    0.50       0.0  T
   2   -311.0573428 -0.229372E-04  0.558E-02    0.51       1.0  T
   3   -311.0573324  0.104219E-04  0.116E-02    0.51       1.0  T
   4   -311.0573499 -0.174894E-04  0.482E-03    0.51       1.5  T
   5   -311.0573514 -0.145728E-05  0.211E-03    0.51       3.5  T
   6   -311.0573521 -0.707066E-06  0.619E-04    0.51      11.9  T
   7   -311.0573521 -0.431892E-07  0.257E-04    0.51      28.8  T
     SCC iter.                  ...        0 min,  0.230 sec
     gradient                   ...        0 min,  0.102 sec
 * total energy  :  -305.9515218 Eh     change       -0.3811774E-03 Eh
   gradient norm :     0.0194673 Eh/α   predicted    -0.5585121E-03 (  46.52%)
   displ. norm   :     0.3904621 α      lambda       -0.1068894E-02
   maximum displ.:     0.1733754 α      in ANC's #11, #24, #15, ...

........................................................................
.............................. CYCLE   25 ..............................
........................................................................
   1   -311.0515548 -0.311052E+03  0.811E-02    0.51       0.0  T
   2   -311.0515691 -0.143435E-04  0.433E-02    0.51       1.0  T
   3   -311.0515550  0.141597E-04  0.121E-02    0.51       1.0  T
   4   -311.0515743 -0.193452E-04  0.415E-03    0.51       1.8  T
   5   -311.0515749 -0.592536E-06  0.173E-03    0.51       4.3  T
   6   -311.0515754 -0.457061E-06  0.642E-04    0.51      11.5  T
   7   -311.0515754 -0.596233E-07  0.259E-04    0.51      28.5  T
     SCC iter.                  ...        0 min,  0.228 sec
     gradient                   ...        0 min,  0.102 sec
 * total energy  :  -305.9521706 Eh     change       -0.6488503E-03 Eh
   gradient norm :     0.0108769 Eh/α   predicted    -0.6159306E-03 (  -5.07%)
   displ. norm   :     0.5005184 α      lambda       -0.1272814E-02
   maximum displ.:     0.2155220 α      in ANC's #11, #24, #21, ...

........................................................................
.............................. CYCLE   26 ..............................
........................................................................
   1   -311.0452556 -0.311045E+03  0.156E-01    0.51       0.0  T
   2   -311.0453172 -0.616280E-04  0.845E-02    0.51       1.0  T
   3   -311.0453033  0.138479E-04  0.146E-02    0.51       1.0  T
   4   -311.0453371 -0.338017E-04  0.653E-03    0.51       1.1  T
   5   -311.0453413 -0.413211E-05  0.282E-03    0.51       2.6  T
   6   -311.0453423 -0.101214E-05  0.812E-04    0.51       9.1  T
   7   -311.0453424 -0.770037E-07  0.371E-04    0.51      19.9  T
   8   -311.0453424 -0.807529E-08  0.180E-04    0.51      41.1  T
     SCC iter.                  ...        0 min,  0.264 sec
     gradient                   ...        0 min,  0.102 sec
 * total energy  :  -305.9524279 Eh     change       -0.2572778E-03 Eh
   gradient norm :     0.0198090 Eh/α   predicted    -0.7958412E-03 ( 209.33%)
   displ. norm   :     0.3408708 α      lambda       -0.1262558E-02
   maximum displ.:     0.1570990 α      in ANC's #11, #21, #15, ...

........................................................................
.............................. CYCLE   27 ..............................
........................................................................
   1   -311.0521776 -0.311052E+03  0.808E-02    0.51       0.0  T
   2   -311.0521938 -0.162475E-04  0.438E-02    0.51       1.0  T
   3   -311.0521874  0.645204E-05  0.943E-03    0.52       1.0  T
   4   -311.0521993 -0.118786E-04  0.355E-03    0.51       2.1  T
   5   -311.0521999 -0.667229E-06  0.148E-03    0.51       5.0  T
   6   -311.0522003 -0.352703E-06  0.539E-04    0.51      13.7  T
   7   -311.0522003 -0.393517E-07  0.199E-04    0.51      37.2  T
     SCC iter.                  ...        0 min,  0.233 sec
     gradient                   ...        0 min,  0.102 sec
 * total energy  :  -305.9532401 Eh     change       -0.8122242E-03 Eh
   gradient norm :     0.0087682 Eh/α   predicted    -0.7046302E-03 ( -13.25%)
   displ. norm   :     0.5427033 α      lambda       -0.7709530E-03
   maximum displ.:     0.2606425 α      in ANC's #11, #21, #15, ...

........................................................................
.............................. CYCLE   28 ..............................
........................................................................
   1   -311.0534014 -0.311053E+03  0.737E-02    0.51       0.0  T
   2   -311.0534136 -0.121871E-04  0.382E-02    0.51       1.0  T
   3   -311.0534092  0.438577E-05  0.869E-03    0.52       1.0  T
   4   -311.0534148 -0.558534E-05  0.483E-03    0.52       1.5  T
   5   -311.0534169 -0.210059E-05  0.152E-03    0.52       4.9  T
   6   -311.0534172 -0.305913E-06  0.536E-04    0.52      13.8  T
   7   -311.0534172 -0.409411E-07  0.226E-04    0.52      32.7  T
     SCC iter.                  ...        0 min,  0.242 sec
     gradient                   ...        0 min,  0.102 sec
 * total energy  :  -305.9538590 Eh     change       -0.6189287E-03 Eh
   gradient norm :     0.0093492 Eh/α   predicted    -0.4990100E-03 ( -19.38%)
   displ. norm   :     0.7075408 α      lambda       -0.9655030E-03
   maximum displ.:     0.3489251 α      in ANC's #11, #21, #9, ...

........................................................................
.............................. CYCLE   29 ..............................
........................................................................
   1   -311.0521622 -0.311052E+03  0.939E-02    0.51       0.0  T
   2   -311.0521807 -0.185526E-04  0.486E-02    0.51       1.0  T
   3   -311.0521671  0.136224E-04  0.125E-02    0.52       1.0  T
   4   -311.0521839 -0.167848E-04  0.630E-03    0.52       1.2  T
   5   -311.0521868 -0.288915E-05  0.225E-03    0.52       3.3  T
   6   -311.0521876 -0.823539E-06  0.710E-04    0.52      10.4  T
   7   -311.0521877 -0.708869E-07  0.308E-04    0.52      24.0  T
     SCC iter.                  ...        0 min,  0.219 sec
     gradient                   ...        0 min,  0.102 sec
 * total energy  :  -305.9546301 Eh     change       -0.7710610E-03 Eh
   gradient norm :     0.0073416 Eh/α   predicted    -0.7244297E-03 (  -6.05%)
   displ. norm   :     0.7645294 α      lambda       -0.9529591E-03
   maximum displ.:     0.3837868 α      in ANC's #11, #21, #9, ...

........................................................................
.............................. CYCLE   30 ..............................
........................................................................
   1   -311.0530348 -0.311053E+03  0.990E-02    0.51       0.0  T
   2   -311.0530549 -0.201114E-04  0.503E-02    0.51       1.0  T
   3   -311.0530461  0.884862E-05  0.116E-02    0.52       1.0  T
   4   -311.0530561 -0.100342E-04  0.664E-03    0.51       1.1  T
   5   -311.0530606 -0.449149E-05  0.202E-03    0.51       3.7  T
   6   -311.0530611 -0.496309E-06  0.684E-04    0.51      10.8  T
   7   -311.0530612 -0.636679E-07  0.271E-04    0.51      27.3  T
     SCC iter.                  ...        0 min,  0.226 sec
     gradient                   ...        0 min,  0.102 sec
 * total energy  :  -305.9554883 Eh     change       -0.8581575E-03 Eh
   gradient norm :     0.0067340 Eh/α   predicted    -0.7549919E-03 ( -12.02%)
   displ. norm   :     0.7668198 α      lambda       -0.1019341E-02
   maximum displ.:     0.4049868 α      in ANC's #11, #21, #9, ...

........................................................................
.............................. CYCLE   31 ..............................
........................................................................
   1   -311.0596873 -0.311060E+03  0.101E-01    0.51       0.0  T
   2   -311.0597071 -0.197975E-04  0.533E-02    0.51       1.0  T
   3   -311.0596963  0.108207E-04  0.120E-02    0.51       1.0  T
   4   -311.0597092 -0.129584E-04  0.657E-03    0.51       1.1  T
   5   -311.0597133 -0.408622E-05  0.189E-03    0.51       3.9  T
   6   -311.0597138 -0.482273E-06  0.700E-04    0.51      10.6  T
   7   -311.0597139 -0.641040E-07  0.302E-04    0.51      24.5  T
     SCC iter.                  ...        0 min,  0.227 sec
     gradient                   ...        0 min,  0.104 sec
 * total energy  :  -305.9563186 Eh     change       -0.8303796E-03 Eh
   gradient norm :     0.0075495 Eh/α   predicted    -0.8093657E-03 (  -2.53%)
   displ. norm   :     0.8506880 α      lambda       -0.9632083E-03
   maximum displ.:     0.4396442 α      in ANC's #11, #21, #9, ...

........................................................................
.............................. CYCLE   32 ..............................
........................................................................
   1   -311.0517920 -0.311052E+03  0.109E-01    0.50       0.0  T
   2   -311.0518158 -0.237800E-04  0.551E-02    0.50       1.0  T
   3   -311.0518046  0.112571E-04  0.132E-02    0.51       1.0  T
   4   -311.0518167 -0.121552E-04  0.775E-03    0.51       1.0  T
   5   -311.0518215 -0.482691E-05  0.286E-03    0.51       2.6  T
   6   -311.0518228 -0.127264E-05  0.887E-04    0.51       8.3  T
   7   -311.0518229 -0.131461E-06  0.291E-04    0.51      25.4  T
   8   -311.0518229 -0.521391E-08  0.162E-04    0.51      45.6  T
     SCC iter.                  ...        0 min,  0.260 sec
     gradient                   ...        0 min,  0.102 sec
 * total energy  :  -305.9570890 Eh     change       -0.7703923E-03 Eh
   gradient norm :     0.0091973 Eh/α   predicted    -0.8301290E-03 (   7.75%)
   displ. norm   :     0.7179637 α      lambda       -0.8313939E-03
   maximum displ.:     0.3907983 α      in ANC's #11, #9, #21, ...

........................................................................
.............................. CYCLE   33 ..............................
........................................................................
   1   -311.0519669 -0.311052E+03  0.855E-02    0.50       0.0  T
   2   -311.0519809 -0.139952E-04  0.450E-02    0.50       1.0  T
   3   -311.0519679  0.130010E-04  0.115E-02    0.50       1.0  T
   4   -311.0519813 -0.134625E-04  0.639E-03    0.50       1.2  T
   5   -311.0519851 -0.378848E-05  0.228E-03    0.50       3.2  T
   6   -311.0519859 -0.778000E-06  0.639E-04    0.50      11.6  T
   7   -311.0519859 -0.588099E-07  0.253E-04    0.50      29.2  T
     SCC iter.                  ...        0 min,  0.227 sec
     gradient                   ...        0 min,  0.102 sec
 * total energy  :  -305.9578502 Eh     change       -0.7611654E-03 Eh
   gradient norm :     0.0073849 Eh/α   predicted    -0.6299799E-03 ( -17.23%)
   displ. norm   :     0.7515438 α      lambda       -0.9723580E-03
   maximum displ.:     0.4254137 α      in ANC's #11, #9, #21, ...

........................................................................
.............................. CYCLE   34 ..............................
........................................................................
   1   -311.0583116 -0.311058E+03  0.918E-02    0.49       0.0  T
   2   -311.0583283 -0.167016E-04  0.495E-02    0.49       1.0  T
   3   -311.0583141  0.142102E-04  0.119E-02    0.50       1.0  T
   4   -311.0583305 -0.163543E-04  0.622E-03    0.50       1.2  T
   5   -311.0583339 -0.340298E-05  0.239E-03    0.50       3.1  T
   6   -311.0583347 -0.843653E-06  0.713E-04    0.50      10.4  T
   7   -311.0583348 -0.591795E-07  0.333E-04    0.50      22.2  T
     SCC iter.                  ...        0 min,  0.226 sec
     gradient                   ...        0 min,  0.101 sec
 * total energy  :  -305.9586653 Eh     change       -0.8151029E-03 Eh
   gradient norm :     0.0055385 Eh/α   predicted    -0.7607875E-03 (  -6.66%)
   displ. norm   :     0.8936480 α      lambda       -0.8678206E-03
   maximum displ.:     0.4991004 α      in ANC's #11, #9, #21, ...

........................................................................
.............................. CYCLE   35 ..............................
........................................................................
   1   -311.0534653 -0.311053E+03  0.106E-01    0.49       0.0  T
   2   -311.0534877 -0.223418E-04  0.551E-02    0.49       1.0  T
   3   -311.0534773  0.103057E-04  0.124E-02    0.49       1.0  T
   4   -311.0534886 -0.112296E-04  0.739E-03    0.49       1.0  T
   5   -311.0534939 -0.529290E-05  0.246E-03    0.49       3.0  T
   6   -311.0534948 -0.919706E-06  0.776E-04    0.49       9.5  T
   7   -311.0534949 -0.887671E-07  0.313E-04    0.49      23.7  T
     SCC iter.                  ...        0 min,  0.234 sec
     gradient                   ...        0 min,  0.101 sec
 * total energy  :  -305.9594474 Eh     change       -0.7820753E-03 Eh
   gradient norm :     0.0082770 Eh/α   predicted    -0.7804343E-03 (  -0.21%)
   displ. norm   :     0.8118804 α      lambda       -0.8490612E-03
   maximum displ.:     0.4738549 α      in ANC's #11, #9, #21, ...

........................................................................
.............................. CYCLE   36 ..............................
........................................................................
   1   -311.0558881 -0.311056E+03  0.926E-02    0.49       0.0  T
   2   -311.0559046 -0.165160E-04  0.489E-02    0.49       1.0  T
   3   -311.0558933  0.112697E-04  0.114E-02    0.49       1.0  T
   4   -311.0559056 -0.122763E-04  0.638E-03    0.49       1.2  T
   5   -311.0559096 -0.399105E-05  0.236E-03    0.49       3.1  T
   6   -311.0559104 -0.851603E-06  0.646E-04    0.49      11.4  T
   7   -311.0559105 -0.505902E-07  0.299E-04    0.49      24.7  T
     SCC iter.                  ...        0 min,  0.243 sec
     gradient                   ...        0 min,  0.101 sec
 * total energy  :  -305.9601915 Eh     change       -0.7441081E-03 Eh
   gradient norm :     0.0062965 Eh/α   predicted    -0.7043604E-03 (  -5.34%)
   displ. norm   :     0.8141820 α      lambda       -0.8651464E-03
   maximum displ.:     0.4857771 α      in ANC's #11, #9, #15, ...

........................................................................
.............................. CYCLE   37 ..............................
........................................................................
   1   -311.0602058 -0.311060E+03  0.872E-02    0.48       0.0  T
   2   -311.0602210 -0.151451E-04  0.469E-02    0.49       1.0  T
   3   -311.0601970  0.240012E-04  0.132E-02    0.49       1.0  T
   4   -311.0602233 -0.262876E-04  0.626E-03    0.49       1.2  T
   5   -311.0602267 -0.337030E-05  0.270E-03    0.49       2.7  T
   6   -311.0602276 -0.957849E-06  0.763E-04    0.49       9.7  T
   7   -311.0602277 -0.760172E-07  0.327E-04    0.49      22.6  T
     SCC iter.                  ...        0 min,  0.218 sec
     gradient                   ...        0 min,  0.101 sec
 * total energy  :  -305.9609152 Eh     change       -0.7236870E-03 Eh
   gradient norm :     0.0073742 Eh/α   predicted    -0.7193262E-03 (  -0.60%)
   displ. norm   :     0.8535040 α      lambda       -0.7967839E-03
   maximum displ.:     0.5142041 α      in ANC's #11, #9, #15, ...

........................................................................
.............................. CYCLE   38 ..............................
........................................................................
   1   -311.0554624 -0.311055E+03  0.961E-02    0.48       0.0  T
   2   -311.0554793 -0.169197E-04  0.510E-02    0.49       1.0  T
   3   -311.0554630  0.163639E-04  0.124E-02    0.49       1.0  T
   4   -311.0554808 -0.178329E-04  0.665E-03    0.49       1.1  T
   5   -311.0554851 -0.424107E-05  0.236E-03    0.49       3.1  T
   6   -311.0554859 -0.862715E-06  0.634E-04    0.49      11.7  T
   7   -311.0554860 -0.460209E-07  0.309E-04    0.49      23.9  T
     SCC iter.                  ...        0 min,  0.220 sec
     gradient                   ...        0 min,  0.101 sec
 * total energy  :  -305.9616272 Eh     change       -0.7119813E-03 Eh
   gradient norm :     0.0072670 Eh/α   predicted    -0.6885960E-03 (  -3.28%)
   displ. norm   :     0.7979962 α      lambda       -0.7675929E-03
   maximum displ.:     0.5023382 α      in ANC's #11, #9, #15, ...

........................................................................
.............................. CYCLE   39 ..............................
........................................................................
   1   -311.0597175 -0.311060E+03  0.812E-02    0.48       0.0  T
   2   -311.0597293 -0.117523E-04  0.438E-02    0.49       1.0  T
   3   -311.0597144  0.149092E-04  0.112E-02    0.49       1.0  T
   4   -311.0597297 -0.153014E-04  0.580E-03    0.49       1.3  T
   5   -311.0597331 -0.340812E-05  0.219E-03    0.49       3.4  T
   6   -311.0597338 -0.677918E-06  0.656E-04    0.49      11.3  T
   7   -311.0597338 -0.568828E-07  0.282E-04    0.49      26.3  T
     SCC iter.                  ...        0 min,  0.222 sec
     gradient                   ...        0 min,  0.101 sec
 * total energy  :  -305.9622815 Eh     change       -0.6543478E-03 Eh
   gradient norm :     0.0080047 Eh/α   predicted    -0.6281999E-03 (  -4.00%)
   displ. norm   :     0.8607139 α      lambda       -0.7452336E-03
   maximum displ.:     0.5361764 α      in ANC's #11, #9, #15, ...

........................................................................
.............................. CYCLE   40 ..............................
........................................................................
   1   -311.0538692 -0.311054E+03  0.925E-02    0.48       0.0  T
   2   -311.0538848 -0.156086E-04  0.496E-02    0.49       1.0  T
   3   -311.0538782  0.665044E-05  0.102E-02    0.49       1.0  T
   4   -311.0538847 -0.652664E-05  0.603E-03    0.49       1.2  T
   5   -311.0538890 -0.432319E-05  0.207E-03    0.49       3.6  T
   6   -311.0538897 -0.692377E-06  0.677E-04    0.49      10.9  T
   7   -311.0538898 -0.630900E-07  0.296E-04    0.49      25.0  T
     SCC iter.                  ...        0 min,  0.225 sec
     gradient                   ...        0 min,  0.101 sec
 * total energy  :  -305.9629366 Eh     change       -0.6551447E-03 Eh
   gradient norm :     0.0076324 Eh/α   predicted    -0.6486691E-03 (  -0.99%)
   displ. norm   :     0.7774036 α      lambda       -0.7701150E-03
   maximum displ.:     0.5074422 α      in ANC's #11, #9, #15, ...

........................................................................
.............................. CYCLE   41 ..............................
........................................................................
   1   -311.0607329 -0.311061E+03  0.827E-02    0.49       0.0  T
   2   -311.0607443 -0.113811E-04  0.452E-02    0.49       1.0  T
   3   -311.0607333  0.110082E-04  0.103E-02    0.49       1.0  T
   4   -311.0607446 -0.112787E-04  0.554E-03    0.49       1.3  T
   5   -311.0607479 -0.334595E-05  0.193E-03    0.49       3.8  T
   6   -311.0607485 -0.512891E-06  0.654E-04    0.49      11.3  T
   7   -311.0607485 -0.566591E-07  0.296E-04    0.49      25.0  T
     SCC iter.                  ...        0 min,  0.227 sec
     gradient                   ...        0 min,  0.101 sec
 * total energy  :  -305.9635363 Eh     change       -0.5996694E-03 Eh
   gradient norm :     0.0102373 Eh/α   predicted    -0.6177737E-03 (   3.02%)
   displ. norm   :     0.8097416 α      lambda       -0.7623655E-03
   maximum displ.:     0.5206728 α      in ANC's #11, #9, #15, ...

........................................................................
.............................. CYCLE   42 ..............................
........................................................................
   1   -311.0589432 -0.311059E+03  0.842E-02    0.49       0.0  T
   2   -311.0589572 -0.139586E-04  0.455E-02    0.49       1.0  T
   3   -311.0589478  0.938919E-05  0.106E-02    0.49       1.0  T
   4   -311.0589583 -0.105378E-04  0.559E-03    0.49       1.3  T
   5   -311.0589611 -0.279235E-05  0.207E-03    0.49       3.6  T
   6   -311.0589617 -0.615450E-06  0.694E-04    0.49      10.6  T
   7   -311.0589618 -0.717723E-07  0.284E-04    0.49      26.0  T
     SCC iter.                  ...        0 min,  0.227 sec
     gradient                   ...        0 min,  0.101 sec
 * total energy  :  -305.9641456 Eh     change       -0.6092821E-03 Eh
   gradient norm :     0.0106019 Eh/α   predicted    -0.6311162E-03 (   3.58%)
   displ. norm   :     0.7551382 α      lambda       -0.6871342E-03
   maximum displ.:     0.5026176 α      in ANC's #11, #9, #5, ...
 * RMSD in coord.:     1.0257177 α      energy gain  -0.1472274E-01 Eh

generating ANC from model Hessian ...
Using Lindh-Hessian (1995)
 Shifting diagonal of input Hessian by   1.007176379797725E-002
 Lowest  eigenvalues of input Hessian
    0.010000    0.000000    0.000000    0.000000    0.000000    0.000000
    0.000000    0.010074    0.010085    0.010100    0.010103    0.010105
    0.010129    0.010158    0.010177    0.010195    0.010238    0.010245
 Highest eigenvalues
    2.269828    2.280987    2.606179    2.610544    2.641995    2.643391
 

........................................................................
.............................. CYCLE   43 ..............................
........................................................................
   1   -311.0590365 -0.311059E+03  0.786E-02    0.49       0.0  T
   2   -311.0590470 -0.105167E-04  0.435E-02    0.49       1.0  T
   3   -311.0590276  0.193788E-04  0.120E-02    0.49       1.0  T
   4   -311.0590488 -0.211868E-04  0.515E-03    0.49       1.4  T
   5   -311.0590511 -0.233329E-05  0.211E-03    0.49       3.5  T
   6   -311.0590516 -0.505108E-06  0.774E-04    0.49       9.6  T
   7   -311.0590517 -0.830707E-07  0.317E-04    0.49      23.3  T
     SCC iter.                  ...        0 min,  0.226 sec
     gradient                   ...        0 min,  0.101 sec
 * total energy  :  -305.9646855 Eh     change       -0.5398870E-03 Eh
   gradient norm :     0.0090124 Eh/α   predicted     0.0000000E+00 (-100.00%)
   displ. norm   :     0.0947038 α      lambda       -0.2210159E-03
   maximum displ.:     0.0454818 α      in ANC's #10, #9, #31, ...

........................................................................
.............................. CYCLE   44 ..............................
........................................................................
   1   -311.0621493 -0.311062E+03  0.284E-02    0.49       0.0  T
   2   -311.0621514 -0.214004E-05  0.154E-02    0.49       1.0  T
   3   -311.0621492  0.223892E-05  0.436E-03    0.49       1.7  T
   4   -311.0621522 -0.299038E-05  0.138E-03    0.49       5.4  T
   5   -311.0621523 -0.116604E-06  0.683E-04    0.49      10.8  T
   6   -311.0621523 -0.459884E-07  0.282E-04    0.49      26.2  T
     SCC iter.                  ...        0 min,  0.194 sec
     gradient                   ...        0 min,  0.101 sec
 * total energy  :  -305.9648355 Eh     change       -0.1500280E-03 Eh
   gradient norm :     0.0036601 Eh/α   predicted    -0.1114996E-03 ( -25.68%)
   displ. norm   :     0.2360618 α      lambda       -0.3278586E-03
   maximum displ.:     0.1174939 α      in ANC's #10, #9, #13, ...

........................................................................
.............................. CYCLE   45 ..............................
........................................................................
   1   -311.0665295 -0.311067E+03  0.591E-02    0.49       0.0  T
   2   -311.0665385 -0.903444E-05  0.318E-02    0.49       1.0  T
   3   -311.0665331  0.546455E-05  0.790E-03    0.49       1.0  T
   4   -311.0665417 -0.863763E-05  0.285E-03    0.49       2.6  T
   5   -311.0665420 -0.289776E-06  0.137E-03    0.49       5.4  T
   6   -311.0665422 -0.261099E-06  0.470E-04    0.49      15.7  T
   7   -311.0665423 -0.315941E-07  0.184E-04    0.49      40.2  T
     SCC iter.                  ...        0 min,  0.227 sec
     gradient                   ...        0 min,  0.101 sec
 * total energy  :  -305.9649453 Eh     change       -0.1097914E-03 Eh
   gradient norm :     0.0099603 Eh/α   predicted    -0.1730757E-03 (  57.64%)
   displ. norm   :     0.2152848 α      lambda       -0.3216782E-03
   maximum displ.:     0.1019654 α      in ANC's #10, #9, #7, ...

........................................................................
.............................. CYCLE   46 ..............................
........................................................................
   1   -311.0672515 -0.311067E+03  0.549E-02    0.49       0.0  T
   2   -311.0672581 -0.653516E-05  0.297E-02    0.49       1.0  T
   3   -311.0672559  0.210358E-05  0.548E-03    0.49       1.3  T
   4   -311.0672600 -0.405593E-05  0.255E-03    0.49       2.9  T
   5   -311.0672605 -0.479053E-06  0.105E-03    0.49       7.0  T
   6   -311.0672607 -0.168082E-06  0.291E-04    0.49      25.4  T
   7   -311.0672607 -0.805073E-08  0.145E-04    0.49      50.9  T
     SCC iter.                  ...        0 min,  0.225 sec
     gradient                   ...        0 min,  0.101 sec
 * total energy  :  -305.9650849 Eh     change       -0.1395803E-03 Eh
   gradient norm :     0.0100539 Eh/α   predicted    -0.1682939E-03 (  20.57%)
   displ. norm   :     0.2536577 α      lambda       -0.4160023E-03
   maximum displ.:     0.1285952 α      in ANC's #10, #13, #9, ...

........................................................................
.............................. CYCLE   47 ..............................
........................................................................
   1   -311.0637800 -0.311064E+03  0.670E-02    0.49       0.0  T
   2   -311.0637887 -0.871849E-05  0.364E-02    0.49       1.0  T
   3   -311.0637873  0.140657E-05  0.581E-03    0.49       1.3  T
   4   -311.0637910 -0.374679E-05  0.289E-03    0.49       2.6  T
   5   -311.0637917 -0.705090E-06  0.111E-03    0.49       6.7  T
   6   -311.0637919 -0.160510E-06  0.468E-04    0.49      15.8  T
   7   -311.0637919 -0.340003E-07  0.174E-04    0.49      42.5  T
     SCC iter.                  ...        0 min,  0.228 sec
     gradient                   ...        0 min,  0.101 sec
 * total energy  :  -305.9652726 Eh     change       -0.1877506E-03 Eh
   gradient norm :     0.0082168 Eh/α   predicted    -0.2213860E-03 (  17.91%)
   displ. norm   :     0.3126795 α      lambda       -0.4817990E-03
   maximum displ.:     0.1480505 α      in ANC's #10, #9, #13, ...

........................................................................
.............................. CYCLE   48 ..............................
........................................................................
   1   -311.0595276 -0.311060E+03  0.905E-02    0.49       0.0  T
   2   -311.0595455 -0.178844E-04  0.493E-02    0.49       1.0  T
   3   -311.0595431  0.239800E-05  0.788E-03    0.49       1.0  T
   4   -311.0595514 -0.828027E-05  0.337E-03    0.49       2.2  T
   5   -311.0595521 -0.690550E-06  0.134E-03    0.49       5.5  T
   6   -311.0595524 -0.251598E-06  0.554E-04    0.49      13.4  T
   7   -311.0595524 -0.462011E-07  0.205E-04    0.49      36.0  T
     SCC iter.                  ...        0 min,  0.225 sec
     gradient                   ...        0 min,  0.101 sec
 * total energy  :  -305.9653653 Eh     change       -0.9266186E-04 Eh
   gradient norm :     0.0108585 Eh/α   predicted    -0.2644521E-03 ( 185.39%)
   displ. norm   :     0.2829001 α      lambda       -0.6301696E-03
   maximum displ.:     0.1474189 α      in ANC's #10, #13, #9, ...

........................................................................
.............................. CYCLE   49 ..............................
........................................................................
   1   -311.0626159 -0.311063E+03  0.722E-02    0.49       0.0  T
   2   -311.0626271 -0.111730E-04  0.393E-02    0.49       1.0  T
   3   -311.0626256  0.155583E-05  0.626E-03    0.49       1.2  T
   4   -311.0626305 -0.494139E-05  0.300E-03    0.49       2.5  T
   5   -311.0626313 -0.789814E-06  0.110E-03    0.49       6.7  T
   6   -311.0626315 -0.199489E-06  0.336E-04    0.49      22.0  T
   7   -311.0626315 -0.120207E-07  0.160E-04    0.49      46.3  T
     SCC iter.                  ...        0 min,  0.230 sec
     gradient                   ...        0 min,  0.101 sec
 * total energy  :  -305.9657378 Eh     change       -0.3724650E-03 Eh
   gradient norm :     0.0057164 Eh/α   predicted    -0.3403026E-03 (  -8.64%)
   displ. norm   :     0.4137038 α      lambda       -0.4465841E-03
   maximum displ.:     0.2144105 α      in ANC's #10, #13, #9, ...

........................................................................
.............................. CYCLE   50 ..............................
........................................................................
   1   -311.0644347 -0.311064E+03  0.723E-02    0.49       0.0  T
   2   -311.0644445 -0.977856E-05  0.390E-02    0.49       1.0  T
   3   -311.0644421  0.236520E-05  0.657E-03    0.49       1.1  T
   4   -311.0644458 -0.365134E-05  0.387E-03    0.50       1.9  T
   5   -311.0644477 -0.186339E-05  0.142E-03    0.50       5.2  T
   6   -311.0644480 -0.295297E-06  0.422E-04    0.50      17.5  T
   7   -311.0644480 -0.186388E-07  0.197E-04    0.50      37.6  T
     SCC iter.                  ...        0 min,  0.227 sec
     gradient                   ...        0 min,  0.101 sec
 * total energy  :  -305.9659704 Eh     change       -0.2326692E-03 Eh
   gradient norm :     0.0080169 Eh/α   predicted    -0.2615096E-03 (  12.40%)
   displ. norm   :     0.4861176 α      lambda       -0.4063954E-03
   maximum displ.:     0.2534634 α      in ANC's #10, #13, #9, ...

........................................................................
.............................. CYCLE   51 ..............................
........................................................................
   1   -311.0629926 -0.311063E+03  0.609E-02    0.49       0.0  T
   2   -311.0629990 -0.641733E-05  0.324E-02    0.50       1.0  T
   3   -311.0629960  0.297935E-05  0.674E-03    0.50       1.1  T
   4   -311.0629997 -0.366609E-05  0.376E-03    0.50       2.0  T
   5   -311.0630010 -0.127123E-05  0.129E-03    0.50       5.7  T
   6   -311.0630012 -0.284004E-06  0.387E-04    0.50      19.1  T
   7   -311.0630013 -0.187035E-07  0.183E-04    0.50      40.4  T
     SCC iter.                  ...        0 min,  0.227 sec
     gradient                   ...        0 min,  0.100 sec
 * total energy  :  -305.9663224 Eh     change       -0.3519312E-03 Eh
   gradient norm :     0.0048255 Eh/α   predicted    -0.2512206E-03 ( -28.62%)
   displ. norm   :     0.6602628 α      lambda       -0.5535886E-03
   maximum displ.:     0.3554071 α      in ANC's #10, #13, #9, ...

........................................................................
.............................. CYCLE   52 ..............................
........................................................................
   1   -311.0642661 -0.311064E+03  0.725E-02    0.49       0.0  T
   2   -311.0642741 -0.798646E-05  0.396E-02    0.50       1.0  T
   3   -311.0642660  0.810133E-05  0.877E-03    0.50       1.0  T
   4   -311.0642750 -0.909628E-05  0.443E-03    0.50       1.7  T
   5   -311.0642769 -0.181392E-05  0.165E-03    0.50       4.5  T
   6   -311.0642773 -0.425524E-06  0.508E-04    0.50      14.6  T
   7   -311.0642773 -0.307871E-07  0.246E-04    0.50      30.0  T
     SCC iter.                  ...        0 min,  0.226 sec
     gradient                   ...        0 min,  0.101 sec
 * total energy  :  -305.9667662 Eh     change       -0.4438380E-03 Eh
   gradient norm :     0.0050279 Eh/α   predicted    -0.3974667E-03 ( -10.45%)
   displ. norm   :     0.7944589 α      lambda       -0.4838300E-03
   maximum displ.:     0.4283754 α      in ANC's #10, #13, #9, ...

........................................................................
.............................. CYCLE   53 ..............................
........................................................................
   1   -311.0612243 -0.311061E+03  0.861E-02    0.50       0.0  T
   2   -311.0612356 -0.113200E-04  0.459E-02    0.50       1.0  T
   3   -311.0612273  0.831185E-05  0.101E-02    0.50       1.0  T
   4   -311.0612351 -0.781444E-05  0.591E-03    0.50       1.3  T
   5   -311.0612390 -0.391903E-05  0.190E-03    0.50       3.9  T
   6   -311.0612396 -0.605673E-06  0.545E-04    0.50      13.6  T
   7   -311.0612397 -0.355215E-07  0.262E-04    0.50      28.2  T
     SCC iter.                  ...        0 min,  0.227 sec
     gradient                   ...        0 min,  0.100 sec
 * total energy  :  -305.9671931 Eh     change       -0.4268669E-03 Eh
   gradient norm :     0.0059314 Eh/α   predicted    -0.3946105E-03 (  -7.56%)
   displ. norm   :     0.7254924 α      lambda       -0.4884441E-03
   maximum displ.:     0.4030873 α      in ANC's #10, #13, #7, ...

........................................................................
.............................. CYCLE   54 ..............................
........................................................................
   1   -311.0627647 -0.311063E+03  0.731E-02    0.50       0.0  T
   2   -311.0627719 -0.723499E-05  0.402E-02    0.50       1.0  T
   3   -311.0627620  0.990384E-05  0.908E-03    0.50       1.0  T
   4   -311.0627723 -0.102974E-04  0.465E-03    0.50       1.6  T
   5   -311.0627746 -0.233987E-05  0.163E-03    0.50       4.5  T
   6   -311.0627750 -0.404400E-06  0.502E-04    0.50      14.7  T
   7   -311.0627751 -0.294764E-07  0.245E-04    0.50      30.1  T
     SCC iter.                  ...        0 min,  0.228 sec
     gradient                   ...        0 min,  0.100 sec
 * total energy  :  -305.9676400 Eh     change       -0.4468972E-03 Eh
   gradient norm :     0.0046918 Eh/α   predicted    -0.3727731E-03 ( -16.59%)
   displ. norm   :     0.7715506 α      lambda       -0.5253644E-03
   maximum displ.:     0.4336744 α      in ANC's #10, #13, #7, ...

........................................................................
.............................. CYCLE   55 ..............................
........................................................................
   1   -311.0640015 -0.311064E+03  0.805E-02    0.50       0.0  T
   2   -311.0640109 -0.941264E-05  0.444E-02    0.51       1.0  T
   3   -311.0639991  0.118507E-04  0.986E-03    0.50       1.0  T
   4   -311.0640121 -0.130237E-04  0.490E-03    0.51       1.5  T
   5   -311.0640146 -0.246383E-05  0.183E-03    0.51       4.0  T
   6   -311.0640151 -0.499193E-06  0.547E-04    0.51      13.5  T
   7   -311.0640151 -0.332590E-07  0.274E-04    0.51      26.9  T
     SCC iter.                  ...        0 min,  0.226 sec
     gradient                   ...        0 min,  0.100 sec
 * total energy  :  -305.9681280 Eh     change       -0.4880810E-03 Eh
   gradient norm :     0.0039272 Eh/α   predicted    -0.4190604E-03 ( -14.14%)
   displ. norm   :     0.8079082 α      lambda       -0.5451071E-03
   maximum displ.:     0.4581994 α      in ANC's #10, #13, #7, ...

........................................................................
.............................. CYCLE   56 ..............................
........................................................................
   1   -311.0648780 -0.311065E+03  0.829E-02    0.50       0.0  T
   2   -311.0648876 -0.959622E-05  0.460E-02    0.51       1.0  T
   3   -311.0648739  0.137135E-04  0.102E-02    0.50       1.0  T
   4   -311.0648886 -0.147836E-04  0.502E-03    0.51       1.5  T
   5   -311.0648914 -0.274374E-05  0.198E-03    0.51       3.7  T
   6   -311.0648919 -0.554230E-06  0.577E-04    0.51      12.8  T
   7   -311.0648920 -0.352399E-07  0.289E-04    0.51      25.5  T
     SCC iter.                  ...        0 min,  0.226 sec
     gradient                   ...        0 min,  0.100 sec
 * total energy  :  -305.9686370 Eh     change       -0.5089322E-03 Eh
   gradient norm :     0.0039678 Eh/α   predicted    -0.4504593E-03 ( -11.49%)
   displ. norm   :     0.8327412 α      lambda       -0.5426873E-03
   maximum displ.:     0.4743205 α      in ANC's #10, #13, #7, ...

........................................................................
.............................. CYCLE   57 ..............................
........................................................................
   1   -311.0639764 -0.311064E+03  0.843E-02    0.50       0.0  T
   2   -311.0639864 -0.995407E-05  0.469E-02    0.51       1.0  T
   3   -311.0639729  0.134535E-04  0.103E-02    0.50       1.0  T
   4   -311.0639873 -0.143960E-04  0.514E-03    0.51       1.4  T
   5   -311.0639903 -0.293769E-05  0.206E-03    0.51       3.6  T
   6   -311.0639909 -0.596613E-06  0.587E-04    0.51      12.6  T
   7   -311.0639909 -0.348825E-07  0.295E-04    0.51      25.1  T
     SCC iter.                  ...        0 min,  0.225 sec
     gradient                   ...        0 min,  0.100 sec
 * total energy  :  -305.9691475 Eh     change       -0.5104843E-03 Eh
   gradient norm :     0.0042621 Eh/α   predicted    -0.4595143E-03 (  -9.98%)
   displ. norm   :     0.8391508 α      lambda       -0.5472836E-03
   maximum displ.:     0.4813096 α      in ANC's #10, #13, #7, ...

........................................................................
.............................. CYCLE   58 ..............................
........................................................................
   1   -311.0651727 -0.311065E+03  0.815E-02    0.50       0.0  T
   2   -311.0651815 -0.876538E-05  0.456E-02    0.51       1.0  T
   3   -311.0651701  0.113434E-04  0.942E-03    0.50       1.0  T
   4   -311.0651814 -0.112489E-04  0.503E-03    0.51       1.5  T
   5   -311.0651847 -0.334488E-05  0.201E-03    0.51       3.7  T
   6   -311.0651853 -0.548417E-06  0.573E-04    0.51      12.9  T
   7   -311.0651853 -0.305923E-07  0.290E-04    0.51      25.5  T
     SCC iter.                  ...        0 min,  0.240 sec
     gradient                   ...        0 min,  0.101 sec
 * total energy  :  -305.9696571 Eh     change       -0.5095941E-03 Eh
   gradient norm :     0.0046587 Eh/α   predicted    -0.4663349E-03 (  -8.49%)
   displ. norm   :     0.8642267 α      lambda       -0.5421865E-03
   maximum displ.:     0.4970307 α      in ANC's #10, #13, #7, ...

........................................................................
.............................. CYCLE   59 ..............................
........................................................................
   1   -311.0619725 -0.311062E+03  0.842E-02    0.50       0.0  T
   2   -311.0619824 -0.989808E-05  0.467E-02    0.51       1.0  T
   3   -311.0619727  0.975150E-05  0.954E-03    0.50       1.0  T
   4   -311.0619823 -0.964180E-05  0.530E-03    0.51       1.4  T
   5   -311.0619859 -0.354948E-05  0.206E-03    0.51       3.6  T
   6   -311.0619865 -0.622100E-06  0.586E-04    0.51      12.6  T
   7   -311.0619865 -0.321329E-07  0.299E-04    0.51      24.7  T
     SCC iter.                  ...        0 min,  0.227 sec
     gradient                   ...        0 min,  0.100 sec
 * total energy  :  -305.9701606 Eh     change       -0.5035528E-03 Eh
   gradient norm :     0.0050009 Eh/α   predicted    -0.4735705E-03 (  -5.95%)
   displ. norm   :     0.8491969 α      lambda       -0.5694365E-03
   maximum displ.:     0.4920812 α      in ANC's #10, #13, #7, ...

[...]
                           108 C    0.107
   104   6 C    3.883 --   103 C    1.494   106 C    1.244   105 F    0.982
   105   9 F    1.118 --   104 C    0.982
   106   6 C    3.888 --   108 C    1.497   104 C    1.244   107 F    0.983
   107   9 F    1.120 --   106 C    0.983
   108   6 C    3.975 --   106 C    1.497   109 C    1.284   182 H    0.961
                           103 C    0.107
   109   6 C    3.984 --   108 C    1.284   110 C    1.278   102 C    1.241
   110   6 C    3.970 --   111 C    1.497   109 C    1.278   183 H    0.958
   111   6 C    3.981 --   110 C    1.497   100 C    1.206   112 C    1.089
   112   6 C    3.969 --   113 C    1.480    97 C    1.135   111 C    1.089
   113   6 C    3.946 --   112 C    1.480   114 C    1.100   116 C    1.097
   114   6 C    3.944 --   115 N    2.746   113 C    1.100
   115   7 N    2.962 --   114 C    2.746
   116   6 C    3.945 --   117 N    2.763   113 C    1.097
   117   7 N    2.970 --   116 C    2.763
   118   1 H    0.995 --     1 C    0.945
   119   1 H    0.996 --     6 C    0.964
   120   1 H    0.996 --     9 C    0.959
   121   1 H    0.997 --    17 C    0.960
   122   1 H    0.998 --    18 C    0.972
   123   1 H    0.999 --    19 C    0.971
   124   1 H    0.999 --    20 C    0.972
   125   1 H    0.999 --    21 C    0.972
   126   1 H    0.998 --    22 C    0.978
   127   1 H    0.996 --    22 C    0.977
   128   1 H    0.996 --    23 C    0.960
   129   1 H    0.994 --    25 C    0.954
   130   1 H    0.995 --    28 C    0.967
   131   1 H    0.997 --    28 C    0.969
   132   1 H    0.997 --    29 C    0.984
   133   1 H    0.997 --    29 C    0.985
   134   1 H    0.998 --    29 C    0.984
   135   1 H    0.998 --    33 C    0.968
   136   1 H    0.998 --    34 C    0.969
   137   1 H    0.997 --    35 C    0.968
   138   1 H    0.998 --    36 C    0.970
   139   1 H    0.998 --    38 C    0.964
   140   1 H    0.998 --    43 C    0.967
   141   1 H    0.998 --    44 C    0.965
   142   1 H    0.996 --    47 C    0.982
   143   1 H    0.997 --    47 C    0.979
   144   1 H    0.995 --    47 C    0.978
   145   1 H    0.998 --    48 C    0.964
   146   1 H    0.998 --    49 C    0.967
   147   1 H    0.998 --    51 C    0.966
   148   1 H    0.997 --    52 C    0.967
   149   1 H    0.997 --    55 C    0.983
   150   1 H    0.996 --    55 C    0.979
   151   1 H    0.997 --    55 C    0.983
   152   1 H    0.998 --    56 C    0.965
   153   1 H    0.999 --    57 C    0.966
   154   1 H    0.998 --    64 C    0.967
   155   1 H    0.997 --    65 C    0.967
   156   1 H    0.996 --    68 C    0.978
   157   1 H    0.996 --    68 C    0.978
   158   1 H    0.996 --    68 C    0.981
   159   1 H    0.998 --    69 C    0.965
   160   1 H    0.999 --    70 C    0.966
   161   1 H    0.999 --    72 C    0.967
   162   1 H    0.998 --    73 C    0.965
   163   1 H    0.996 --    76 C    0.982
   164   1 H    0.996 --    76 C    0.979
   165   1 H    0.997 --    76 C    0.982
   166   1 H    0.997 --    77 C    0.967
   167   1 H    0.998 --    78 C    0.967
   168   1 H    0.999 --    82 C    0.964
   169   1 H    0.997 --    85 C    0.966
   170   1 H    0.997 --    85 C    0.968
   171   1 H    0.998 --    86 C    0.987
   172   1 H    0.997 --    86 C    0.984
   173   1 H    0.998 --    86 C    0.987
   174   1 H    0.997 --    90 C    0.967
   175   1 H    0.998 --    91 C    0.966
   176   1 H    0.997 --    92 C    0.967
   177   1 H    0.993 --    93 C    0.953
   178   1 H    0.998 --    95 C    0.961
   179   1 H    0.996 --    96 C    0.943
   180   1 H    0.994 --   101 C    0.962
   181   1 H    0.993 --   103 C    0.962
   182   1 H    0.993 --   108 C    0.961
   183   1 H    0.995 --   110 C    0.958
 ---------------------------------------------------------------------------

Topologies differ in bond orders
Writing corrected topology to xtbtopo.mol

molecular dipole:
                 x           y           z       tot (Debye)
 q only:       -0.257       2.645      -0.248
   full:       -0.997       2.959      -0.020       7.935
molecular quadrupole (traceless):
                xx          xy          yy          xz          yz          zz
 q only:      -28.290     -56.768       5.348     132.523     108.085      22.942
  q+dip:      -39.172     -40.428      21.363     135.758     101.833      17.809
   full:      -40.421     -43.761      21.548     144.612     102.162      18.873

           -------------------------------------------------
          |                Geometry Summary                 |
           -------------------------------------------------

      molecular mass/u    :     1630.0249099
   center of mass at/Å    :       -0.1027847      -0.5820182      -0.1041037
  moments of inertia/u·Å² :        0.2727843E+05   0.1641831E+06   0.1753030E+06
rotational constants/cm⁻¹ :        0.6179840E-03   0.1026758E-03   0.9616284E-04

 * 177 selected distances

     #   Z          #   Z                                           value/Å
     1   6 C        2   6 C                                       1.3618483
     3   6 C        4   8 O                                       1.2135560
     5   6 C        6   6 C                                       1.3932563
     6   6 C        7   6 C                                       1.3734523
     7   6 C        8   6 C                                       1.4020321
     8   6 C        9   6 C                                       1.3740719
     5   6 C       10   6 C                                       1.4084731
     9   6 C       10   6 C                                       1.3984455
    11   6 C       12   6 C                                       1.3700538
    13   6 C       14   7 N                                       1.1481829
    15   6 C       16   7 N                                       1.1487855
     8   6 C       17   6 C                                       1.5080745
    17   6 C       18   6 C                                       1.5487401
    19   6 C       20   6 C                                       1.3262970
    18   6 C       22   6 C                                       1.5370897
    21   6 C       22   6 C                                       1.5369834
     7   6 C       23   6 C                                       1.5078304
    17   6 C       23   6 C                                       1.5612892
    21   6 C       23   6 C                                       1.5490700
     1   6 C       24   6 C                                       1.4329032
    24   6 C       25   6 C                                       1.3969860
    25   6 C       26   6 C                                       1.3805759
    26   6 C       27   7 N                                       1.3719683
    27   7 N       28   6 C                                       1.4397110
    28   6 C       29   6 C                                       1.5270063
    27   7 N       30   6 C                                       1.3687913
    30   6 C       31   6 C                                       1.4199633
    26   6 C       32   6 C                                       1.4195866
    31   6 C       32   6 C                                       1.4257347
    32   6 C       33   6 C                                       1.3942601
    24   6 C       34   6 C                                       1.4152201
    33   6 C       34   6 C                                       1.3726184
    31   6 C       35   6 C                                       1.3911290
    35   6 C       36   6 C                                       1.3737488
    36   6 C       37   6 C                                       1.4055941
    30   6 C       38   6 C                                       1.3858496
    37   6 C       38   6 C                                       1.3879013
    39   6 C       40   6 C                                       1.3791940
    40   6 C       41   7 N                                       1.3923407
    41   7 N       42   6 C                                       1.4036900
    42   6 C       43   6 C                                       1.3915476
    43   6 C       44   6 C                                       1.3819686
    44   6 C       45   6 C                                       1.3875460
    45   6 C       48   6 C                                       1.3931061
    42   6 C       49   6 C                                       1.3950454
    48   6 C       49   6 C                                       1.3751559
    41   7 N       50   6 C                                       1.3933699
    50   6 C       51   6 C                                       1.3967305
    51   6 C       52   6 C                                       1.3755101
    52   6 C       53   6 C                                       1.3938908
    53   6 C       56   6 C                                       1.3867386
    50   6 C       57   6 C                                       1.3929917
    56   6 C       57   6 C                                       1.3816502
    40   6 C       58   6 C                                       1.4184249
    58   6 C       59  16 S                                       1.7276296
    59  16 S       60   6 C                                       1.7554612 (max)
    60   6 C       61   6 C                                       1.3826302
    61   6 C       62   7 N                                       1.3912534
    62   7 N       63   6 C                                       1.3991495
    63   6 C       64   6 C                                       1.3962907
    64   6 C       65   6 C                                       1.3755371
    65   6 C       66   6 C                                       1.3942102
    66   6 C       69   6 C                                       1.3873620
    63   6 C       70   6 C                                       1.3931074
    69   6 C       70   6 C                                       1.3816273
    62   7 N       71   6 C                                       1.4010940
    71   6 C       72   6 C                                       1.3920894
    72   6 C       73   6 C                                       1.3808892
    73   6 C       74   6 C                                       1.3885278
    74   6 C       77   6 C                                       1.3931196
    71   6 C       78   6 C                                       1.3959455
    77   6 C       78   6 C                                       1.3764456
    58   6 C       79   6 C                                       1.3836869
    61   6 C       79   6 C                                       1.4193503
    39   6 C       80  16 S                                       1.7491813
    79   6 C       80  16 S                                       1.7312377
    81   6 C       82   6 C                                       1.3920001
    82   6 C       83   6 C                                       1.3835156
    83   6 C       84   7 N                                       1.3718649
    84   7 N       85   6 C                                       1.4383520
    85   6 C       86   6 C                                       1.5279259
    84   7 N       87   6 C                                       1.3746474
    87   6 C       88   6 C                                       1.4231161
    83   6 C       89   6 C                                       1.4192249
    88   6 C       89   6 C                                       1.4243440
    89   6 C       90   6 C                                       1.3926733
    81   6 C       91   6 C                                       1.4060924
    90   6 C       91   6 C                                       1.3734124
    88   6 C       92   6 C                                       1.3923908
    92   6 C       93   6 C                                       1.3732589
    93   6 C       94   6 C                                       1.4121653
    87   6 C       95   6 C                                       1.3761431
    94   6 C       95   6 C                                       1.4088471
    94   6 C       96   6 C                                       1.4257953
    96   6 C       97   6 C                                       1.3684005
    98   6 C       99   8 O                                       1.2119609
   100   6 C      101   6 C                                       1.3644885
   101   6 C      102   6 C                                       1.4128812
   102   6 C      103   6 C                                       1.4082687
   103   6 C      104   6 C                                       1.3666945
   104   6 C      106   6 C                                       1.4090534
   106   6 C      107   9 F                                       1.3403216
   106   6 C      108   6 C                                       1.3664651
   102   6 C      109   6 C                                       1.4250941
   108   6 C      109   6 C                                       1.4094968
   109   6 C      110   6 C                                       1.4135028
   100   6 C      111   6 C                                       1.4209295
   110   6 C      111   6 C                                       1.3701273
   112   6 C      113   6 C                                       1.3726270
   114   6 C      115   7 N                                       1.1496068
   116   6 C      117   7 N                                       1.1480705
     1   6 C      118   1 H                                       1.0849600
     6   6 C      119   1 H                                       1.0788980
     9   6 C      120   1 H                                       1.0772798
    17   6 C      121   1 H                                       1.0881456
    18   6 C      122   1 H                                       1.0865727
    19   6 C      123   1 H                                       1.0742427 (min)
    20   6 C      124   1 H                                       1.0743364
    21   6 C      125   1 H                                       1.0869295
    22   6 C      126   1 H                                       1.0891666
    22   6 C      127   1 H                                       1.0889150
    23   6 C      128   1 H                                       1.0883739
    25   6 C      129   1 H                                       1.0745836
    28   6 C      130   1 H                                       1.0928937
    28   6 C      131   1 H                                       1.0939168
    29   6 C      132   1 H                                       1.0866856
    29   6 C      133   1 H                                       1.0875283
    29   6 C      134   1 H                                       1.0868132
    33   6 C      135   1 H                                       1.0801753
    34   6 C      136   1 H                                       1.0803259
    35   6 C      137   1 H                                       1.0792913
    36   6 C      138   1 H                                       1.0796364
    38   6 C      139   1 H                                       1.0793490
    43   6 C      140   1 H                                       1.0798277
    44   6 C      141   1 H                                       1.0779709
    47   6 C      142   1 H                                       1.0861606
    47   6 C      143   1 H                                       1.0861411
    47   6 C      144   1 H                                       1.0859098
    48   6 C      145   1 H                                       1.0787655
    49   6 C      146   1 H                                       1.0800065
    51   6 C      147   1 H                                       1.0794962
    52   6 C      148   1 H                                       1.0792354
    55   6 C      149   1 H                                       1.0860390
    55   6 C      150   1 H                                       1.0855623
    55   6 C      151   1 H                                       1.0863201
    56   6 C      152   1 H                                       1.0781262
    57   6 C      153   1 H                                       1.0802861
    64   6 C      154   1 H                                       1.0791509
    65   6 C      155   1 H                                       1.0788794
    68   6 C      156   1 H                                       1.0852479
    68   6 C      157   1 H                                       1.0854004
    68   6 C      158   1 H                                       1.0855646
    69   6 C      159   1 H                                       1.0780364
    70   6 C      160   1 H                                       1.0808258
    72   6 C      161   1 H                                       1.0799866
    73   6 C      162   1 H                                       1.0779723
    76   6 C      163   1 H                                       1.0861896
    76   6 C      164   1 H                                       1.0855959
    76   6 C      165   1 H                                       1.0860564
    77   6 C      166   1 H                                       1.0791541
    78   6 C      167   1 H                                       1.0802058
    82   6 C      168   1 H                                       1.0789116
    85   6 C      169   1 H                                       1.0924556
    85   6 C      170   1 H                                       1.0931103
    86   6 C      171   1 H                                       1.0875080
    86   6 C      172   1 H                                       1.0865709
    86   6 C      173   1 H                                       1.0876506
    90   6 C      174   1 H                                       1.0788199
    91   6 C      175   1 H                                       1.0798512
    92   6 C      176   1 H                                       1.0786803
    93   6 C      177   1 H                                       1.0753724
    95   6 C      178   1 H                                       1.0810030
    96   6 C      179   1 H                                       1.0856507
   101   6 C      180   1 H                                       1.0794400
   103   6 C      181   1 H                                       1.0787682
   108   6 C      182   1 H                                       1.0788492
   110   6 C      183   1 H                                       1.0780450

 * 6 distinct bonds (by element types)

   Z      Z             #   av. dist./Å        max./Å        min./Å
   1 H    6 C          66     1.0826942     1.0939168     1.0742427
   6 C    6 C          88     1.4069925     1.5612892     1.3262970
   6 C    7 N          16     1.3338049     1.4397110     1.1480705
   6 C    8 O           2     1.2127585     1.2135560     1.2119609
   6 C    9 F           1     1.3403216     1.3403216     1.3403216
   6 C   16 S           4     1.7408774     1.7554612     1.7276296


optimized geometry written to: xtbopt.mol


           -------------------------------------------------
          | TOTAL ENERGY             -306.041729905895 Eh   |
          | GRADIENT NORM               0.000585810777 Eh/α |
          | HOMO-LUMO GAP               0.312963849422 eV   |
           -------------------------------------------------

------------------------------------------------------------------------
 * finished run on 2022/02/04 at 21:45:56.483     
------------------------------------------------------------------------
 total:
 * wall-time:     0 d,  0 h,  2 min, 32.786 sec
 *  cpu-time:     0 d,  0 h, 20 min, 22.104 sec
 * ratio c/w:     7.999 speedup
 SCF:
 * wall-time:     0 d,  0 h,  0 min,  0.625 sec
 *  cpu-time:     0 d,  0 h,  0 min,  4.996 sec
 * ratio c/w:     7.994 speedup
 ANC optimizer:
 * wall-time:     0 d,  0 h,  2 min, 32.055 sec
 *  cpu-time:     0 d,  0 h, 20 min, 16.353 sec
 * ratio c/w:     7.999 speedup

