      -----------------------------------------------------------      
     |                   =====================                   |     
     |                           x T B                           |     
     |                   =====================                   |     
     |                         S. Grimme                         |     
     |          Mulliken Center for Theoretical Chemistry        |     
     |                    University of Bonn                     |     
      -----------------------------------------------------------      

   * xtb version 6.4.1 (unknown) compiled by 'oda6@login1.crc.pitt.edu' on 2021-06-25

   xtb is free software: you can redistribute it and/or modify it under
   the terms of the GNU Lesser General Public License as published by
   the Free Software Foundation, either version 3 of the License, or
   (at your option) any later version.
   
   xtb is distributed in the hope that it will be useful,
   but WITHOUT ANY WARRANTY; without even the implied warranty of
   MERCHANTABILITY or FITNESS FOR A PARTICULAR PURPOSE.  See the
   GNU Lesser General Public License for more details.
   
   Cite this work as:
   * C. Bannwarth, E. Caldeweyher, S. Ehlert, A. Hansen, P. Pracht,
     J. Seibert, S. Spicher, S. Grimme, WIREs Comput. Mol. Sci., 2020, 11,
     e01493. DOI: 10.1002/wcms.1493
   
   for GFN2-xTB:
   * C. Bannwarth, S. Ehlert and S. Grimme., J. Chem. Theory Comput., 2019,
     15, 1652-1671. DOI: 10.1021/acs.jctc.8b01176
   for GFN1-xTB:
   * S. Grimme, C. Bannwarth, P. Shushkov, J. Chem. Theory Comput., 2017,
     13, 1989-2009. DOI: 10.1021/acs.jctc.7b00118
   for GFN0-xTB:
   * P. Pracht, E. Caldeweyher, S. Ehlert, S. Grimme, ChemRxiv, 2019, preprint.
     DOI: 10.26434/chemrxiv.8326202.v1
   for GFN-FF:
   * S. Spicher and S. Grimme, Angew. Chem. Int. Ed., 2020, 59, 15665-15673.
     DOI: 10.1002/anie.202004239
   
   for DFT-D4:
   * E. Caldeweyher, C. Bannwarth and S. Grimme, J. Chem. Phys., 2017,
     147, 034112. DOI: 10.1063/1.4993215
   * E. Caldeweyher, S. Ehlert, A. Hansen, H. Neugebauer, S. Spicher,
     C. Bannwarth and S. Grimme, J. Chem. Phys., 2019, 150, 154122.
     DOI: 10.1063/1.5090222
   * E. Caldeweyher, J.-M. Mewes, S. Ehlert and S. Grimme, Phys. Chem. Chem. Phys.
     2020, 22, 8499-8512. DOI: 10.1039/D0CP00502A
   
   for sTDA-xTB:
   * S. Grimme and C. Bannwarth, J. Chem. Phys., 2016, 145, 054103.
     DOI: 10.1063/1.4959605
   
   in the mass-spec context:
   * V. Asgeirsson, C. Bauer and S. Grimme, Chem. Sci., 2017, 8, 4879.
     DOI: 10.1039/c7sc00601b
   * J. Koopman and S. Grimme, ACS Omega 2019, 4, 12, 15120-15133.
     DOI: 10.1021/acsomega.9b02011
   
   for metadynamics refer to:
   * S. Grimme, J. Chem. Theory Comput., 2019, 155, 2847-2862
     DOI: 10.1021/acs.jctc.9b00143
   
   for SPH calculations refer to:
   * S. Spicher and S. Grimme, J. Chem. Theory Comput., 2021, 17, 1701-1714
     DOI: 10.1021/acs.jctc.0c01306
   
   with help from (in alphabetical order)
   P. Atkinson, C. Bannwarth, F. Bohle, G. Brandenburg, E. Caldeweyher
   M. Checinski, S. Dohm, S. Ehlert, S. Ehrlich, I. Gerasimov, J. Koopman
   C. Lavigne, S. Lehtola, F. März, M. Müller, F. Musil, H. Neugebauer
   J. Pisarek, C. Plett, P. Pracht, J. Seibert, P. Shushkov, S. Spicher
   M. Stahn, M. Steiner, T. Strunk, J. Stückrath, T. Rose, and J. Unsleber
   
 * started run on 2022/02/16 at 16:16:26.506     

           -------------------------------------------------
          |                Calculation Setup                |
           -------------------------------------------------

          program call               : /ihome/ghutchison/oda6/xtb/xtb-641/bin/xtb ../../FF_optimized/39_3_51_130_39.mol -opt
          hostname                   : smp-n25
          coordinate file            : ../../FF_optimized/39_3_51_130_39.mol
          omp threads                :                     8
          number of atoms            :                   218
          number of electrons        :                   648
          charge                     :                     0
          spin                       :                   0.0
          first test random number   :      0.94873569423451

   ID    Z sym.   atoms
    1    6 C      1-3, 5-13, 15, 17-26, 28-50, 52-60, 62-64, 66, 67, 69, 70,
                  72-75, 77-83, 85-88, 90, 91, 93-96, 98-104, 106-109,
                  111-113, 115-123, 125, 127-133
    2    8 O      4, 114
    3    7 N      14, 16, 27, 71, 92, 124, 126
    4   16 S      51, 61, 65, 68, 76, 84, 89, 97, 105, 110
    5    1 H      134-218
########################################################################
[WARNING] Please study the warnings concerning your input carefully
-1- prog_main_parseArguments: the use of '-opt' is discouraged, please use '--opt' next time
########################################################################

           -------------------------------------------------
          |                 G F N 2 - x T B                 |
           -------------------------------------------------

        Reference                      10.1021/acs.jctc.8b01176
      * Hamiltonian:
        H0-scaling (s, p, d)           1.850000    2.230000    2.230000
        zeta-weighting                 0.500000
      * Dispersion:
        s8                             2.700000
        a1                             0.520000
        a2                             5.000000
        s9                             5.000000
      * Repulsion:
        kExp                           1.500000    1.000000
        rExp                           1.000000
      * Coulomb:
        alpha                          2.000000
        third order                    shell-resolved
        anisotropic                    true
        a3                             3.000000
        a5                             4.000000
        cn-shift                       1.200000
        cn-exp                         4.000000
        max-rad                        5.000000


          ...................................................
          :                      SETUP                      :
          :.................................................:
          :  # basis functions                 677          :
          :  # atomic orbitals                 667          :
          :  # shells                          361          :
          :  # electrons                       648          :
          :  max. iterations                   250          :
          :  Hamiltonian                  GFN2-xTB          :
          :  restarted?                      false          :
          :  GBSA solvation                  false          :
          :  PC potential                    false          :
          :  electronic temp.          300.0000000     K    :
          :  accuracy                    1.0000000          :
          :  -> integral cutoff          0.2500000E+02      :
          :  -> integral neglect         0.1000000E-07      :
          :  -> SCF convergence          0.1000000E-05 Eh   :
          :  -> wf. convergence          0.1000000E-03 e    :
          :  Broyden damping             0.4000000          :
          ...................................................

 iter      E             dE          RMSdq      gap      omega  full diag
   1   -353.2210258 -0.353221E+03  0.454E+00    1.09       0.0  T
   2   -353.4524937 -0.231468E+00  0.273E+00    1.06       1.0  T
   3   -353.0284951  0.423999E+00  0.183E+00    0.45       1.0  T
   4   -353.5430152 -0.514520E+00  0.648E-01    0.70       1.0  T
   5   -353.6101654 -0.671502E-01  0.209E-01    0.54       1.0  T
   6   -353.6123401 -0.217465E-02  0.112E-01    0.63       1.0  T
   7   -353.6141120 -0.177189E-02  0.506E-02    0.64       1.0  T
   8   -353.6145220 -0.410080E-03  0.234E-02    0.65       1.0  T
   9   -353.6145792 -0.571895E-04  0.121E-02    0.66       1.0  T
  10   -353.6145910 -0.117900E-04  0.578E-03    0.65       1.2  T
  11   -353.6145945 -0.352991E-05  0.230E-03    0.65       2.9  T
  12   -353.6145951 -0.535059E-06  0.124E-03    0.65       5.5  T
  13   -353.6145952 -0.109031E-06  0.617E-04    0.65      11.0  T
  14   -353.6145952 -0.302278E-07  0.310E-04    0.65      21.8  T

   *** convergence criteria satisfied after 14 iterations ***

         #    Occupation            Energy/Eh            Energy/eV
      -------------------------------------------------------------
         1        2.0000           -0.7573300             -20.6080
       ...           ...                  ...                  ...
       318        2.0000           -0.3696826             -10.0596
       319        2.0000           -0.3679098             -10.0113
       320        2.0000           -0.3614538              -9.8357
       321        2.0000           -0.3608752              -9.8199
       322        2.0000           -0.3588663              -9.7653
       323        2.0000           -0.3580939              -9.7442
       324        2.0000           -0.3573365              -9.7236 (HOMO)
       325        0.0000           -0.3333221              -9.0702 (LUMO)
       326        0.0000           -0.3300847              -8.9821
       327                         -0.3237388              -8.8094
       328                         -0.3217840              -8.7562
       329                         -0.2957066              -8.0466
       ...                                ...                  ...
       667                          1.0731838              29.2028
      -------------------------------------------------------------
                  HL-Gap            0.0240144 Eh            0.6535 eV
             Fermi-level           -0.3450962 Eh           -9.3905 eV

 SCC (total)                   0 d,  0 h,  0 min,  0.996 sec
 SCC setup                      ...        0 min,  0.004 sec (  0.380%)
 Dispersion                     ...        0 min,  0.011 sec (  1.132%)
 classical contributions        ...        0 min,  0.000 sec (  0.048%)
 integral evaluation            ...        0 min,  0.044 sec (  4.417%)
 iterations                     ...        0 min,  0.758 sec ( 76.077%)
 molecular gradient             ...        0 min,  0.172 sec ( 17.280%)
 printout                       ...        0 min,  0.007 sec (  0.655%)

         :::::::::::::::::::::::::::::::::::::::::::::::::::::
         ::                     SUMMARY                     ::
         :::::::::::::::::::::::::::::::::::::::::::::::::::::
         :: total energy            -348.196631771997 Eh    ::
         :: gradient norm              0.350964509882 Eh/a0 ::
         :: HOMO-LUMO gap              0.653465893784 eV    ::
         ::.................................................::
         :: SCC energy              -353.614595214991 Eh    ::
         :: -> isotropic ES            0.119400382747 Eh    ::
         :: -> anisotropic ES          0.030820007344 Eh    ::
         :: -> anisotropic XC          0.234183447178 Eh    ::
         :: -> dispersion             -0.358766852994 Eh    ::
         :: repulsion energy           5.399880585937 Eh    ::
         :: add. restraining           0.000000000000 Eh    ::
         :: total charge               0.000000000001 e     ::
         :::::::::::::::::::::::::::::::::::::::::::::::::::::

      ----------------------------------------------------------- 
     |                   =====================                   |
     |                        A N C O P T                        |
     |                   =====================                   |
     |               Approximate Normal Coordinate               |
     |                Rational Function Optimizer                |
      ----------------------------------------------------------- 

          ...................................................
          :                      SETUP                      :
          :.................................................:
          :   optimization level            normal          :
          :   max. optcycles                   654          :
          :   ANC micro-cycles                  20          :
          :   degrees of freedom               648          :
          :.................................................:
          :   RF solver                   davidson          :
          :   write xtbopt.log                true          :
          :   linear?                        false          :
          :   energy convergence         0.5000000E-05 Eh   :
          :   grad. convergence          0.1000000E-02 Eh/α :
          :   maximium RF displ.         1.0000000          :
          :   Hlow (freq-cutoff)         0.1000000E-01      :
          :   Hmax (freq-cutoff)         5.0000000          :
          :   S6 in model hess.         20.0000000          :
          ...................................................

generating ANC from model Hessian ...
Using Lindh-Hessian (1995)
 Shifting diagonal of input Hessian by   1.000159481511007E-002
 Lowest  eigenvalues of input Hessian
    0.010000    0.000000    0.000000    0.000000    0.000000    0.000000
    0.000000    0.010010    0.010031    0.010039    0.010042    0.010048
    0.010049    0.010072    0.010081    0.010104    0.010112    0.010144
 Highest eigenvalues
    2.205744    2.216892    2.497831    2.502691    2.549704    2.554761
 

........................................................................
.............................. CYCLE    1 ..............................
........................................................................
   1   -353.6145952 -0.353615E+03  0.148E-04    0.65       0.0  T
   2   -353.6145952  0.112050E-08  0.140E-04    0.65      48.2  T
   3   -353.6145952 -0.384881E-08  0.617E-05    0.65     109.7  T
     SCC iter.                  ...        0 min,  0.172 sec
     gradient                   ...        0 min,  0.168 sec
 * total energy  :  -348.1966318 Eh     change       -0.1120924E-07 Eh
   gradient norm :     0.3509628 Eh/α   predicted     0.0000000E+00 (-100.00%)
   displ. norm   :     0.4787536 α      lambda       -0.1201730E+00
   maximum displ.:     0.0957396 α      in ANC's #185, #220, #453, ...

........................................................................
.............................. CYCLE    2 ..............................
........................................................................
   1   -353.8504218 -0.353850E+03  0.234E-01    0.68       0.0  T
   2   -353.8518683 -0.144649E-02  0.146E-01    0.68       1.0  T
   3   -353.8517352  0.133126E-03  0.849E-02    0.69       1.0  T
   4   -353.8524231 -0.687913E-03  0.364E-02    0.67       1.0  T
   5   -353.8526715 -0.248406E-03  0.149E-02    0.69       1.0  T
   6   -353.8527029 -0.313994E-04  0.633E-03    0.69       1.1  T
   7   -353.8527079 -0.506023E-05  0.283E-03    0.68       2.4  T
   8   -353.8527093 -0.134798E-05  0.118E-03    0.69       5.7  T
   9   -353.8527094 -0.630191E-07  0.668E-04    0.69      10.1  T
  10   -353.8527094 -0.245842E-07  0.330E-04    0.69      20.5  T
     SCC iter.                  ...        0 min,  0.543 sec
     gradient                   ...        0 min,  0.169 sec
 * total energy  :  -348.2852137 Eh     change       -0.8858194E-01 Eh
   gradient norm :     0.1689213 Eh/α   predicted    -0.7389650E-01 ( -16.58%)
   displ. norm   :     0.4937311 α      lambda       -0.5352783E-01
   maximum displ.:     0.1033858 α      in ANC's #185, #126, #121, ...

........................................................................
.............................. CYCLE    3 ..............................
........................................................................
   1   -353.9977649 -0.353998E+03  0.209E-01    0.67       0.0  T
   2   -353.9988778 -0.111286E-02  0.128E-01    0.66       1.0  T
   3   -353.9987610  0.116732E-03  0.802E-02    0.67       1.0  T
   4   -353.9994596 -0.698625E-03  0.366E-02    0.65       1.0  T
   5   -353.9997407 -0.281022E-03  0.153E-02    0.66       1.0  T
   6   -353.9997773 -0.366546E-04  0.566E-03    0.66       1.2  T
   7   -353.9997806 -0.327931E-05  0.263E-03    0.66       2.6  T
   8   -353.9997817 -0.111356E-05  0.109E-03    0.66       6.2  T
   9   -353.9997818 -0.557912E-07  0.639E-04    0.66      10.6  T
  10   -353.9997818 -0.202363E-07  0.321E-04    0.66      21.1  T
     SCC iter.                  ...        0 min,  0.523 sec
     gradient                   ...        0 min,  0.168 sec
 * total energy  :  -348.3193896 Eh     change       -0.3417584E-01 Eh
   gradient norm :     0.0476481 Eh/α   predicted    -0.3328818E-01 (  -2.60%)
   displ. norm   :     0.5268737 α      lambda       -0.1436517E-01
   maximum displ.:     0.1311024 α      in ANC's #126, #121, #114, ...

........................................................................
.............................. CYCLE    4 ..............................
........................................................................
   1   -354.0455831 -0.354046E+03  0.136E-01    0.67       0.0  T
   2   -354.0456878 -0.104645E-03  0.826E-02    0.66       1.0  T
   3   -354.0450727  0.615109E-03  0.579E-02    0.67       1.0  T
   4   -354.0458708 -0.798091E-03  0.167E-02    0.66       1.0  T
   5   -354.0459361 -0.653784E-04  0.738E-03    0.66       1.0  T
   6   -354.0459448 -0.864058E-05  0.265E-03    0.66       2.6  T
   7   -354.0459453 -0.527841E-06  0.131E-03    0.66       5.2  T
   8   -354.0459456 -0.259728E-06  0.584E-04    0.66      11.6  T
   9   -354.0459456 -0.118930E-07  0.359E-04    0.66      18.9  T
     SCC iter.                  ...        0 min,  0.472 sec
     gradient                   ...        0 min,  0.168 sec
 * total energy  :  -348.3292151 Eh     change       -0.9825549E-02 Eh
   gradient norm :     0.0254992 Eh/α   predicted    -0.9176474E-02 (  -6.61%)
   displ. norm   :     0.6736686 α      lambda       -0.1020539E-01
   maximum displ.:     0.1660199 α      in ANC's #42, #126, #121, ...

........................................................................
.............................. CYCLE    5 ..............................
........................................................................
   1   -354.0531776 -0.354053E+03  0.292E-01    0.63       0.0  T
   2   -354.0533890 -0.211408E-03  0.164E-01    0.64       1.0  T
   3   -354.0513419  0.204706E-02  0.802E-02    0.64       1.0  T
   4   -354.0536117 -0.226980E-02  0.138E-02    0.64       1.0  T
   5   -354.0536427 -0.310269E-04  0.777E-03    0.64       1.0  T
   6   -354.0536501 -0.741847E-05  0.308E-03    0.64       2.2  T
   7   -354.0536510 -0.829523E-06  0.137E-03    0.64       5.0  T
   8   -354.0536513 -0.273188E-06  0.616E-04    0.64      11.0  T
   9   -354.0536513 -0.174817E-07  0.361E-04    0.64      18.8  T
     SCC iter.                  ...        0 min,  0.532 sec
     gradient                   ...        0 min,  0.169 sec
 * total energy  :  -348.3316070 Eh     change       -0.2391852E-02 Eh
   gradient norm :     0.0570908 Eh/α   predicted    -0.7418456E-02 ( 210.16%)
   displ. norm   :     0.4300932 α      lambda       -0.9456171E-02
   maximum displ.:     0.1163650 α      in ANC's #73, #19, #50, ...

........................................................................
.............................. CYCLE    6 ..............................
........................................................................
   1   -354.0752897 -0.354075E+03  0.220E-01    0.68       0.0  T
   2   -354.0754175 -0.127746E-03  0.122E-01    0.69       1.0  T
   3   -354.0750485  0.368950E-03  0.359E-02    0.67       1.0  T
   4   -354.0754803 -0.431823E-03  0.682E-03    0.68       1.0  T
   5   -354.0754856 -0.525067E-05  0.388E-03    0.69       1.7  T
   6   -354.0754876 -0.205990E-05  0.164E-03    0.69       4.1  T
   7   -354.0754880 -0.342852E-06  0.695E-04    0.69       9.7  T
   8   -354.0754881 -0.662595E-07  0.302E-04    0.69      22.5  T
     SCC iter.                  ...        0 min,  0.435 sec
     gradient                   ...        0 min,  0.167 sec
 * total energy  :  -348.3360631 Eh     change       -0.4456097E-02 Eh
   gradient norm :     0.0357900 Eh/α   predicted    -0.5602694E-02 (  25.73%)
   displ. norm   :     0.4239299 α      lambda       -0.3913781E-02
   maximum displ.:     0.1218814 α      in ANC's #50, #71, #42, ...

........................................................................
.............................. CYCLE    7 ..............................
........................................................................
   1   -354.0810632 -0.354081E+03  0.174E-01    0.68       0.0  T
   2   -354.0811451 -0.818900E-04  0.971E-02    0.69       1.0  T
   3   -354.0810014  0.143732E-03  0.255E-02    0.69       1.0  T
   4   -354.0811775 -0.176116E-03  0.589E-03    0.69       1.2  T
   5   -354.0811809 -0.344063E-05  0.352E-03    0.69       1.9  T
   6   -354.0811830 -0.208717E-05  0.147E-03    0.69       4.6  T
   7   -354.0811834 -0.326276E-06  0.609E-04    0.69      11.1  T
   8   -354.0811834 -0.474466E-07  0.263E-04    0.69      25.8  T
     SCC iter.                  ...        0 min,  0.431 sec
     gradient                   ...        0 min,  0.168 sec
 * total energy  :  -348.3370905 Eh     change       -0.1027454E-02 Eh
   gradient norm :     0.0283695 Eh/α   predicted    -0.2308579E-02 ( 124.69%)
   displ. norm   :     0.4165614 α      lambda       -0.3747101E-02
   maximum displ.:     0.1356277 α      in ANC's #42, #45, #48, ...

........................................................................
.............................. CYCLE    8 ..............................
........................................................................
   1   -354.0800384 -0.354080E+03  0.144E-01    0.69       0.0  T
   2   -354.0800843 -0.459529E-04  0.803E-02    0.70       1.0  T
   3   -354.0797631  0.321219E-03  0.348E-02    0.69       1.0  T
   4   -354.0801256 -0.362464E-03  0.497E-03    0.70       1.4  T
   5   -354.0801276 -0.196644E-05  0.310E-03    0.70       2.2  T
   6   -354.0801290 -0.140711E-05  0.123E-03    0.70       5.5  T
   7   -354.0801292 -0.266032E-06  0.507E-04    0.70      13.3  T
   8   -354.0801293 -0.343400E-07  0.228E-04    0.70      29.7  T
     SCC iter.                  ...        0 min,  0.436 sec
     gradient                   ...        0 min,  0.168 sec
 * total energy  :  -348.3394987 Eh     change       -0.2408154E-02 Eh
   gradient norm :     0.0257917 Eh/α   predicted    -0.2198655E-02 (  -8.70%)
   displ. norm   :     0.5790804 α      lambda       -0.3937494E-02
   maximum displ.:     0.2107543 α      in ANC's #42, #68, #45, ...

........................................................................
.............................. CYCLE    9 ..............................
........................................................................
   1   -354.0731950 -0.354073E+03  0.225E-01    0.67       0.0  T
   2   -354.0733424 -0.147354E-03  0.125E-01    0.70       1.0  T
   3   -354.0725374  0.804948E-03  0.564E-02    0.68       1.0  T
   4   -354.0734494 -0.912026E-03  0.804E-03    0.70       1.0  T
   5   -354.0734542 -0.471714E-05  0.535E-03    0.70       1.3  T
   6   -354.0734590 -0.488717E-05  0.192E-03    0.70       3.5  T
   7   -354.0734595 -0.455554E-06  0.927E-04    0.70       7.3  T
   8   -354.0734596 -0.127633E-06  0.390E-04    0.70      17.4  T
     SCC iter.                  ...        0 min,  0.433 sec
     gradient                   ...        0 min,  0.170 sec
 * total energy  :  -348.3395257 Eh     change       -0.2699216E-04 Eh
   gradient norm :     0.0581382 Eh/α   predicted    -0.2628936E-02 (9639.63%)
   displ. norm   :     0.3377280 α      lambda       -0.5163054E-02
   maximum displ.:     0.1068878 α      in ANC's #50, #43, #45, ...

........................................................................
.............................. CYCLE   10 ..............................
........................................................................
   1   -354.0923136 -0.354092E+03  0.160E-01    0.71       0.0  T
   2   -354.0923952 -0.815392E-04  0.886E-02    0.72       1.0  T
   3   -354.0922586  0.136554E-03  0.268E-02    0.72       1.0  T
   4   -354.0924268 -0.168156E-03  0.530E-03    0.71       1.3  T
   5   -354.0924308 -0.401269E-05  0.295E-03    0.72       2.3  T
   6   -354.0924322 -0.145030E-05  0.121E-03    0.72       5.6  T
   7   -354.0924324 -0.172042E-06  0.581E-04    0.72      11.6  T
   8   -354.0924325 -0.639980E-07  0.232E-04    0.72      29.2  T
     SCC iter.                  ...        0 min,  0.427 sec
     gradient                   ...        0 min,  0.167 sec
 * total energy  :  -348.3422492 Eh     change       -0.2723504E-02 Eh
   gradient norm :     0.0147600 Eh/α   predicted    -0.2875996E-02 (   5.60%)
   displ. norm   :     0.4983687 α      lambda       -0.2112989E-02
   maximum displ.:     0.1707463 α      in ANC's #42, #45, #39, ...

........................................................................
.............................. CYCLE   11 ..............................
........................................................................
   1   -354.0886318 -0.354089E+03  0.118E-01    0.71       0.0  T
   2   -354.0886704 -0.386308E-04  0.662E-02    0.73       1.0  T
   3   -354.0884902  0.180190E-03  0.274E-02    0.72       1.0  T
   4   -354.0886911 -0.200872E-03  0.575E-03    0.73       1.2  T
   5   -354.0886933 -0.224200E-05  0.346E-03    0.73       2.0  T
   6   -354.0886955 -0.216087E-05  0.126E-03    0.73       5.4  T
   7   -354.0886957 -0.218274E-06  0.619E-04    0.73      10.9  T
   8   -354.0886958 -0.658962E-07  0.249E-04    0.73      27.2  T
     SCC iter.                  ...        0 min,  0.454 sec
     gradient                   ...        0 min,  0.168 sec
 * total energy  :  -348.3434139 Eh     change       -0.1164702E-02 Eh
   gradient norm :     0.0246513 Eh/α   predicted    -0.1318898E-02 (  13.24%)
   displ. norm   :     0.6028872 α      lambda       -0.2148412E-02
   maximum displ.:     0.1794300 α      in ANC's #42, #39, #50, ...

........................................................................
.............................. CYCLE   12 ..............................
........................................................................
   1   -354.0830464 -0.354083E+03  0.129E-01    0.72       0.0  T
   2   -354.0830914 -0.449381E-04  0.719E-02    0.74       1.0  T
   3   -354.0827852  0.306182E-03  0.331E-02    0.73       1.0  T
   4   -354.0831216 -0.336442E-03  0.718E-03    0.74       1.0  T
   5   -354.0831276 -0.593666E-05  0.414E-03    0.74       1.6  T
   6   -354.0831304 -0.282276E-05  0.139E-03    0.74       4.9  T
   7   -354.0831307 -0.267946E-06  0.607E-04    0.74      11.2  T
   8   -354.0831307 -0.475035E-07  0.276E-04    0.74      24.6  T
     SCC iter.                  ...        0 min,  0.439 sec
     gradient                   ...        0 min,  0.168 sec
 * total energy  :  -348.3448546 Eh     change       -0.1440764E-02 Eh
   gradient norm :     0.0228272 Eh/α   predicted    -0.1464651E-02 (   1.66%)
   displ. norm   :     0.6046749 α      lambda       -0.2098424E-02
   maximum displ.:     0.1648016 α      in ANC's #42, #39, #50, ...

........................................................................
.............................. CYCLE   13 ..............................
........................................................................
   1   -354.0958633 -0.354096E+03  0.103E-01    0.73       0.0  T
   2   -354.0958935 -0.301630E-04  0.573E-02    0.74       1.0  T
   3   -354.0957373  0.156183E-03  0.269E-02    0.74       1.0  T
   4   -354.0959106 -0.173298E-03  0.715E-03    0.74       1.0  T
   5   -354.0959156 -0.501086E-05  0.434E-03    0.74       1.6  T
   6   -354.0959195 -0.392129E-05  0.142E-03    0.74       4.8  T
   7   -354.0959200 -0.438525E-06  0.575E-04    0.74      11.8  T
   8   -354.0959200 -0.584442E-07  0.234E-04    0.74      28.9  T
     SCC iter.                  ...        0 min,  0.432 sec
     gradient                   ...        0 min,  0.168 sec
 * total energy  :  -348.3463388 Eh     change       -0.1484196E-02 Eh
   gradient norm :     0.0126299 Eh/α   predicted    -0.1432840E-02 (  -3.46%)
   displ. norm   :     0.6723535 α      lambda       -0.1441841E-02
   maximum displ.:     0.1880976 α      in ANC's #42, #39, #46, ...

........................................................................
.............................. CYCLE   14 ..............................
........................................................................
   1   -354.0942607 -0.354094E+03  0.109E-01    0.73       0.0  T
   2   -354.0942909 -0.302618E-04  0.602E-02    0.75       1.0  T
   3   -354.0941492  0.141754E-03  0.237E-02    0.74       1.0  T
   4   -354.0943004 -0.151178E-03  0.798E-03    0.75       1.0  T
   5   -354.0943082 -0.782421E-05  0.445E-03    0.75       1.5  T
   6   -354.0943120 -0.385332E-05  0.125E-03    0.75       5.4  T
   7   -354.0943123 -0.282552E-06  0.544E-04    0.75      12.5  T
   8   -354.0943124 -0.496647E-07  0.238E-04    0.75      28.4  T
     SCC iter.                  ...        0 min,  0.433 sec
     gradient                   ...        0 min,  0.168 sec
 * total energy  :  -348.3475604 Eh     change       -0.1221580E-02 Eh
   gradient norm :     0.0114508 Eh/α   predicted    -0.1046822E-02 ( -14.31%)
   displ. norm   :     0.6997553 α      lambda       -0.1483151E-02
   maximum displ.:     0.1867827 α      in ANC's #46, #39, #22, ...

........................................................................
.............................. CYCLE   15 ..............................
........................................................................
   1   -354.1007154 -0.354101E+03  0.113E-01    0.74       0.0  T
   2   -354.1007459 -0.305315E-04  0.617E-02    0.75       1.0  T
   3   -354.1006819  0.640618E-04  0.191E-02    0.74       1.0  T
   4   -354.1007538 -0.719172E-04  0.750E-03    0.75       1.0  T
   5   -354.1007581 -0.432774E-05  0.363E-03    0.75       1.9  T
   6   -354.1007604 -0.226006E-05  0.943E-04    0.75       7.2  T
   7   -354.1007605 -0.131172E-06  0.392E-04    0.75      17.3  T
   8   -354.1007605 -0.153177E-07  0.207E-04    0.75      32.8  T
     SCC iter.                  ...        0 min,  0.442 sec
     gradient                   ...        0 min,  0.169 sec
 * total energy  :  -348.3487647 Eh     change       -0.1204259E-02 Eh
   gradient norm :     0.0095123 Eh/α   predicted    -0.1104698E-02 (  -8.27%)
   displ. norm   :     0.7309278 α      lambda       -0.1293688E-02
   maximum displ.:     0.2061247 α      in ANC's #46, #9, #39, ...

........................................................................
.............................. CYCLE   16 ..............................
........................................................................
   1   -354.0965316 -0.354097E+03  0.116E-01    0.74       0.0  T
   2   -354.0965659 -0.343639E-04  0.628E-02    0.76       1.0  T
   3   -354.0965079  0.580408E-04  0.188E-02    0.75       1.0  T
   4   -354.0965717 -0.637840E-04  0.811E-03    0.76       1.0  T
   5   -354.0965765 -0.486114E-05  0.422E-03    0.76       1.6  T
   6   -354.0965802 -0.369590E-05  0.124E-03    0.76       5.4  T
   7   -354.0965806 -0.345144E-06  0.513E-04    0.76      13.2  T
   8   -354.0965806 -0.516935E-07  0.234E-04    0.76      28.9  T
     SCC iter.                  ...        0 min,  0.438 sec
     gradient                   ...        0 min,  0.168 sec
 * total energy  :  -348.3498009 Eh     change       -0.1036272E-02 Eh
   gradient norm :     0.0117514 Eh/α   predicted    -0.9924266E-03 (  -4.23%)
   displ. norm   :     0.6913952 α      lambda       -0.1127149E-02
   maximum displ.:     0.1934467 α      in ANC's #46, #6, #9, ...

........................................................................
.............................. CYCLE   17 ..............................
........................................................................
   1   -354.0981698 -0.354098E+03  0.106E-01    0.75       0.0  T
   2   -354.0981968 -0.270152E-04  0.565E-02    0.75       1.0  T
   3   -354.0981418  0.549941E-04  0.172E-02    0.75       1.0  T
   4   -354.0981989 -0.570994E-04  0.786E-03    0.76       1.0  T
   5   -354.0982056 -0.668124E-05  0.388E-03    0.76       1.7  T
   6   -354.0982088 -0.318654E-05  0.108E-03    0.76       6.2  T
   7   -354.0982090 -0.240893E-06  0.457E-04    0.76      14.8  T
   8   -354.0982090 -0.346276E-07  0.207E-04    0.76      32.7  T
     SCC iter.                  ...        0 min,  0.437 sec
     gradient                   ...        0 min,  0.168 sec
 * total energy  :  -348.3507101 Eh     change       -0.9091824E-03 Eh
   gradient norm :     0.0093979 Eh/α   predicted    -0.8329799E-03 (  -8.38%)
   displ. norm   :     0.6771040 α      lambda       -0.9857124E-03
   maximum displ.:     0.2094220 α      in ANC's #9, #6, #46, ...

........................................................................
.............................. CYCLE   18 ..............................
........................................................................
   1   -354.1037091 -0.354104E+03  0.979E-02    0.75       0.0  T
   2   -354.1037328 -0.237180E-04  0.515E-02    0.75       1.0  T
   3   -354.1036803  0.525535E-04  0.167E-02    0.76       1.0  T
   4   -354.1037355 -0.552743E-04  0.735E-03    0.76       1.0  T
   5   -354.1037403 -0.476504E-05  0.406E-03    0.76       1.7  T
   6   -354.1037440 -0.367800E-05  0.104E-03    0.76       6.5  T
   7   -354.1037442 -0.232768E-06  0.378E-04    0.76      17.9  T
   8   -354.1037442 -0.200215E-07  0.178E-04    0.76      38.1  T
     SCC iter.                  ...        0 min,  0.438 sec
     gradient                   ...        0 min,  0.168 sec
 * total energy  :  -348.3515093 Eh     change       -0.7991715E-03 Eh
   gradient norm :     0.0116893 Eh/α   predicted    -0.7188196E-03 ( -10.05%)
   displ. norm   :     0.7291382 α      lambda       -0.1044387E-02
   maximum displ.:     0.2278495 α      in ANC's #9, #6, #46, ...

........................................................................
.............................. CYCLE   19 ..............................
........................................................................
   1   -354.0936487 -0.354094E+03  0.108E-01    0.74       0.0  T
   2   -354.0936811 -0.323451E-04  0.569E-02    0.75       1.0  T
   3   -354.0936450  0.360102E-04  0.162E-02    0.75       1.0  T
   4   -354.0936857 -0.406437E-04  0.765E-03    0.76       1.0  T
   5   -354.0936912 -0.546958E-05  0.330E-03    0.75       2.1  T
   6   -354.0936928 -0.162066E-05  0.989E-04    0.75       6.9  T
   7   -354.0936929 -0.162638E-06  0.362E-04    0.75      18.7  T
   8   -354.0936930 -0.147830E-07  0.179E-04    0.75      37.8  T
     SCC iter.                  ...        0 min,  0.433 sec
     gradient                   ...        0 min,  0.169 sec
 * total energy  :  -348.3523187 Eh     change       -0.8093777E-03 Eh
   gradient norm :     0.0126821 Eh/α   predicted    -0.7998158E-03 (  -1.18%)
   displ. norm   :     0.6631533 α      lambda       -0.1130356E-02
   maximum displ.:     0.2361496 α      in ANC's #9, #6, #16, ...

........................................................................
.............................. CYCLE   20 ..............................
........................................................................
   1   -354.1026741 -0.354103E+03  0.902E-02    0.74       0.0  T
   2   -354.1026946 -0.204752E-04  0.478E-02    0.75       1.0  T
   3   -354.1026532  0.414627E-04  0.149E-02    0.75       1.0  T
   4   -354.1026969 -0.437778E-04  0.672E-03    0.75       1.0  T
   5   -354.1027015 -0.457274E-05  0.360E-03    0.75       1.9  T
   6   -354.1027043 -0.275398E-05  0.103E-03    0.75       6.6  T
   7   -354.1027045 -0.220946E-06  0.390E-04    0.75      17.4  T
   8   -354.1027045 -0.137299E-07  0.215E-04    0.75      31.4  T
     SCC iter.                  ...        0 min,  0.440 sec
     gradient                   ...        0 min,  0.168 sec
 * total energy  :  -348.3531436 Eh     change       -0.8248843E-03 Eh
   gradient norm :     0.0124840 Eh/α   predicted    -0.8137310E-03 (  -1.35%)
   displ. norm   :     0.7090249 α      lambda       -0.1074710E-02
   maximum displ.:     0.2469017 α      in ANC's #9, #6, #22, ...
 * RMSD in coord.:     0.5771180 α      energy gain  -0.1565118E+00 Eh

generating ANC from model Hessian ...
Using Lindh-Hessian (1995)
 Shifting diagonal of input Hessian by   1.000903114918431E-002
 Lowest  eigenvalues of input Hessian
    0.010000    0.000000    0.000000    0.000000    0.000000    0.000000
    0.000000    0.010018    0.010034    0.010046    0.010055    0.010056
    0.010074    0.010078    0.010096    0.010129    0.010159    0.010177
 Highest eigenvalues
    2.264913    2.270992    2.615206    2.615323    2.646944    2.657309
 

........................................................................
.............................. CYCLE   21 ..............................
........................................................................
   1   -354.1016169 -0.354102E+03  0.963E-02    0.74       0.0  T
   2   -354.1016425 -0.256364E-04  0.497E-02    0.75       1.0  T
   3   -354.1016160  0.264702E-04  0.144E-02    0.75       1.0  T
   4   -354.1016448 -0.287543E-04  0.717E-03    0.75       1.0  T
   5   -354.1016492 -0.443578E-05  0.315E-03    0.75       2.2  T
   6   -354.1016511 -0.185877E-05  0.106E-03    0.75       6.4  T
   7   -354.1016513 -0.255332E-06  0.382E-04    0.75      17.7  T
   8   -354.1016514 -0.273125E-07  0.177E-04    0.75      38.3  T
     SCC iter.                  ...        0 min,  0.436 sec
     gradient                   ...        0 min,  0.168 sec
 * total energy  :  -348.3539433 Eh     change       -0.7997406E-03 Eh
   gradient norm :     0.0135702 Eh/α   predicted     0.0000000E+00 (-100.00%)
   displ. norm   :     0.1563752 α      lambda       -0.5503095E-03
   maximum displ.:     0.0485835 α      in ANC's #23, #21, #20, ...

........................................................................
.............................. CYCLE   22 ..............................
........................................................................
   1   -354.1020848 -0.354102E+03  0.510E-02    0.74       0.0  T
   2   -354.1020915 -0.664882E-05  0.282E-02    0.74       1.0  T
   3   -354.1020831  0.839846E-05  0.736E-03    0.74       1.0  T
   4   -354.1020943 -0.112562E-04  0.189E-03    0.75       3.6  T
   5   -354.1020945 -0.161002E-06  0.106E-03    0.75       6.4  T
   6   -354.1020947 -0.195708E-06  0.372E-04    0.75      18.2  T
   7   -354.1020947 -0.191216E-07  0.156E-04    0.75      43.3  T
     SCC iter.                  ...        0 min,  0.382 sec
     gradient                   ...        0 min,  0.168 sec
 * total energy  :  -348.3542817 Eh     change       -0.3384367E-03 Eh
   gradient norm :     0.0068315 Eh/α   predicted    -0.2818941E-03 ( -16.71%)
   displ. norm   :     0.4142108 α      lambda       -0.1068195E-02
   maximum displ.:     0.1219222 α      in ANC's #23, #21, #45, ...

........................................................................
.............................. CYCLE   23 ..............................
........................................................................
   1   -354.1031821 -0.354103E+03  0.108E-01    0.74       0.0  T
   2   -354.1032184 -0.362457E-04  0.594E-02    0.74       1.0  T
   3   -354.1031951  0.232720E-04  0.136E-02    0.74       1.0  T
   4   -354.1032312 -0.361646E-04  0.465E-03    0.74       1.5  T
   5   -354.1032324 -0.113542E-05  0.251E-03    0.74       2.7  T
   6   -354.1032335 -0.114726E-05  0.861E-04    0.74       7.9  T
   7   -354.1032336 -0.113504E-06  0.391E-04    0.74      17.3  T
   8   -354.1032337 -0.148646E-07  0.215E-04    0.74      31.5  T
     SCC iter.                  ...        0 min,  0.423 sec
     gradient                   ...        0 min,  0.168 sec
 * total energy  :  -348.3544403 Eh     change       -0.1585201E-03 Eh
   gradient norm :     0.0254412 Eh/α   predicted    -0.6257339E-03 ( 294.73%)
   displ. norm   :     0.2281161 α      lambda       -0.1062712E-02
   maximum displ.:     0.0669060 α      in ANC's #20, #21, #34, ...

........................................................................
.............................. CYCLE   24 ..............................
........................................................................
   1   -354.1079143 -0.354108E+03  0.829E-02    0.74       0.0  T
   2   -354.1079352 -0.208599E-04  0.455E-02    0.74       1.0  T
   3   -354.1079344  0.740437E-06  0.633E-03    0.74       1.1  T
   4   -354.1079419 -0.747219E-05  0.284E-03    0.74       2.4  T
   5   -354.1079428 -0.933365E-06  0.123E-03    0.74       5.5  T
   6   -354.1079431 -0.270103E-06  0.479E-04    0.74      14.1  T
   7   -354.1079431 -0.443257E-07  0.215E-04    0.74      31.5  T
     SCC iter.                  ...        0 min,  0.372 sec
     gradient                   ...        0 min,  0.168 sec
 * total energy  :  -348.3549046 Eh     change       -0.4643475E-03 Eh
   gradient norm :     0.0134122 Eh/α   predicted    -0.5590130E-03 (  20.39%)
   displ. norm   :     0.2909483 α      lambda       -0.1325383E-02
   maximum displ.:     0.0939325 α      in ANC's #23, #21, #20, ...

........................................................................
.............................. CYCLE   25 ..............................
........................................................................
   1   -354.1055069 -0.354106E+03  0.108E-01    0.74       0.0  T
   2   -354.1055373 -0.304210E-04  0.590E-02    0.74       1.0  T
   3   -354.1055205  0.168556E-04  0.118E-02    0.74       1.0  T
   4   -354.1055480 -0.275501E-04  0.415E-03    0.74       1.6  T
   5   -354.1055493 -0.130979E-05  0.194E-03    0.74       3.5  T
   6   -354.1055500 -0.680777E-06  0.728E-04    0.74       9.3  T
   7   -354.1055501 -0.836804E-07  0.350E-04    0.74      19.4  T
     SCC iter.                  ...        0 min,  0.386 sec
     gradient                   ...        0 min,  0.169 sec
 * total energy  :  -348.3549671 Eh     change       -0.6255128E-04 Eh
   gradient norm :     0.0212667 Eh/α   predicted    -0.7187962E-03 (1049.13%)
   displ. norm   :     0.2524562 α      lambda       -0.1277602E-02
   maximum displ.:     0.0686573 α      in ANC's #45, #20, #21, ...

........................................................................
.............................. CYCLE   26 ..............................
........................................................................
   1   -354.1060768 -0.354106E+03  0.861E-02    0.74       0.0  T
   2   -354.1060971 -0.202869E-04  0.471E-02    0.74       1.0  T
   3   -354.1060865  0.106242E-04  0.926E-03    0.74       1.0  T
   4   -354.1061048 -0.183371E-04  0.290E-03    0.74       2.3  T
   5   -354.1061055 -0.698439E-06  0.118E-03    0.74       5.8  T
   6   -354.1061058 -0.222418E-06  0.409E-04    0.74      16.6  T
   7   -354.1061058 -0.199587E-07  0.195E-04    0.74      34.7  T
     SCC iter.                  ...        0 min,  0.381 sec
     gradient                   ...        0 min,  0.168 sec
 * total energy  :  -348.3556537 Eh     change       -0.6865329E-03 Eh
   gradient norm :     0.0104130 Eh/α   predicted    -0.6795254E-03 (  -1.02%)
   displ. norm   :     0.4163999 α      lambda       -0.9966778E-03
   maximum displ.:     0.1314378 α      in ANC's #23, #21, #20, ...

........................................................................
.............................. CYCLE   27 ..............................
........................................................................
   1   -354.1033061 -0.354103E+03  0.913E-02    0.73       0.0  T
   2   -354.1033277 -0.216024E-04  0.495E-02    0.74       1.0  T
   3   -354.1033213  0.642238E-05  0.918E-03    0.74       1.0  T
   4   -354.1033330 -0.116921E-04  0.459E-03    0.74       1.5  T
   5   -354.1033348 -0.182286E-05  0.209E-03    0.74       3.2  T
   6   -354.1033359 -0.105808E-05  0.626E-04    0.74      10.8  T
   7   -354.1033359 -0.650618E-07  0.298E-04    0.74      22.7  T
   8   -354.1033359 -0.712225E-08  0.160E-04    0.74      42.4  T
     SCC iter.                  ...        0 min,  0.458 sec
     gradient                   ...        0 min,  0.168 sec
 * total energy  :  -348.3560756 Eh     change       -0.4219291E-03 Eh
   gradient norm :     0.0133431 Eh/α   predicted    -0.5847459E-03 (  38.59%)
   displ. norm   :     0.4495568 α      lambda       -0.7411987E-03
   maximum displ.:     0.1485033 α      in ANC's #23, #21, #20, ...

........................................................................
.............................. CYCLE   28 ..............................
........................................................................
   1   -354.1020070 -0.354102E+03  0.661E-02    0.73       0.0  T
   2   -354.1020194 -0.123419E-04  0.339E-02    0.73       1.0  T
   3   -354.1020167  0.262536E-05  0.726E-03    0.74       1.0  T
   4   -354.1020210 -0.429807E-05  0.418E-03    0.74       1.6  T
   5   -354.1020229 -0.185346E-05  0.137E-03    0.74       5.0  T
   6   -354.1020232 -0.290438E-06  0.459E-04    0.74      14.8  T
   7   -354.1020232 -0.288738E-07  0.208E-04    0.74      32.6  T
     SCC iter.                  ...        0 min,  0.400 sec
     gradient                   ...        0 min,  0.168 sec
 * total energy  :  -348.3566964 Eh     change       -0.6208337E-03 Eh
   gradient norm :     0.0089108 Eh/α   predicted    -0.4455009E-03 ( -28.24%)
   displ. norm   :     0.6553717 α      lambda       -0.1047108E-02
   maximum displ.:     0.2249209 α      in ANC's #23, #20, #21, ...

........................................................................
.............................. CYCLE   29 ..............................
........................................................................
   1   -354.1041878 -0.354104E+03  0.970E-02    0.73       0.0  T
   2   -354.1042121 -0.243336E-04  0.499E-02    0.73       1.0  T
   3   -354.1041995  0.126040E-04  0.115E-02    0.73       1.0  T
   4   -354.1042142 -0.146635E-04  0.654E-03    0.73       1.0  T
   5   -354.1042191 -0.491296E-05  0.241E-03    0.73       2.8  T
   6   -354.1042204 -0.124409E-05  0.881E-04    0.73       7.7  T
   7   -354.1042205 -0.175545E-06  0.382E-04    0.73      17.7  T
   8   -354.1042206 -0.188576E-07  0.182E-04    0.73      37.3  T
     SCC iter.                  ...        0 min,  0.443 sec
     gradient                   ...        0 min,  0.168 sec
 * total energy  :  -348.3574678 Eh     change       -0.7713825E-03 Eh
   gradient norm :     0.0094060 Eh/α   predicted    -0.7484342E-03 (  -2.97%)
   displ. norm   :     0.7055774 α      lambda       -0.8961484E-03
   maximum displ.:     0.2426860 α      in ANC's #23, #20, #21, ...

........................................................................
.............................. CYCLE   30 ..............................
........................................................................
   1   -354.1035462 -0.354104E+03  0.979E-02    0.72       0.0  T
   2   -354.1035703 -0.241400E-04  0.502E-02    0.73       1.0  T
   3   -354.1035522  0.181774E-04  0.123E-02    0.73       1.0  T
   4   -354.1035713 -0.191571E-04  0.689E-03    0.73       1.0  T
   5   -354.1035771 -0.573381E-05  0.287E-03    0.73       2.4  T
   6   -354.1035789 -0.189032E-05  0.921E-04    0.73       7.4  T
   7   -354.1035791 -0.199108E-06  0.368E-04    0.73      18.4  T
   8   -354.1035792 -0.163708E-07  0.175E-04    0.73      38.7  T
     SCC iter.                  ...        0 min,  0.438 sec
     gradient                   ...        0 min,  0.168 sec
 * total energy  :  -348.3581758 Eh     change       -0.7080076E-03 Eh
   gradient norm :     0.0139590 Eh/α   predicted    -0.6711509E-03 (  -5.21%)
   displ. norm   :     0.6851731 α      lambda       -0.9679968E-03
   maximum displ.:     0.2336085 α      in ANC's #23, #20, #13, ...

........................................................................
.............................. CYCLE   31 ..............................
........................................................................
   1   -354.1066858 -0.354107E+03  0.845E-02    0.72       0.0  T
   2   -354.1067031 -0.173367E-04  0.430E-02    0.72       1.0  T
   3   -354.1066668  0.363841E-04  0.136E-02    0.72       1.0  T
   4   -354.1067039 -0.371440E-04  0.665E-03    0.73       1.0  T
   5   -354.1067091 -0.521116E-05  0.318E-03    0.73       2.1  T
   6   -354.1067111 -0.202547E-05  0.917E-04    0.73       7.4  T
   7   -354.1067113 -0.179026E-06  0.320E-04    0.73      21.2  T
   8   -354.1067113 -0.135302E-07  0.153E-04    0.73      44.3  T
     SCC iter.                  ...        0 min,  0.439 sec
     gradient                   ...        0 min,  0.168 sec
 * total energy  :  -348.3590457 Eh     change       -0.8698992E-03 Eh
   gradient norm :     0.0111560 Eh/α   predicted    -0.7112242E-03 ( -18.24%)
   displ. norm   :     0.7364402 α      lambda       -0.1218710E-02
   maximum displ.:     0.2383926 α      in ANC's #23, #13, #8, ...

........................................................................
.............................. CYCLE   32 ..............................
........................................................................
   1   -354.1129228 -0.354113E+03  0.100E-01    0.71       0.0  T
   2   -354.1129476 -0.247990E-04  0.525E-02    0.72       1.0  T
   3   -354.1128847  0.629577E-04  0.170E-02    0.72       1.0  T
   4   -354.1129512 -0.664990E-04  0.755E-03    0.72       1.0  T
   5   -354.1129578 -0.660164E-05  0.398E-03    0.72       1.7  T
   6   -354.1129608 -0.304233E-05  0.111E-03    0.72       6.1  T
   7   -354.1129610 -0.246041E-06  0.429E-04    0.72      15.8  T
   8   -354.1129611 -0.223975E-07  0.213E-04    0.72      31.9  T
     SCC iter.                  ...        0 min,  0.438 sec
     gradient                   ...        0 min,  0.168 sec
 * total energy  :  -348.3600051 Eh     change       -0.9594149E-03 Eh
   gradient norm :     0.0077512 Eh/α   predicted    -0.9398371E-03 (  -2.04%)
   displ. norm   :     0.8730515 α      lambda       -0.1263830E-02
   maximum displ.:     0.2809961 α      in ANC's #23, #13, #21, ...

........................................................................
.............................. CYCLE   33 ..............................
........................................................................
   1   -354.0993993 -0.354099E+03  0.123E-01    0.72       0.0  T
   2   -354.0994417 -0.424427E-04  0.619E-02    0.72       1.0  T
   3   -354.0994046  0.371513E-04  0.167E-02    0.72       1.0  T
   4   -354.0994440 -0.393962E-04  0.888E-03    0.72       1.0  T
   5   -354.0994519 -0.794066E-05  0.437E-03    0.72       1.5  T
   6   -354.0994557 -0.372539E-05  0.168E-03    0.72       4.0  T
   7   -354.0994564 -0.720671E-06  0.463E-04    0.72      14.6  T
   8   -354.0994564 -0.176266E-07  0.256E-04    0.72      26.5  T
     SCC iter.                  ...        0 min,  0.441 sec
     gradient                   ...        0 min,  0.169 sec
 * total energy  :  -348.3607266 Eh     change       -0.7214005E-03 Eh
   gradient norm :     0.0182933 Eh/α   predicted    -0.1113574E-02 (  54.36%)
   displ. norm   :     0.6005290 α      lambda       -0.1135737E-02
   maximum displ.:     0.1887875 α      in ANC's #23, #13, #8, ...

........................................................................
.............................. CYCLE   34 ..............................
........................................................................
   1   -354.1036652 -0.354104E+03  0.746E-02    0.71       0.0  T
   2   -354.1036792 -0.140088E-04  0.384E-02    0.72       1.0  T
   3   -354.1036406  0.386254E-04  0.138E-02    0.72       1.0  T
   4   -354.1036815 -0.409318E-04  0.600E-03    0.72       1.1  T
   5   -354.1036850 -0.348072E-05  0.302E-03    0.72       2.2  T
   6   -354.1036867 -0.168975E-05  0.859E-04    0.72       7.9  T
   7   -354.1036869 -0.151519E-06  0.334E-04    0.72      20.2  T
   8   -354.1036869 -0.158765E-07  0.164E-04    0.72      41.2  T
     SCC iter.                  ...        0 min,  0.438 sec
     gradient                   ...        0 min,  0.168 sec
 * total energy  :  -348.3616317 Eh     change       -0.9051513E-03 Eh
   gradient norm :     0.0097402 Eh/α   predicted    -0.7726674E-03 ( -14.64%)
   displ. norm   :     0.6927891 α      lambda       -0.1071052E-02
   maximum displ.:     0.1975806 α      in ANC's #8, #13, #23, ...

........................................................................
.............................. CYCLE   35 ..............................
........................................................................
   1   -354.1128342 -0.354113E+03  0.859E-02    0.71       0.0  T
   2   -354.1128525 -0.183450E-04  0.443E-02    0.71       1.0  T
   3   -354.1128144  0.380921E-04  0.146E-02    0.72       1.0  T
   4   -354.1128544 -0.400037E-04  0.682E-03    0.72       1.0  T
   5   -354.1128589 -0.447785E-05  0.339E-03    0.72       2.0  T
   6   -354.1128610 -0.208426E-05  0.989E-04    0.72       6.9  T
   7   -354.1128612 -0.205443E-06  0.403E-04    0.72      16.8  T
   8   -354.1128612 -0.283665E-07  0.197E-04    0.72      34.3  T
     SCC iter.                  ...        0 min,  0.443 sec
     gradient                   ...        0 min,  0.168 sec
 * total energy  :  -348.3624327 Eh     change       -0.8009879E-03 Eh
   gradient norm :     0.0098069 Eh/α   predicted    -0.7925595E-03 (  -1.05%)
   displ. norm   :     0.8034533 α      lambda       -0.1169451E-02
   maximum displ.:     0.2278724 α      in ANC's #8, #13, #15, ...

........................................................................
.............................. CYCLE   36 ..............................
........................................................................
   1   -354.1100806 -0.354110E+03  0.103E-01    0.71       0.0  T
   2   -354.1101112 -0.305480E-04  0.528E-02    0.71       1.0  T
   3   -354.1100922  0.190062E-04  0.136E-02    0.72       1.0  T
   4   -354.1101133 -0.211712E-04  0.731E-03    0.72       1.0  T
   5   -354.1101177 -0.435282E-05  0.356E-03    0.72       1.9  T
   6   -354.1101202 -0.252543E-05  0.128E-03    0.72       5.3  T
   7   -354.1101206 -0.401462E-06  0.411E-04    0.72      16.5  T
   8   -354.1101206 -0.183323E-07  0.236E-04    0.72      28.7  T
     SCC iter.                  ...        0 min,  0.439 sec
     gradient                   ...        0 min,  0.168 sec
 * total energy  :  -348.3632940 Eh     change       -0.8613317E-03 Eh
   gradient norm :     0.0113684 Eh/α   predicted    -0.9621959E-03 (  11.71%)
   displ. norm   :     0.7960142 α      lambda       -0.1045493E-02
   maximum displ.:     0.2371858 α      in ANC's #23, #8, #15, ...

........................................................................
.............................. CYCLE   37 ..............................
........................................................................
   1   -354.0990161 -0.354099E+03  0.106E-01    0.71       0.0  T
   2   -354.0990455 -0.293513E-04  0.537E-02    0.71       1.0  T
   3   -354.0990273  0.181219E-04  0.140E-02    0.71       1.0  T
   4   -354.0990498 -0.224038E-04  0.733E-03    0.71       1.0  T
   5   -354.0990537 -0.390762E-05  0.281E-03    0.71       2.4  T
   6   -354.0990549 -0.119179E-05  0.913E-04    0.71       7.4  T
   7   -354.0990550 -0.144584E-06  0.355E-04    0.71      19.1  T
   8   -354.0990550 -0.695741E-08  0.213E-04    0.71      31.8  T
     SCC iter.                  ...        0 min,  0.437 sec
     gradient                   ...        0 min,  0.169 sec
 * total energy  :  -348.3638791 Eh     change       -0.5851290E-03 Eh
   gradient norm :     0.0169050 Eh/α   predicted    -0.8539835E-03 (  45.95%)
   displ. norm   :     0.5347641 α      lambda       -0.1072001E-02
   maximum displ.:     0.1607993 α      in ANC's #8, #13, #15, ...

........................................................................
.............................. CYCLE   38 ..............................
........................................................................
   1   -354.1045886 -0.354105E+03  0.658E-02    0.71       0.0  T
   2   -354.1046013 -0.127194E-04  0.337E-02    0.72       1.0  T
   3   -354.1045893  0.119693E-04  0.962E-03    0.72       1.0  T
   4   -354.1046017 -0.123188E-04  0.507E-03    0.72       1.3  T
   5   -354.1046042 -0.250954E-05  0.244E-03    0.72       2.8  T
   6   -354.1046054 -0.122012E-05  0.868E-04    0.72       7.8  T
   7   -354.1046056 -0.187551E-06  0.310E-04    0.72      21.8  T
   8   -354.1046056 -0.122511E-07  0.173E-04    0.72      39.1  T
     SCC iter.                  ...        0 min,  0.432 sec
     gradient                   ...        0 min,  0.168 sec
 * total energy  :  -348.3646345 Eh     change       -0.7553690E-03 Eh
   gradient norm :     0.0111306 Eh/α   predicted    -0.6892817E-03 (  -8.75%)
   displ. norm   :     0.5586809 α      lambda       -0.1157427E-02
   maximum displ.:     0.1697759 α      in ANC's #8, #13, #50, ...

........................................................................
.............................. CYCLE   39 ..............................
........................................................................
   1   -354.1307369 -0.354131E+03  0.745E-02    0.71       0.0  T
   2   -354.1307525 -0.155770E-04  0.404E-02    0.71       1.0  T
   3   -354.1307057  0.467344E-04  0.144E-02    0.71       1.0  T
   4   -354.1307550 -0.492469E-04  0.585E-03    0.71       1.2  T
   5   -354.1307592 -0.423006E-05  0.320E-03    0.71       2.1  T
   6   -354.1307611 -0.185019E-05  0.115E-03    0.71       5.9  T
   7   -354.1307613 -0.223759E-06  0.467E-04    0.71      14.5  T
   8   -354.1307613 -0.151386E-07  0.283E-04    0.71      23.9  T
     SCC iter.                  ...        0 min,  0.431 sec
     gradient                   ...        0 min,  0.168 sec
 * total energy  :  -348.3648084 Eh     change       -0.1739260E-03 Eh
   gradient norm :     0.0197986 Eh/α   predicted    -0.7593484E-03 ( 336.59%)
   displ. norm   :     0.5840679 α      lambda       -0.1464420E-02
   maximum displ.:     0.1734977 α      in ANC's #23, #8, #13, ...

........................................................................
.............................. CYCLE   40 ..............................
........................................................................
   1   -354.1131028 -0.354113E+03  0.778E-02    0.71       0.0  T
   2   -354.1131210 -0.182473E-04  0.397E-02    0.71       1.0  T
   3   -354.1130920  0.290339E-04  0.130E-02    0.71       1.0  T
   4   -354.1131210 -0.289799E-04  0.656E-03    0.71       1.0  T
   5   -354.1131269 -0.594344E-05  0.299E-03    0.71       2.3  T
   6   -354.1131281 -0.117248E-05  0.120E-03    0.71       5.6  T
   7   -354.1131284 -0.339588E-06  0.363E-04    0.71      18.6  T
   8   -354.1131285 -0.770717E-08  0.221E-04    0.71      30.6  T
     SCC iter.                  ...        0 min,  0.437 sec
     gradient                   ...        0 min,  0.169 sec
 * total energy  :  -348.3656887 Eh     change       -0.8802492E-03 Eh
   gradient norm :     0.0103917 Eh/α   predicted    -0.9819999E-03 (  11.56%)
   displ. norm   :     0.6667848 α      lambda       -0.8618720E-03
   maximum displ.:     0.2047431 α      in ANC's #8, #13, #15, ...

........................................................................
.............................. CYCLE   41 ..............................
........................................................................
   1   -354.1067965 -0.354107E+03  0.879E-02    0.71       0.0  T
   2   -354.1068160 -0.194496E-04  0.446E-02    0.71       1.0  T
   3   -354.1068045  0.114316E-04  0.114E-02    0.71       1.0  T
   4   -354.1068180 -0.134040E-04  0.627E-03    0.71       1.1  T
   5   -354.1068211 -0.313204E-05  0.252E-03    0.71       2.7  T
   6   -354.1068220 -0.923281E-06  0.759E-04    0.71       8.9  T
   7   -354.1068221 -0.949404E-07  0.315E-04    0.71      21.5  T
     SCC iter.                  ...        0 min,  0.385 sec
     gradient                   ...        0 min,  0.168 sec
 * total energy  :  -348.3662389 Eh     change       -0.5502178E-03 Eh
   gradient norm :     0.0103211 Eh/α   predicted    -0.6225321E-03 (  13.14%)
   displ. norm   :     0.7238759 α      lambda       -0.7103686E-03
   maximum displ.:     0.2411918 α      in ANC's #8, #13, #15, ...

........................................................................
.............................. CYCLE   42 ..............................
........................................................................
   1   -354.1045540 -0.354105E+03  0.758E-02    0.71       0.0  T
   2   -354.1045673 -0.132823E-04  0.393E-02    0.71       1.0  T
   3   -354.1045574  0.990596E-05  0.986E-03    0.71       1.0  T
   4   -354.1045684 -0.109671E-04  0.536E-03    0.71       1.3  T
   5   -354.1045709 -0.250750E-05  0.217E-03    0.71       3.1  T
   6   -354.1045717 -0.849244E-06  0.762E-04    0.71       8.9  T
   7   -354.1045719 -0.148052E-06  0.273E-04    0.71      24.8  T
     SCC iter.                  ...        0 min,  0.445 sec
     gradient                   ...        0 min,  0.168 sec
 * total energy  :  -348.3668375 Eh     change       -0.5985642E-03 Eh
   gradient norm :     0.0089498 Eh/α   predicted    -0.5413039E-03 (  -9.57%)
   displ. norm   :     0.5733381 α      lambda       -0.9946425E-03
   maximum displ.:     0.2065201 α      in ANC's #8, #7, #13, ...
 * RMSD in coord.:     0.7758679 α      energy gain  -0.1369392E-01 Eh

generating ANC from model Hessian ...
Using Lindh-Hessian (1995)
 Shifting diagonal of input Hessian by   1.002309445391753E-002
 Lowest  eigenvalues of input Hessian
    0.010000    0.010016    0.000000    0.000000    0.000000    0.000000
    0.000000    0.000000    0.010032    0.010050    0.010059    0.010068
    0.010082    0.010086    0.010115    0.010131    0.010146    0.010164
 Highest eigenvalues
    2.267879    2.272801    2.614737    2.618173    2.645787    2.651729
 

........................................................................
.............................. CYCLE   43 ..............................
........................................................................
   1   -354.1313373 -0.354131E+03  0.609E-02    0.71       0.0  T
   2   -354.1313448 -0.758197E-05  0.326E-02    0.70       1.0  T
   3   -354.1312902  0.546782E-04  0.150E-02    0.71       1.0  T
   4   -354.1313495 -0.593226E-04  0.491E-03    0.70       1.4  T
   5   -354.1313515 -0.200825E-05  0.255E-03    0.71       2.7  T
   6   -354.1313526 -0.113053E-05  0.731E-04    0.71       9.3  T
   7   -354.1313527 -0.908938E-07  0.341E-04    0.71      19.9  T
   8   -354.1313527 -0.103850E-07  0.201E-04    0.71      33.8  T
     SCC iter.                  ...        0 min,  0.492 sec
     gradient                   ...        0 min,  0.168 sec
 * total energy  :  -348.3672774 Eh     change       -0.4399382E-03 Eh
   gradient norm :     0.0129605 Eh/α   predicted     0.0000000E+00 (-100.00%)
   displ. norm   :     0.1187836 α      lambda       -0.4871936E-03
   maximum displ.:     0.0369617 α      in ANC's #41, #43, #11, ...

........................................................................
.............................. CYCLE   44 ..............................
........................................................................
   1   -354.1193078 -0.354119E+03  0.351E-02    0.71       0.0  T
   2   -354.1193115 -0.371035E-05  0.188E-02    0.70       1.0  T
   3   -354.1193086  0.285649E-05  0.472E-03    0.71       1.4  T
   4   -354.1193124 -0.375788E-05  0.208E-03    0.71       3.3  T
   5   -354.1193127 -0.269437E-06  0.111E-03    0.71       6.1  T
   6   -354.1193129 -0.247018E-06  0.433E-04    0.71      15.6  T
   7   -354.1193129 -0.428017E-07  0.188E-04    0.71      36.0  T
     SCC iter.                  ...        0 min,  0.435 sec
     gradient                   ...        0 min,  0.167 sec
 * total energy  :  -348.3676001 Eh     change       -0.3227311E-03 Eh
   gradient norm :     0.0044432 Eh/α   predicted    -0.2470358E-03 ( -23.45%)
   displ. norm   :     0.2470997 α      lambda       -0.4763940E-03
   maximum displ.:     0.0822851 α      in ANC's #43, #41, #40, ...

........................................................................
.............................. CYCLE   45 ..............................
........................................................................
   1   -354.1070025 -0.354107E+03  0.683E-02    0.70       0.0  T
   2   -354.1070145 -0.119840E-04  0.363E-02    0.70       1.0  T
   3   -354.1070067  0.782909E-05  0.769E-03    0.71       1.0  T
   4   -354.1070168 -0.100868E-04  0.388E-03    0.70       1.7  T
   5   -354.1070185 -0.167025E-05  0.203E-03    0.70       3.3  T
   6   -354.1070194 -0.957487E-06  0.577E-04    0.70      11.7  T
   7   -354.1070195 -0.607632E-07  0.270E-04    0.70      25.1  T
     SCC iter.                  ...        0 min,  0.423 sec
     gradient                   ...        0 min,  0.168 sec
 * total energy  :  -348.3676602 Eh     change       -0.6000504E-04 Eh
   gradient norm :     0.0110886 Eh/α   predicted    -0.2527437E-03 ( 321.20%)
   displ. norm   :     0.2148293 α      lambda       -0.5923698E-03
   maximum displ.:     0.0680536 α      in ANC's #11, #43, #9, ...

........................................................................
.............................. CYCLE   46 ..............................
........................................................................
   1   -354.1061152 -0.354106E+03  0.777E-02    0.70       0.0  T
   2   -354.1061319 -0.166267E-04  0.420E-02    0.70       1.0  T
   3   -354.1061254  0.641660E-05  0.747E-03    0.71       1.0  T
   4   -354.1061377 -0.122104E-04  0.308E-03    0.70       2.2  T
   5   -354.1061383 -0.635815E-06  0.165E-03    0.70       4.1  T
   6   -354.1061390 -0.691410E-06  0.387E-04    0.70      17.5  T
   7   -354.1061390 -0.222648E-07  0.202E-04    0.70      33.5  T
     SCC iter.                  ...        0 min,  0.430 sec
     gradient                   ...        0 min,  0.168 sec
 * total energy  :  -348.3678697 Eh     change       -0.2095960E-03 Eh
   gradient norm :     0.0114872 Eh/α   predicted    -0.3098821E-03 (  47.85%)
   displ. norm   :     0.1859790 α      lambda       -0.6838996E-03
   maximum displ.:     0.0565584 α      in ANC's #116, #43, #41, ...

........................................................................
.............................. CYCLE   47 ..............................
........................................................................
   1   -354.1148610 -0.354115E+03  0.847E-02    0.70       0.0  T
   2   -354.1148788 -0.178393E-04  0.465E-02    0.70       1.0  T
   3   -354.1148746  0.423011E-05  0.690E-03    0.70       1.0  T
   4   -354.1148854 -0.108280E-04  0.258E-03    0.70       2.6  T
   5   -354.1148860 -0.585545E-06  0.120E-03    0.70       5.7  T
   6   -354.1148862 -0.254719E-06  0.441E-04    0.70      15.3  T
   7   -354.1148863 -0.337335E-07  0.208E-04    0.70      32.5  T
     SCC iter.                  ...        0 min,  0.382 sec
     gradient                   ...        0 min,  0.168 sec
 * total energy  :  -348.3680355 Eh     change       -0.1657218E-03 Eh
   gradient norm :     0.0082681 Eh/α   predicted    -0.3537786E-03 ( 113.48%)
   displ. norm   :     0.1652872 α      lambda       -0.4635367E-03
   maximum displ.:     0.0491197 α      in ANC's #43, #6, #41, ...

........................................................................
.............................. CYCLE   48 ..............................
........................................................................
   1   -354.1162245 -0.354116E+03  0.437E-02    0.70       0.0  T
   2   -354.1162292 -0.471352E-05  0.235E-02    0.70       1.0  T
   3   -354.1162276  0.158382E-05  0.397E-03    0.70       1.7  T
   4   -354.1162299 -0.226991E-05  0.229E-03    0.70       3.0  T
   5   -354.1162309 -0.100767E-05  0.853E-04    0.70       7.9  T
   6   -354.1162311 -0.165474E-06  0.268E-04    0.70      25.3  T
   7   -354.1162311 -0.121074E-07  0.130E-04    0.70      52.1  T
     SCC iter.                  ...        0 min,  0.381 sec
     gradient                   ...        0 min,  0.168 sec
 * total energy  :  -348.3683898 Eh     change       -0.3543547E-03 Eh
   gradient norm :     0.0043306 Eh/α   predicted    -0.2381069E-03 ( -32.81%)
   displ. norm   :     0.5023619 α      lambda       -0.5702917E-03
   maximum displ.:     0.1545381 α      in ANC's #43, #6, #41, ...

........................................................................
.............................. CYCLE   49 ..............................
........................................................................
   1   -354.1135931 -0.354114E+03  0.810E-02    0.70       0.0  T
   2   -354.1136079 -0.147993E-04  0.409E-02    0.70       1.0  T
   3   -354.1135892  0.186983E-04  0.106E-02    0.70       1.0  T
   4   -354.1136090 -0.197304E-04  0.568E-03    0.70       1.2  T
   5   -354.1136125 -0.350512E-05  0.265E-03    0.70       2.6  T
   6   -354.1136141 -0.166688E-05  0.627E-04    0.70      10.8  T
   7   -354.1136142 -0.800331E-07  0.274E-04    0.70      24.7  T
   8   -354.1136142 -0.796098E-08  0.130E-04    0.70      52.2  T
     SCC iter.                  ...        0 min,  0.484 sec
     gradient                   ...        0 min,  0.168 sec
 * total energy  :  -348.3688149 Eh     change       -0.4250661E-03 Eh
   gradient norm :     0.0060116 Eh/α   predicted    -0.3571079E-03 ( -15.99%)
   displ. norm   :     0.6523571 α      lambda       -0.6543351E-03
   maximum displ.:     0.1965958 α      in ANC's #11, #6, #43, ...

........................................................................
.............................. CYCLE   50 ..............................
........................................................................
   1   -354.1108856 -0.354111E+03  0.114E-01    0.70       0.0  T
   2   -354.1109205 -0.349126E-04  0.591E-02    0.70       1.0  T
   3   -354.1108926  0.278619E-04  0.140E-02    0.70       1.0  T
   4   -354.1109274 -0.347413E-04  0.707E-03    0.70       1.0  T
   5   -354.1109320 -0.467770E-05  0.339E-03    0.70       2.0  T
   6   -354.1109350 -0.293345E-05  0.857E-04    0.70       7.9  T
   7   -354.1109351 -0.148431E-06  0.394E-04    0.70      17.2  T
   8   -354.1109351 -0.149249E-07  0.181E-04    0.70      37.5  T
     SCC iter.                  ...        0 min,  0.429 sec
     gradient                   ...        0 min,  0.168 sec
 * total energy  :  -348.3690012 Eh     change       -0.1863182E-03 Eh
   gradient norm :     0.0144284 Eh/α   predicted    -0.4664126E-03 ( 150.33%)
   displ. norm   :     0.3885212 α      lambda       -0.8540494E-03
   maximum displ.:     0.1232722 α      in ANC's #6, #10, #40, ...

........................................................................
.............................. CYCLE   51 ..............................
........................................................................
   1   -354.1193264 -0.354119E+03  0.694E-02    0.70       0.0  T
   2   -354.1193395 -0.131154E-04  0.366E-02    0.70       1.0  T
   3   -354.1193229  0.165583E-04  0.978E-03    0.70       1.0  T
   4   -354.1193431 -0.201554E-04  0.411E-03    0.70       1.6  T
   5   -354.1193446 -0.150758E-05  0.187E-03    0.70       3.6  T
   6   -354.1193455 -0.855972E-06  0.499E-04    0.70      13.6  T
   7   -354.1193455 -0.434048E-07  0.253E-04    0.70      26.7  T
     SCC iter.                  ...        0 min,  0.383 sec
     gradient                   ...        0 min,  0.168 sec
 * total energy  :  -348.3695635 Eh     change       -0.5623040E-03 Eh
   gradient norm :     0.0072584 Eh/α   predicted    -0.4914866E-03 ( -12.59%)
   displ. norm   :     0.5727518 α      lambda       -0.5120526E-03
   maximum displ.:     0.1812201 α      in ANC's #6, #11, #10, ...

........................................................................
.............................. CYCLE   52 ..............................
........................................................................
   1   -354.1145732 -0.354115E+03  0.788E-02    0.70       0.0  T
   2   -354.1145886 -0.154087E-04  0.394E-02    0.69       1.0  T
   3   -354.1145713  0.173105E-04  0.106E-02    0.70       1.0  T
   4   -354.1145909 -0.196446E-04  0.548E-03    0.70       1.2  T
   5   -354.1145932 -0.233213E-05  0.260E-03    0.70       2.6  T
   6   -354.1145948 -0.157284E-05  0.638E-04    0.70      10.6  T
   7   -354.1145949 -0.914165E-07  0.257E-04    0.70      26.3  T
   8   -354.1145949 -0.706984E-08  0.130E-04    0.70      52.2  T
     SCC iter.                  ...        0 min,  0.438 sec
     gradient                   ...        0 min,  0.168 sec
 * total energy  :  -348.3699405 Eh     change       -0.3770202E-03 Eh
   gradient norm :     0.0077866 Eh/α   predicted    -0.3400165E-03 (  -9.81%)
   displ. norm   :     0.5426205 α      lambda       -0.6830759E-03
   maximum displ.:     0.1942397 α      in ANC's #6, #11, #10, ...

........................................................................
.............................. CYCLE   53 ..............................
........................................................................
   1   -354.1213593 -0.354121E+03  0.695E-02    0.69       0.0  T
   2   -354.1213724 -0.130528E-04  0.363E-02    0.69       1.0  T
   3   -354.1213649  0.746520E-05  0.838E-03    0.69       1.0  T
   4   -354.1213749 -0.998034E-05  0.430E-03    0.69       1.6  T
   5   -354.1213765 -0.160346E-05  0.182E-03    0.69       3.7  T
   6   -354.1213772 -0.704618E-06  0.590E-04    0.69      11.5  T
   7   -354.1213773 -0.685082E-07  0.275E-04    0.69      24.6  T
     SCC iter.                  ...        0 min,  0.425 sec
     gradient                   ...        0 min,  0.168 sec
 * total energy  :  -348.3702768 Eh     change       -0.3362455E-03 Eh
   gradient norm :     0.0096109 Eh/α   predicted    -0.4421011E-03 (  31.48%)
   displ. norm   :     0.6343790 α      lambda       -0.5432287E-03
   maximum displ.:     0.2107439 α      in ANC's #6, #11, #10, ...

........................................................................
.............................. CYCLE   54 ..............................
........................................................................
   1   -354.1171542 -0.354117E+03  0.806E-02    0.69       0.0  T
   2   -354.1171720 -0.177586E-04  0.401E-02    0.69       1.0  T
   3   -354.1171514  0.205471E-04  0.114E-02    0.70       1.0  T
   4   -354.1171752 -0.237267E-04  0.571E-03    0.69       1.2  T
   5   -354.1171773 -0.211619E-05  0.285E-03    0.69       2.4  T
   6   -354.1171791 -0.182068E-05  0.718E-04    0.69       9.4  T
   7   -354.1171792 -0.113050E-06  0.297E-04    0.69      22.8  T
   8   -354.1171792 -0.115925E-07  0.145E-04    0.69      46.8  T
     SCC iter.                  ...        0 min,  0.434 sec
     gradient                   ...        0 min,  0.168 sec
 * total energy  :  -348.3706770 Eh     change       -0.4001897E-03 Eh
   gradient norm :     0.0061762 Eh/α   predicted    -0.3809227E-03 (  -4.81%)
   displ. norm   :     0.5575740 α      lambda       -0.4376182E-03
   maximum displ.:     0.2040187 α      in ANC's #6, #11, #10, ...

........................................................................
.............................. CYCLE   55 ..............................
........................................................................
   1   -354.1175792 -0.354118E+03  0.712E-02    0.69       0.0  T
   2   -354.1175934 -0.142203E-04  0.367E-02    0.69       1.0  T
   3   -354.1175835  0.986908E-05  0.892E-03    0.70       1.0  T
   4   -354.1175960 -0.124166E-04  0.453E-03    0.69       1.5  T
   5   -354.1175976 -0.161863E-05  0.225E-03    0.69       3.0  T
   6   -354.1175988 -0.120852E-05  0.550E-04    0.69      12.3  T
   7   -354.1175988 -0.603175E-07  0.253E-04    0.69      26.7  T
   8   -354.1175989 -0.834461E-08  0.119E-04    0.69      56.8  T
     SCC iter.                  ...        0 min,  0.432 sec
     gradient                   ...        0 min,  0.168 sec
 * total energy  :  -348.3709575 Eh     change       -0.2804842E-03 Eh
   gradient norm :     0.0086324 Eh/α   predicted    -0.2868391E-03 (   2.27%)
   displ. norm   :     0.5242400 α      lambda       -0.4627984E-03
   maximum displ.:     0.2035576 α      in ANC's #6, #11, #10, ...

........................................................................
.............................. CYCLE   56 ..............................
........................................................................
   1   -354.1198675 -0.354120E+03  0.591E-02    0.69       0.0  T
   2   -354.1198765 -0.903789E-05  0.310E-02    0.69       1.0  T
   3   -354.1198695  0.698780E-05  0.770E-03    0.70       1.0  T
   4   -354.1198784 -0.882431E-05  0.372E-03    0.69       1.8  T
   5   -354.1198792 -0.865370E-06  0.186E-03    0.69       3.6  T
   6   -354.1198800 -0.749767E-06  0.521E-04    0.69      13.0  T
   7   -354.1198800 -0.556553E-07  0.220E-04    0.69      30.7  T
     SCC iter.                  ...        0 min,  0.384 sec
     gradient                   ...        0 min,  0.168 sec
 * total energy  :  -348.3712960 Eh     change       -0.3385918E-03 Eh
   gradient norm :     0.0066968 Eh/α   predicted    -0.2949959E-03 ( -12.88%)
   displ. norm   :     0.5955122 α      lambda       -0.4592776E-03
   maximum displ.:     0.2368504 α      in ANC's #6, #11, #10, ...

........................................................................
.............................. CYCLE   57 ..............................
........................................................................
   1   -354.1206931 -0.354121E+03  0.583E-02    0.69       0.0  T
   2   -354.1207032 -0.100322E-04  0.302E-02    0.69       1.0  T
   3   -354.1206956  0.762254E-05  0.836E-03    0.70       1.0  T
   4   -354.1207050 -0.944078E-05  0.401E-03    0.69       1.7  T
   5   -354.1207057 -0.702436E-06  0.206E-03    0.69       3.3  T
   6   -354.1207067 -0.973357E-06  0.621E-04    0.69      10.9  T
   7   -354.1207068 -0.921759E-07  0.237E-04    0.69      28.6  T
     SCC iter.                  ...        0 min,  0.388 sec
     gradient                   ...        0 min,  0.168 sec
 * total energy  :  -348.3716295 Eh     change       -0.3334848E-03 Eh
   gradient norm :     0.0071028 Eh/α   predicted    -0.3110784E-03 (  -6.72%)
   displ. norm   :     0.6219096 α      lambda       -0.4309118E-03
   maximum displ.:     0.2521386 α      in ANC's #6, #10, #11, ...

........................................................................
.............................. CYCLE   58 ..............................
........................................................................
   1   -354.1212892 -0.354121E+03  0.584E-02    0.69       0.0  T
   2   -354.1212977 -0.845115E-05  0.309E-02    0.69       1.0  T
   3   -354.1212863  0.113711E-04  0.882E-03    0.69       1.0  T
   4   -354.1212990 -0.126826E-04  0.412E-03    0.69       1.6  T
   5   -354.1213001 -0.111249E-05  0.221E-03    0.69       3.1  T
[...]
   184   1 H    0.998 --    77 C    0.985
   185   1 H    0.997 --    78 C    0.968
   186   1 H    0.998 --    79 C    0.965
   187   1 H    0.998 --    81 C    0.966
   188   1 H    0.998 --    82 C    0.966
   189   1 H    0.996 --    85 C    0.980
   190   1 H    0.997 --    85 C    0.983
   191   1 H    0.997 --    85 C    0.982
   192   1 H    0.998 --    86 C    0.965
   193   1 H    0.999 --    87 C    0.966
   194   1 H    0.997 --    94 C    0.965
   195   1 H    0.996 --    95 C    0.966
   196   1 H    0.997 --    98 C    0.983
   197   1 H    0.997 --    98 C    0.983
   198   1 H    0.995 --    98 C    0.978
   199   1 H    0.998 --    99 C    0.966
   200   1 H    0.999 --   100 C    0.967
   201   1 H    0.998 --   102 C    0.967
   202   1 H    0.997 --   103 C    0.964
   203   1 H    0.996 --   106 C    0.982
   204   1 H    0.995 --   106 C    0.978
   205   1 H    0.996 --   106 C    0.981
   206   1 H    0.997 --   107 C    0.967
   207   1 H    0.998 --   108 C    0.967
   208   1 H    0.995 --   111 C    0.931
   209   1 H    0.996 --   116 C    0.963
   210   1 H    0.997 --   119 C    0.958
   211   1 H    0.997 --   127 C    0.961
   212   1 H    0.999 --   128 C    0.972
   213   1 H    0.999 --   129 C    0.972
   214   1 H    0.999 --   130 C    0.971
   215   1 H    0.999 --   131 C    0.972
   216   1 H    0.997 --   132 C    0.977
   217   1 H    0.999 --   132 C    0.978
   218   1 H    0.997 --   133 C    0.961
 ---------------------------------------------------------------------------

Topologies differ in bond orders
Writing corrected topology to xtbtopo.mol

molecular dipole:
                 x           y           z       tot (Debye)
 q only:       -0.146       1.902       0.053
   full:       -0.556       1.478       0.219       4.051
molecular quadrupole (traceless):
                xx          xy          yy          xz          yz          zz
 q only:     -131.909      46.236      52.271      12.839      25.928      79.638
  q+dip:     -157.869      42.837      60.509      29.126      25.625      97.359
   full:     -155.384      47.419      56.008      30.278      23.621      99.376

           -------------------------------------------------
          |                Geometry Summary                 |
           -------------------------------------------------

      molecular mass/u    :     1905.5924628
   center of mass at/Å    :       -0.5140392      -0.0229966       0.4613251
  moments of inertia/u·Å² :        0.6365796E+05   0.8334716E+05   0.1110098E+06
rotational constants/cm⁻¹ :        0.2648158E-03   0.2022580E-03   0.1518571E-03

 * 208 selected distances

     #   Z          #   Z                                           value/Å
     1   6 C        2   6 C                                       1.3613706
     3   6 C        4   8 O                                       1.2136692
     5   6 C        6   6 C                                       1.3932311
     6   6 C        7   6 C                                       1.3729720
     7   6 C        8   6 C                                       1.4024193
     8   6 C        9   6 C                                       1.3753735
     5   6 C       10   6 C                                       1.4083692
     9   6 C       10   6 C                                       1.3990621
    11   6 C       12   6 C                                       1.3683575
    13   6 C       14   7 N                                       1.1480491
    15   6 C       16   7 N                                       1.1480103
     8   6 C       17   6 C                                       1.5088233
    17   6 C       18   6 C                                       1.5492355
    19   6 C       20   6 C                                       1.3264315
    18   6 C       22   6 C                                       1.5374120
    21   6 C       22   6 C                                       1.5369512
     7   6 C       23   6 C                                       1.5074738
    17   6 C       23   6 C                                       1.5614397
    21   6 C       23   6 C                                       1.5489375
    24   6 C       25   6 C                                       1.3950405
    25   6 C       26   6 C                                       1.3817648
    26   6 C       27   7 N                                       1.3715493
    27   7 N       28   6 C                                       1.4394280
    28   6 C       29   6 C                                       1.5272452
    27   7 N       30   6 C                                       1.3699550
    30   6 C       31   6 C                                       1.4204416
    26   6 C       32   6 C                                       1.4200463
    31   6 C       32   6 C                                       1.4278616
    32   6 C       33   6 C                                       1.3955292
    24   6 C       34   6 C                                       1.4130127
    33   6 C       34   6 C                                       1.3740109
    31   6 C       35   6 C                                       1.3946477
    35   6 C       36   6 C                                       1.3746751
    36   6 C       37   6 C                                       1.4103815
    30   6 C       38   6 C                                       1.3824856
    37   6 C       38   6 C                                       1.3932588
    39   6 C       40   6 C                                       1.3640647
    40   6 C       41   6 C                                       1.4183998
    41   6 C       42   6 C                                       1.4114285
    43   6 C       44   6 C                                       1.3656954
    44   6 C       45   6 C                                       1.4140900
    46   6 C       47   6 C                                       1.5295872
    45   6 C       48   6 C                                       1.3656560
    49   6 C       50   6 C                                       1.5308421
    43   6 C       51  16 S                                       1.7437461
    48   6 C       51  16 S                                       1.7343180
    42   6 C       52   6 C                                       1.3921039
    52   6 C       53   6 C                                       1.4148618
    53   6 C       54   6 C                                       1.4087585
    55   6 C       56   6 C                                       1.3642320
    56   6 C       57   6 C                                       1.4136542
    58   6 C       59   6 C                                       1.5295137
    57   6 C       60   6 C                                       1.3663138
    55   6 C       61  16 S                                       1.7439654
    60   6 C       61  16 S                                       1.7359663
    62   6 C       63   6 C                                       1.5253818
    41   6 C       64   6 C                                       1.4141374
    54   6 C       64   6 C                                       1.3901451
    39   6 C       65  16 S                                       1.7578361
    64   6 C       65  16 S                                       1.7394245
    53   6 C       66   6 C                                       1.4154335
    66   6 C       67   6 C                                       1.3656936
    52   6 C       68  16 S                                       1.7427845
    67   6 C       68  16 S                                       1.7611499 (max)
    67   6 C       69   6 C                                       1.4238012
    69   6 C       70   6 C                                       1.3904138
    70   6 C       71   7 N                                       1.3946246
    71   7 N       72   6 C                                       1.4044398
    72   6 C       73   6 C                                       1.3943961
    73   6 C       74   6 C                                       1.3783320
    74   6 C       75   6 C                                       1.3870143
    75   6 C       78   6 C                                       1.3876528
    72   6 C       79   6 C                                       1.3933613
    78   6 C       79   6 C                                       1.3793347
    71   7 N       80   6 C                                       1.3948942
    80   6 C       81   6 C                                       1.3980123
    81   6 C       82   6 C                                       1.3762435
    82   6 C       83   6 C                                       1.3931931
    83   6 C       86   6 C                                       1.3868611
    80   6 C       87   6 C                                       1.3932128
    86   6 C       87   6 C                                       1.3806852
    70   6 C       88   6 C                                       1.4145903
    88   6 C       89  16 S                                       1.7256106
    90   6 C       91   6 C                                       1.4183405
    91   6 C       92   7 N                                       1.3692372
    92   7 N       93   6 C                                       1.4069129
    93   6 C       94   6 C                                       1.3941589
    94   6 C       95   6 C                                       1.3775662
    95   6 C       96   6 C                                       1.3920636
    96   6 C       99   6 C                                       1.3906815
    93   6 C      100   6 C                                       1.3937032
    99   6 C      100   6 C                                       1.3797322
    92   7 N      101   6 C                                       1.4102403
   101   6 C      102   6 C                                       1.3904567
   102   6 C      103   6 C                                       1.3806202
   103   6 C      104   6 C                                       1.3893505
   104   6 C      107   6 C                                       1.3945084
   101   6 C      108   6 C                                       1.3944838
   107   6 C      108   6 C                                       1.3763596
    88   6 C      109   6 C                                       1.3900142
    91   6 C      109   6 C                                       1.4045661
    69   6 C      110  16 S                                       1.7552432
   109   6 C      110  16 S                                       1.7356989
    90   6 C      111   6 C                                       1.3939590
   111   6 C      112   6 C                                       1.3768322
   113   6 C      114   8 O                                       1.2217594
   115   6 C      116   6 C                                       1.3922288
   116   6 C      117   6 C                                       1.3745124
   117   6 C      118   6 C                                       1.4002155
   118   6 C      119   6 C                                       1.3755344
   115   6 C      120   6 C                                       1.4092287
   119   6 C      120   6 C                                       1.3968252
   121   6 C      122   6 C                                       1.3751519
   123   6 C      124   7 N                                       1.1490101
   125   6 C      126   7 N                                       1.1499427
   118   6 C      127   6 C                                       1.5081796
   127   6 C      128   6 C                                       1.5485300
   129   6 C      130   6 C                                       1.3262685
   128   6 C      132   6 C                                       1.5371105
   131   6 C      132   6 C                                       1.5370259
   117   6 C      133   6 C                                       1.5083186
   127   6 C      133   6 C                                       1.5614171
   131   6 C      133   6 C                                       1.5486275
     1   6 C      134   1 H                                       1.0841866
     6   6 C      135   1 H                                       1.0787659
     9   6 C      136   1 H                                       1.0776305
    17   6 C      137   1 H                                       1.0881779
    18   6 C      138   1 H                                       1.0868847
    19   6 C      139   1 H                                       1.0746098
    20   6 C      140   1 H                                       1.0744980
    21   6 C      141   1 H                                       1.0869053
    22   6 C      142   1 H                                       1.0890598
    22   6 C      143   1 H                                       1.0888440
    23   6 C      144   1 H                                       1.0879408
    25   6 C      145   1 H                                       1.0761000
    28   6 C      146   1 H                                       1.0934441
    28   6 C      147   1 H                                       1.0919166
    29   6 C      148   1 H                                       1.0874465
    29   6 C      149   1 H                                       1.0866103
    29   6 C      150   1 H                                       1.0878342
    33   6 C      151   1 H                                       1.0794729
    34   6 C      152   1 H                                       1.0800469
    35   6 C      153   1 H                                       1.0795495
    36   6 C      154   1 H                                       1.0784959
    38   6 C      155   1 H                                       1.0791079
    40   6 C      156   1 H                                       1.0742318
    44   6 C      157   1 H                                       1.0746355
    46   6 C      158   1 H                                       1.0903397
    46   6 C      159   1 H                                       1.0929296
    47   6 C      160   1 H                                       1.0881612
    47   6 C      161   1 H                                       1.0884733
    47   6 C      162   1 H                                       1.0881282
    49   6 C      163   1 H                                       1.0920594
    49   6 C      164   1 H                                       1.0918902
    50   6 C      165   1 H                                       1.0876024
    50   6 C      166   1 H                                       1.0871755
    50   6 C      167   1 H                                       1.0877887
    56   6 C      168   1 H                                       1.0751303
    58   6 C      169   1 H                                       1.0910565
    58   6 C      170   1 H                                       1.0920782
    59   6 C      171   1 H                                       1.0876467
    59   6 C      172   1 H                                       1.0877148
    59   6 C      173   1 H                                       1.0876892
    62   6 C      174   1 H                                       1.0915292
    62   6 C      175   1 H                                       1.0942460
    63   6 C      176   1 H                                       1.0873945
    63   6 C      177   1 H                                       1.0878580
    63   6 C      178   1 H                                       1.0871083
    66   6 C      179   1 H                                       1.0724535 (min)
    73   6 C      180   1 H                                       1.0806560
    74   6 C      181   1 H                                       1.0792301
    77   6 C      182   1 H                                       1.0855333
    77   6 C      183   1 H                                       1.0862420
    77   6 C      184   1 H                                       1.0862879
    78   6 C      185   1 H                                       1.0789588
    79   6 C      186   1 H                                       1.0794744
    81   6 C      187   1 H                                       1.0795904
    82   6 C      188   1 H                                       1.0790964
    85   6 C      189   1 H                                       1.0855791
    85   6 C      190   1 H                                       1.0864054
    85   6 C      191   1 H                                       1.0858951
    86   6 C      192   1 H                                       1.0780181
    87   6 C      193   1 H                                       1.0795647
    94   6 C      194   1 H                                       1.0786083
    95   6 C      195   1 H                                       1.0780869
    98   6 C      196   1 H                                       1.0863555
    98   6 C      197   1 H                                       1.0859804
    98   6 C      198   1 H                                       1.0852976
    99   6 C      199   1 H                                       1.0786420
   100   6 C      200   1 H                                       1.0801429
   102   6 C      201   1 H                                       1.0799694
   103   6 C      202   1 H                                       1.0776475
   106   6 C      203   1 H                                       1.0861337
   106   6 C      204   1 H                                       1.0855744
   106   6 C      205   1 H                                       1.0859822
   107   6 C      206   1 H                                       1.0789143
   108   6 C      207   1 H                                       1.0797492
   111   6 C      208   1 H                                       1.0819068
   116   6 C      209   1 H                                       1.0787699
   119   6 C      210   1 H                                       1.0772228
   127   6 C      211   1 H                                       1.0883482
   128   6 C      212   1 H                                       1.0866823
   129   6 C      213   1 H                                       1.0742643
   130   6 C      214   1 H                                       1.0742905
   131   6 C      215   1 H                                       1.0869319
   132   6 C      216   1 H                                       1.0888953
   132   6 C      217   1 H                                       1.0892657
   133   6 C      218   1 H                                       1.0886130

 * 5 distinct bonds (by element types)

   Z      Z             #   av. dist./Å        max./Å        min./Å
   1 H    6 C          85     1.0839489     1.0942460     1.0724535
   6 C    6 C          97     1.4183704     1.5614397     1.3262685
   6 C    7 N          13     1.3197149     1.4394280     1.1480103
   6 C    8 O           2     1.2177143     1.2217594     1.2136692
   6 C   16 S          11     1.7432494     1.7611499     1.7256106


optimized geometry written to: xtbopt.mol


           -------------------------------------------------
          | TOTAL ENERGY             -348.402261687036 Eh   |
          | GRADIENT NORM               0.000350705977 Eh/α |
          | HOMO-LUMO GAP               0.727981609778 eV   |
           -------------------------------------------------

------------------------------------------------------------------------
 * finished run on 2022/02/16 at 16:19:33.309     
------------------------------------------------------------------------
 total:
 * wall-time:     0 d,  0 h,  3 min,  6.803 sec
 *  cpu-time:     0 d,  0 h, 24 min, 53.765 sec
 * ratio c/w:     7.996 speedup
 SCF:
 * wall-time:     0 d,  0 h,  0 min,  0.998 sec
 *  cpu-time:     0 d,  0 h,  0 min,  7.928 sec
 * ratio c/w:     7.941 speedup
 ANC optimizer:
 * wall-time:     0 d,  0 h,  3 min,  5.690 sec
 *  cpu-time:     0 d,  0 h, 24 min, 45.011 sec
 * ratio c/w:     7.997 speedup

