      -----------------------------------------------------------      
     |                   =====================                   |     
     |                           x T B                           |     
     |                   =====================                   |     
     |                         S. Grimme                         |     
     |          Mulliken Center for Theoretical Chemistry        |     
     |                    University of Bonn                     |     
      -----------------------------------------------------------      

   * xtb version 6.4.1 (unknown) compiled by 'oda6@login1.crc.pitt.edu' on 2021-06-25

   xtb is free software: you can redistribute it and/or modify it under
   the terms of the GNU Lesser General Public License as published by
   the Free Software Foundation, either version 3 of the License, or
   (at your option) any later version.
   
   xtb is distributed in the hope that it will be useful,
   but WITHOUT ANY WARRANTY; without even the implied warranty of
   MERCHANTABILITY or FITNESS FOR A PARTICULAR PURPOSE.  See the
   GNU Lesser General Public License for more details.
   
   Cite this work as:
   * C. Bannwarth, E. Caldeweyher, S. Ehlert, A. Hansen, P. Pracht,
     J. Seibert, S. Spicher, S. Grimme, WIREs Comput. Mol. Sci., 2020, 11,
     e01493. DOI: 10.1002/wcms.1493
   
   for GFN2-xTB:
   * C. Bannwarth, S. Ehlert and S. Grimme., J. Chem. Theory Comput., 2019,
     15, 1652-1671. DOI: 10.1021/acs.jctc.8b01176
   for GFN1-xTB:
   * S. Grimme, C. Bannwarth, P. Shushkov, J. Chem. Theory Comput., 2017,
     13, 1989-2009. DOI: 10.1021/acs.jctc.7b00118
   for GFN0-xTB:
   * P. Pracht, E. Caldeweyher, S. Ehlert, S. Grimme, ChemRxiv, 2019, preprint.
     DOI: 10.26434/chemrxiv.8326202.v1
   for GFN-FF:
   * S. Spicher and S. Grimme, Angew. Chem. Int. Ed., 2020, 59, 15665-15673.
     DOI: 10.1002/anie.202004239
   
   for DFT-D4:
   * E. Caldeweyher, C. Bannwarth and S. Grimme, J. Chem. Phys., 2017,
     147, 034112. DOI: 10.1063/1.4993215
   * E. Caldeweyher, S. Ehlert, A. Hansen, H. Neugebauer, S. Spicher,
     C. Bannwarth and S. Grimme, J. Chem. Phys., 2019, 150, 154122.
     DOI: 10.1063/1.5090222
   * E. Caldeweyher, J.-M. Mewes, S. Ehlert and S. Grimme, Phys. Chem. Chem. Phys.
     2020, 22, 8499-8512. DOI: 10.1039/D0CP00502A
   
   for sTDA-xTB:
   * S. Grimme and C. Bannwarth, J. Chem. Phys., 2016, 145, 054103.
     DOI: 10.1063/1.4959605
   
   in the mass-spec context:
   * V. Asgeirsson, C. Bauer and S. Grimme, Chem. Sci., 2017, 8, 4879.
     DOI: 10.1039/c7sc00601b
   * J. Koopman and S. Grimme, ACS Omega 2019, 4, 12, 15120-15133.
     DOI: 10.1021/acsomega.9b02011
   
   for metadynamics refer to:
   * S. Grimme, J. Chem. Theory Comput., 2019, 155, 2847-2862
     DOI: 10.1021/acs.jctc.9b00143
   
   for SPH calculations refer to:
   * S. Spicher and S. Grimme, J. Chem. Theory Comput., 2021, 17, 1701-1714
     DOI: 10.1021/acs.jctc.0c01306
   
   with help from (in alphabetical order)
   P. Atkinson, C. Bannwarth, F. Bohle, G. Brandenburg, E. Caldeweyher
   M. Checinski, S. Dohm, S. Ehlert, S. Ehrlich, I. Gerasimov, J. Koopman
   C. Lavigne, S. Lehtola, F. März, M. Müller, F. Musil, H. Neugebauer
   J. Pisarek, C. Plett, P. Pracht, J. Seibert, P. Shushkov, S. Spicher
   M. Stahn, M. Steiner, T. Strunk, J. Stückrath, T. Rose, and J. Unsleber
   
 * started run on 2022/02/04 at 23:36:18.014     

           -------------------------------------------------
          |                Calculation Setup                |
           -------------------------------------------------

          program call               : /ihome/ghutchison/oda6/xtb/xtb-641/bin/xtb ../../FF_optimized/39_50_130_50_3.mol -opt
          hostname                   : smp-n57
          coordinate file            : ../../FF_optimized/39_50_130_50_3.mol
          omp threads                :                     8
          number of atoms            :                   150
          number of electrons        :                   470
          charge                     :                     0
          spin                       :                   0.0
          first test random number   :      0.82359590893874

   ID    Z sym.   atoms
    1    6 C      1-3, 5-13, 15, 17-26, 28-30, 32, 33, 35-38, 40-46, 48-51,
                  53, 54, 56-59, 61-67, 69-72, 74-76, 78-80, 82-84, 86,
                  88-93, 95
    2    8 O      4, 85
    3    7 N      14, 16, 34, 55, 94, 96
    4   16 S      27, 31, 39, 47, 52, 60, 68, 73, 77, 81, 87
    5    1 H      97-150
########################################################################
[WARNING] Please study the warnings concerning your input carefully
-1- prog_main_parseArguments: the use of '-opt' is discouraged, please use '--opt' next time
########################################################################

           -------------------------------------------------
          |                 G F N 2 - x T B                 |
           -------------------------------------------------

        Reference                      10.1021/acs.jctc.8b01176
      * Hamiltonian:
        H0-scaling (s, p, d)           1.850000    2.230000    2.230000
        zeta-weighting                 0.500000
      * Dispersion:
        s8                             2.700000
        a1                             0.520000
        a2                             5.000000
        s9                             5.000000
      * Repulsion:
        kExp                           1.500000    1.000000
        rExp                           1.000000
      * Coulomb:
        alpha                          2.000000
        third order                    shell-resolved
        anisotropic                    true
        a3                             3.000000
        a5                             4.000000
        cn-shift                       1.200000
        cn-exp                         4.000000
        max-rad                        5.000000


          ...................................................
          :                      SETUP                      :
          :.................................................:
          :  # basis functions                 504          :
          :  # atomic orbitals                 493          :
          :  # shells                          257          :
          :  # electrons                       470          :
          :  max. iterations                   250          :
          :  Hamiltonian                  GFN2-xTB          :
          :  restarted?                      false          :
          :  GBSA solvation                  false          :
          :  PC potential                    false          :
          :  electronic temp.          300.0000000     K    :
          :  accuracy                    1.0000000          :
          :  -> integral cutoff          0.2500000E+02      :
          :  -> integral neglect         0.1000000E-07      :
          :  -> SCF convergence          0.1000000E-05 Eh   :
          :  -> wf. convergence          0.1000000E-03 e    :
          :  Broyden damping             0.4000000          :
          ...................................................

 iter      E             dE          RMSdq      gap      omega  full diag
   1   -256.8658466 -0.256866E+03  0.503E+00    1.05       0.0  T
   2   -257.0208247 -0.154978E+00  0.303E+00    1.35       1.0  T
   3   -256.6277957  0.393029E+00  0.215E+00    0.60       1.0  T
   4   -257.1358334 -0.508038E+00  0.702E-01    0.75       1.0  T
   5   -257.1835077 -0.476743E-01  0.250E-01    0.57       1.0  T
   6   -257.1842203 -0.712594E-03  0.142E-01    0.68       1.0  T
   7   -257.1863635 -0.214318E-02  0.588E-02    0.65       1.0  T
   8   -257.1867040 -0.340535E-03  0.271E-02    0.67       1.0  T
   9   -257.1867392 -0.351419E-04  0.145E-02    0.67       1.0  T
  10   -257.1867499 -0.107561E-04  0.679E-03    0.67       1.2  T
  11   -257.1867532 -0.329366E-05  0.283E-03    0.67       2.9  T
  12   -257.1867535 -0.316321E-06  0.167E-03    0.67       4.9  T
  13   -257.1867537 -0.197977E-06  0.731E-04    0.67      11.2  T
  14   -257.1867538 -0.140233E-07  0.389E-04    0.67      21.0  T

   *** convergence criteria satisfied after 14 iterations ***

         #    Occupation            Energy/Eh            Energy/eV
      -------------------------------------------------------------
         1        2.0000           -0.7699422             -20.9512
       ...           ...                  ...                  ...
       229        2.0000           -0.3750582             -10.2059
       230        2.0000           -0.3716474             -10.1130
       231        2.0000           -0.3698388             -10.0638
       232        2.0000           -0.3639147              -9.9026
       233        2.0000           -0.3638831              -9.9018
       234        2.0000           -0.3631921              -9.8830
       235        2.0000           -0.3619862              -9.8501 (HOMO)
       236        0.0000           -0.3374149              -9.1815 (LUMO)
       237        0.0000           -0.3335905              -9.0775
       238                         -0.3301756              -8.9845
       239                         -0.3245925              -8.8326
       240                         -0.3006968              -8.1824
       ...                                ...                  ...
       493                          1.0709874              29.1430
      -------------------------------------------------------------
                  HL-Gap            0.0245713 Eh            0.6686 eV
             Fermi-level           -0.3495015 Eh           -9.5104 eV

 SCC (total)                   0 d,  0 h,  0 min,  0.474 sec
 SCC setup                      ...        0 min,  0.001 sec (  0.242%)
 Dispersion                     ...        0 min,  0.007 sec (  1.574%)
 classical contributions        ...        0 min,  0.000 sec (  0.046%)
 integral evaluation            ...        0 min,  0.030 sec (  6.286%)
 iterations                     ...        0 min,  0.359 sec ( 75.779%)
 molecular gradient             ...        0 min,  0.074 sec ( 15.598%)
 printout                       ...        0 min,  0.002 sec (  0.456%)

         :::::::::::::::::::::::::::::::::::::::::::::::::::::
         ::                     SUMMARY                     ::
         :::::::::::::::::::::::::::::::::::::::::::::::::::::
         :: total energy            -253.448509495420 Eh    ::
         :: gradient norm              0.303102988828 Eh/a0 ::
         :: HOMO-LUMO gap              0.668618753306 eV    ::
         ::.................................................::
         :: SCC energy              -257.186753753925 Eh    ::
         :: -> isotropic ES            0.113678939763 Eh    ::
         :: -> anisotropic ES          0.018839405151 Eh    ::
         :: -> anisotropic XC          0.186616274744 Eh    ::
         :: -> dispersion             -0.248843184212 Eh    ::
         :: repulsion energy           3.730640199982 Eh    ::
         :: add. restraining           0.000000000000 Eh    ::
         :: total charge               0.000000000000 e     ::
         :::::::::::::::::::::::::::::::::::::::::::::::::::::

      ----------------------------------------------------------- 
     |                   =====================                   |
     |                        A N C O P T                        |
     |                   =====================                   |
     |               Approximate Normal Coordinate               |
     |                Rational Function Optimizer                |
      ----------------------------------------------------------- 

          ...................................................
          :                      SETUP                      :
          :.................................................:
          :   optimization level            normal          :
          :   max. optcycles                   450          :
          :   ANC micro-cycles                  20          :
          :   degrees of freedom               444          :
          :.................................................:
          :   RF solver                   davidson          :
          :   write xtbopt.log                true          :
          :   linear?                        false          :
          :   energy convergence         0.5000000E-05 Eh   :
          :   grad. convergence          0.1000000E-02 Eh/α :
          :   maximium RF displ.         1.0000000          :
          :   Hlow (freq-cutoff)         0.1000000E-01      :
          :   Hmax (freq-cutoff)         5.0000000          :
          :   S6 in model hess.         20.0000000          :
          ...................................................

generating ANC from model Hessian ...
Using Lindh-Hessian (1995)
 Shifting diagonal of input Hessian by   1.000356084597691E-002
 Lowest  eigenvalues of input Hessian
    0.010000    0.010003    0.000000    0.000000    0.000000    0.000000
    0.000000    0.000000    0.010016    0.010030    0.010056    0.010071
    0.010091    0.010100    0.010127    0.010155    0.010178    0.010182
 Highest eigenvalues
    2.147321    2.149611    2.493439    2.498503    2.549174    2.552342
 

........................................................................
.............................. CYCLE    1 ..............................
........................................................................
   1   -257.1867538 -0.257187E+03  0.186E-04    0.67       0.0  T
   2   -257.1867538  0.131610E-08  0.183E-04    0.67      44.7  T
   3   -257.1867538 -0.465121E-08  0.771E-05    0.67     105.9  T
     SCC iter.                  ...        0 min,  0.081 sec
     gradient                   ...        0 min,  0.072 sec
 * total energy  :  -253.4485095 Eh     change       -0.1111567E-07 Eh
   gradient norm :     0.3031004 Eh/α   predicted     0.0000000E+00 (-100.00%)
   displ. norm   :     0.4634205 α      lambda       -0.9599022E-01
   maximum displ.:     0.0842071 α      in ANC's #131, #234, #122, ...

........................................................................
.............................. CYCLE    2 ..............................
........................................................................
   1   -257.3786865 -0.257379E+03  0.281E-01    0.64       0.0  T
   2   -257.3802327 -0.154626E-02  0.173E-01    0.68       1.0  T
   3   -257.3801652  0.674834E-04  0.101E-01    0.67       1.0  T
   4   -257.3807653 -0.600043E-03  0.420E-02    0.67       1.0  T
   5   -257.3809800 -0.214755E-03  0.195E-02    0.68       1.0  T
   6   -257.3810219 -0.418840E-04  0.776E-03    0.68       1.1  T
   7   -257.3810269 -0.499066E-05  0.385E-03    0.68       2.1  T
   8   -257.3810282 -0.132242E-05  0.171E-03    0.68       4.8  T
   9   -257.3810284 -0.127536E-06  0.925E-04    0.68       8.8  T
  10   -257.3810284 -0.280412E-07  0.459E-04    0.68      17.8  T
     SCC iter.                  ...        0 min,  0.284 sec
     gradient                   ...        0 min,  0.073 sec
 * total energy  :  -253.5181381 Eh     change       -0.6962861E-01 Eh
   gradient norm :     0.1434563 Eh/α   predicted    -0.5834888E-01 ( -16.20%)
   displ. norm   :     0.4827431 α      lambda       -0.4071384E-01
   maximum displ.:     0.1100853 α      in ANC's #72, #91, #86, ...

........................................................................
.............................. CYCLE    3 ..............................
........................................................................
   1   -257.4930449 -0.257493E+03  0.234E-01    0.62       0.0  T
   2   -257.4941483 -0.110342E-02  0.147E-01    0.65       1.0  T
   3   -257.4943155 -0.167185E-03  0.932E-02    0.65       1.0  T
   4   -257.4948745 -0.559008E-03  0.450E-02    0.66       1.0  T
   5   -257.4951564 -0.281956E-03  0.204E-02    0.66       1.0  T
   6   -257.4952035 -0.470883E-04  0.677E-03    0.66       1.2  T
   7   -257.4952063 -0.274076E-05  0.360E-03    0.66       2.3  T
   8   -257.4952074 -0.113720E-05  0.162E-03    0.66       5.0  T
   9   -257.4952075 -0.135908E-06  0.896E-04    0.66       9.1  T
  10   -257.4952076 -0.274424E-07  0.439E-04    0.66      18.6  T
     SCC iter.                  ...        0 min,  0.268 sec
     gradient                   ...        0 min,  0.072 sec
 * total energy  :  -253.5439280 Eh     change       -0.2578984E-01 Eh
   gradient norm :     0.0425576 Eh/α   predicted    -0.2510093E-01 (  -2.67%)
   displ. norm   :     0.5362614 α      lambda       -0.1182429E-01
   maximum displ.:     0.1834749 α      in ANC's #72, #91, #86, ...

........................................................................
.............................. CYCLE    4 ..............................
........................................................................
   1   -257.5252410 -0.257525E+03  0.180E-01    0.65       0.0  T
   2   -257.5253556 -0.114624E-03  0.108E-01    0.65       1.0  T
   3   -257.5243929  0.962731E-03  0.798E-02    0.66       1.0  T
   4   -257.5255848 -0.119198E-02  0.235E-02    0.66       1.0  T
   5   -257.5256721 -0.872633E-04  0.104E-02    0.66       1.0  T
   6   -257.5256826 -0.104858E-04  0.362E-03    0.66       2.3  T
   7   -257.5256832 -0.622973E-06  0.197E-03    0.66       4.2  T
   8   -257.5256836 -0.354687E-06  0.888E-04    0.66       9.2  T
   9   -257.5256836 -0.361584E-07  0.496E-04    0.66      16.5  T
     SCC iter.                  ...        0 min,  0.253 sec
     gradient                   ...        0 min,  0.072 sec
 * total energy  :  -253.5513171 Eh     change       -0.7389119E-02 Eh
   gradient norm :     0.0259636 Eh/α   predicted    -0.7612348E-02 (   3.02%)
   displ. norm   :     0.6701242 α      lambda       -0.9684484E-02
   maximum displ.:     0.1911179 α      in ANC's #37, #72, #91, ...

........................................................................
.............................. CYCLE    5 ..............................
........................................................................
   1   -257.5481467 -0.257548E+03  0.337E-01    0.64       0.0  T
   2   -257.5483108 -0.164112E-03  0.191E-01    0.64       1.0  T
   3   -257.5446223  0.368851E-02  0.128E-01    0.63       1.0  T
   4   -257.5486823 -0.406003E-02  0.222E-02    0.64       1.0  T
   5   -257.5487486 -0.662810E-04  0.108E-02    0.64       1.0  T
   6   -257.5487577 -0.909765E-05  0.440E-03    0.64       1.9  T
   7   -257.5487586 -0.982834E-06  0.226E-03    0.64       3.6  T
   8   -257.5487591 -0.497229E-06  0.107E-03    0.64       7.6  T
   9   -257.5487592 -0.553116E-07  0.576E-04    0.64      14.2  T
  10   -257.5487592 -0.133792E-07  0.295E-04    0.64      27.7  T
     SCC iter.                  ...        0 min,  0.265 sec
     gradient                   ...        0 min,  0.072 sec
 * total energy  :  -253.5540286 Eh     change       -0.2711531E-02 Eh
   gradient norm :     0.0362383 Eh/α   predicted    -0.7016750E-02 ( 158.77%)
   displ. norm   :     0.3570636 α      lambda       -0.5370497E-02
   maximum displ.:     0.1081739 α      in ANC's #22, #39, #28, ...

........................................................................
.............................. CYCLE    6 ..............................
........................................................................
   1   -257.5581605 -0.257558E+03  0.188E-01    0.64       0.0  T
   2   -257.5582381 -0.775249E-04  0.104E-01    0.65       1.0  T
   3   -257.5581540  0.840865E-04  0.275E-02    0.64       1.0  T
   4   -257.5582687 -0.114709E-03  0.665E-03    0.64       1.2  T
   5   -257.5582713 -0.262665E-05  0.394E-03    0.64       2.1  T
   6   -257.5582729 -0.160532E-05  0.172E-03    0.64       4.8  T
   7   -257.5582732 -0.290419E-06  0.694E-04    0.64      11.8  T
   8   -257.5582733 -0.400198E-07  0.318E-04    0.64      25.7  T
     SCC iter.                  ...        0 min,  0.213 sec
     gradient                   ...        0 min,  0.073 sec
 * total energy  :  -253.5569221 Eh     change       -0.2893529E-02 Eh
   gradient norm :     0.0255970 Eh/α   predicted    -0.3027606E-02 (   4.63%)
   displ. norm   :     0.4800095 α      lambda       -0.4530407E-02
   maximum displ.:     0.1481239 α      in ANC's #55, #39, #64, ...

........................................................................
.............................. CYCLE    7 ..............................
........................................................................
   1   -257.5514398 -0.257551E+03  0.244E-01    0.67       0.0  T
   2   -257.5515559 -0.116139E-03  0.137E-01    0.67       1.0  T
   3   -257.5512101  0.345800E-03  0.553E-02    0.66       1.0  T
   4   -257.5516261 -0.415943E-03  0.974E-03    0.67       1.0  T
   5   -257.5516324 -0.632683E-05  0.564E-03    0.67       1.4  T
   6   -257.5516357 -0.326091E-05  0.253E-03    0.67       3.2  T
   7   -257.5516364 -0.697544E-06  0.108E-03    0.67       7.5  T
   8   -257.5516365 -0.911293E-07  0.530E-04    0.67      15.4  T
   9   -257.5516365 -0.255981E-07  0.259E-04    0.67      31.5  T
     SCC iter.                  ...        0 min,  0.228 sec
     gradient                   ...        0 min,  0.073 sec
 * total energy  :  -253.5571568 Eh     change       -0.2346316E-03 Eh
   gradient norm :     0.0266677 Eh/α   predicted    -0.2787139E-02 (1087.88%)
   displ. norm   :     0.2954421 α      lambda       -0.3899245E-02
   maximum displ.:     0.0831913 α      in ANC's #37, #16, #39, ...

........................................................................
.............................. CYCLE    8 ..............................
........................................................................
   1   -257.5607110 -0.257561E+03  0.181E-01    0.65       0.0  T
   2   -257.5607708 -0.597411E-04  0.101E-01    0.65       1.0  T
   3   -257.5604112  0.359618E-03  0.423E-02    0.65       1.0  T
   4   -257.5608155 -0.404324E-03  0.746E-03    0.65       1.1  T
   5   -257.5608223 -0.679597E-05  0.383E-03    0.65       2.1  T
   6   -257.5608234 -0.108908E-05  0.143E-03    0.65       5.7  T
   7   -257.5608235 -0.149901E-06  0.689E-04    0.65      11.9  T
   8   -257.5608236 -0.459099E-07  0.323E-04    0.65      25.3  T
     SCC iter.                  ...        0 min,  0.227 sec
     gradient                   ...        0 min,  0.072 sec
 * total energy  :  -253.5596306 Eh     change       -0.2473835E-02 Eh
   gradient norm :     0.0144927 Eh/α   predicted    -0.2119812E-02 ( -14.31%)
   displ. norm   :     0.4607475 α      lambda       -0.1979253E-02
   maximum displ.:     0.1427529 α      in ANC's #36, #39, #37, ...

........................................................................
.............................. CYCLE    9 ..............................
........................................................................
   1   -257.5625818 -0.257563E+03  0.173E-01    0.63       0.0  T
   2   -257.5626339 -0.520460E-04  0.964E-02    0.63       1.0  T
   3   -257.5623992  0.234636E-03  0.333E-02    0.63       1.0  T
   4   -257.5626624 -0.263195E-03  0.758E-03    0.63       1.1  T
   5   -257.5626682 -0.574287E-05  0.420E-03    0.63       1.9  T
   6   -257.5626696 -0.142939E-05  0.166E-03    0.63       4.9  T
   7   -257.5626698 -0.226751E-06  0.736E-04    0.63      11.1  T
   8   -257.5626699 -0.473889E-07  0.354E-04    0.63      23.1  T
     SCC iter.                  ...        0 min,  0.216 sec
     gradient                   ...        0 min,  0.072 sec
 * total energy  :  -253.5603835 Eh     change       -0.7528596E-03 Eh
   gradient norm :     0.0324867 Eh/α   predicted    -0.1199713E-02 (  59.35%)
   displ. norm   :     0.5172338 α      lambda       -0.2665794E-02
   maximum displ.:     0.2198786 α      in ANC's #39, #32, #21, ...

........................................................................
.............................. CYCLE   10 ..............................
........................................................................
   1   -257.5677493 -0.257568E+03  0.160E-01    0.63       0.0  T
   2   -257.5677976 -0.483063E-04  0.892E-02    0.64       1.0  T
   3   -257.5676364  0.161150E-03  0.288E-02    0.64       1.0  T
   4   -257.5678219 -0.185506E-03  0.679E-03    0.64       1.2  T
   5   -257.5678250 -0.307706E-05  0.403E-03    0.64       2.0  T
   6   -257.5678267 -0.162922E-05  0.138E-03    0.64       5.9  T
   7   -257.5678268 -0.162158E-06  0.548E-04    0.64      14.9  T
   8   -257.5678268 -0.234749E-07  0.293E-04    0.64      27.8  T
     SCC iter.                  ...        0 min,  0.220 sec
     gradient                   ...        0 min,  0.073 sec
 * total energy  :  -253.5620162 Eh     change       -0.1632747E-02 Eh
   gradient norm :     0.0248349 Eh/α   predicted    -0.1689490E-02 (   3.48%)
   displ. norm   :     0.5164913 α      lambda       -0.1855863E-02
   maximum displ.:     0.2229903 α      in ANC's #39, #21, #32, ...

........................................................................
.............................. CYCLE   11 ..............................
........................................................................
   1   -257.5756073 -0.257576E+03  0.126E-01    0.64       0.0  T
   2   -257.5756429 -0.355876E-04  0.704E-02    0.64       1.0  T
   3   -257.5755803  0.625597E-04  0.208E-02    0.64       1.0  T
   4   -257.5756535 -0.731424E-04  0.649E-03    0.65       1.3  T
   5   -257.5756558 -0.237228E-05  0.405E-03    0.64       2.0  T
   6   -257.5756580 -0.214582E-05  0.134E-03    0.65       6.1  T
   7   -257.5756582 -0.194654E-06  0.525E-04    0.64      15.6  T
   8   -257.5756582 -0.219889E-07  0.274E-04    0.64      29.7  T
     SCC iter.                  ...        0 min,  0.213 sec
     gradient                   ...        0 min,  0.072 sec
 * total energy  :  -253.5631335 Eh     change       -0.1117264E-02 Eh
   gradient norm :     0.0275026 Eh/α   predicted    -0.1175470E-02 (   5.21%)
   displ. norm   :     0.6431978 α      lambda       -0.2518845E-02
   maximum displ.:     0.2412488 α      in ANC's #39, #21, #32, ...

........................................................................
.............................. CYCLE   12 ..............................
........................................................................
   1   -257.5900528 -0.257590E+03  0.180E-01    0.65       0.0  T
   2   -257.5901206 -0.677878E-04  0.101E-01    0.66       1.0  T
   3   -257.5900266  0.940503E-04  0.263E-02    0.65       1.0  T
   4   -257.5901360 -0.109471E-03  0.934E-03    0.66       1.0  T
   5   -257.5901444 -0.835196E-05  0.494E-03    0.65       1.7  T
   6   -257.5901474 -0.296712E-05  0.182E-03    0.66       4.5  T
   7   -257.5901477 -0.341277E-06  0.658E-04    0.65      12.4  T
   8   -257.5901477 -0.351891E-07  0.345E-04    0.65      23.7  T
     SCC iter.                  ...        0 min,  0.203 sec
     gradient                   ...        0 min,  0.072 sec
 * total energy  :  -253.5633434 Eh     change       -0.2099058E-03 Eh
   gradient norm :     0.0559805 Eh/α   predicted    -0.1780467E-02 ( 748.22%)
   displ. norm   :     0.3750601 α      lambda       -0.2981772E-02
   maximum displ.:     0.1319242 α      in ANC's #39, #21, #32, ...

........................................................................
.............................. CYCLE   13 ..............................
........................................................................
   1   -257.5740563 -0.257574E+03  0.132E-01    0.64       0.0  T
   2   -257.5740908 -0.345196E-04  0.737E-02    0.64       1.0  T
   3   -257.5739436  0.147197E-03  0.310E-02    0.64       1.0  T
   4   -257.5741119 -0.168337E-03  0.601E-03    0.65       1.4  T
   5   -257.5741142 -0.229432E-05  0.406E-03    0.64       2.0  T
   6   -257.5741163 -0.205566E-05  0.120E-03    0.64       6.8  T
   7   -257.5741164 -0.990349E-07  0.562E-04    0.64      14.5  T
   8   -257.5741164 -0.315082E-07  0.277E-04    0.64      29.5  T
     SCC iter.                  ...        0 min,  0.227 sec
     gradient                   ...        0 min,  0.073 sec
 * total energy  :  -253.5651954 Eh     change       -0.1852039E-02 Eh
   gradient norm :     0.0168604 Eh/α   predicted    -0.1700611E-02 (  -8.18%)
   displ. norm   :     0.5747599 α      lambda       -0.1417635E-02
   maximum displ.:     0.2621606 α      in ANC's #39, #21, #32, ...

........................................................................
.............................. CYCLE   14 ..............................
........................................................................
   1   -257.5701715 -0.257570E+03  0.131E-01    0.62       0.0  T
   2   -257.5702051 -0.336024E-04  0.725E-02    0.63       1.0  T
   3   -257.5701321  0.729811E-04  0.223E-02    0.63       1.0  T
   4   -257.5702162 -0.840607E-04  0.743E-03    0.64       1.1  T
   5   -257.5702192 -0.306164E-05  0.482E-03    0.64       1.7  T
   6   -257.5702226 -0.339096E-05  0.136E-03    0.64       6.0  T
   7   -257.5702228 -0.210846E-06  0.524E-04    0.64      15.6  T
   8   -257.5702228 -0.220954E-07  0.275E-04    0.64      29.7  T
     SCC iter.                  ...        0 min,  0.228 sec
     gradient                   ...        0 min,  0.073 sec
 * total energy  :  -253.5661431 Eh     change       -0.9476839E-03 Eh
   gradient norm :     0.0221929 Eh/α   predicted    -0.9429778E-03 (  -0.50%)
   displ. norm   :     0.6440485 α      lambda       -0.1379488E-02
   maximum displ.:     0.2479569 α      in ANC's #39, #21, #32, ...

........................................................................
.............................. CYCLE   15 ..............................
........................................................................
   1   -257.5745755 -0.257575E+03  0.123E-01    0.63       0.0  T
   2   -257.5745991 -0.235960E-04  0.671E-02    0.63       1.0  T
   3   -257.5745368  0.623158E-04  0.206E-02    0.63       1.0  T
   4   -257.5746052 -0.684375E-04  0.796E-03    0.64       1.0  T
   5   -257.5746088 -0.363261E-05  0.445E-03    0.63       1.8  T
   6   -257.5746118 -0.293150E-05  0.132E-03    0.63       6.2  T
   7   -257.5746120 -0.238045E-06  0.536E-04    0.63      15.2  T
   8   -257.5746120 -0.300386E-07  0.249E-04    0.63      32.8  T
     SCC iter.                  ...        0 min,  0.216 sec
     gradient                   ...        0 min,  0.073 sec
 * total energy  :  -253.5672688 Eh     change       -0.1125714E-02 Eh
   gradient norm :     0.0198666 Eh/α   predicted    -0.9758503E-03 ( -13.31%)
   displ. norm   :     0.7083804 α      lambda       -0.1705207E-02
   maximum displ.:     0.2826561 α      in ANC's #21, #39, #32, ...

........................................................................
.............................. CYCLE   16 ..............................
........................................................................
   1   -257.5906636 -0.257591E+03  0.131E-01    0.63       0.0  T
   2   -257.5906931 -0.294984E-04  0.705E-02    0.63       1.0  T
   3   -257.5906173  0.757774E-04  0.249E-02    0.63       1.0  T
   4   -257.5907023 -0.849630E-04  0.899E-03    0.63       1.0  T
   5   -257.5907052 -0.291766E-05  0.469E-03    0.63       1.7  T
   6   -257.5907083 -0.312924E-05  0.142E-03    0.63       5.7  T
   7   -257.5907086 -0.245920E-06  0.601E-04    0.63      13.6  T
   8   -257.5907086 -0.376817E-07  0.291E-04    0.63      28.1  T
     SCC iter.                  ...        0 min,  0.211 sec
     gradient                   ...        0 min,  0.073 sec
 * total energy  :  -253.5683728 Eh     change       -0.1104021E-02 Eh
   gradient norm :     0.0206965 Eh/α   predicted    -0.1280447E-02 (  15.98%)
   displ. norm   :     0.7381044 α      lambda       -0.1393134E-02
   maximum displ.:     0.2953023 α      in ANC's #39, #21, #6, ...

........................................................................
.............................. CYCLE   17 ..............................
........................................................................
   1   -257.5750683 -0.257575E+03  0.135E-01    0.62       0.0  T
   2   -257.5750964 -0.280711E-04  0.736E-02    0.63       1.0  T
   3   -257.5750152  0.812083E-04  0.240E-02    0.62       1.0  T
   4   -257.5750998 -0.846535E-04  0.101E-02    0.63       1.0  T
   5   -257.5751073 -0.745799E-05  0.497E-03    0.63       1.6  T
   6   -257.5751110 -0.371134E-05  0.157E-03    0.63       5.2  T
   7   -257.5751114 -0.358507E-06  0.532E-04    0.63      15.4  T
   8   -257.5751114 -0.189651E-07  0.293E-04    0.63      27.9  T
     SCC iter.                  ...        0 min,  0.214 sec
     gradient                   ...        0 min,  0.072 sec
 * total energy  :  -253.5694328 Eh     change       -0.1059980E-02 Eh
   gradient norm :     0.0129345 Eh/α   predicted    -0.1076056E-02 (   1.52%)
   displ. norm   :     0.6645126 α      lambda       -0.1287061E-02
   maximum displ.:     0.2431423 α      in ANC's #21, #39, #14, ...

........................................................................
.............................. CYCLE   18 ..............................
........................................................................
   1   -257.5787338 -0.257579E+03  0.120E-01    0.62       0.0  T
   2   -257.5787647 -0.308903E-04  0.637E-02    0.63       1.0  T
   3   -257.5787316  0.330813E-04  0.184E-02    0.63       1.0  T
   4   -257.5787687 -0.370890E-04  0.878E-03    0.63       1.0  T
   5   -257.5787737 -0.497406E-05  0.411E-03    0.63       2.0  T
   6   -257.5787760 -0.232286E-05  0.137E-03    0.63       6.0  T
   7   -257.5787763 -0.258463E-06  0.593E-04    0.63      13.8  T
   8   -257.5787763 -0.418262E-07  0.277E-04    0.63      29.5  T
     SCC iter.                  ...        0 min,  0.214 sec
     gradient                   ...        0 min,  0.073 sec
 * total energy  :  -253.5702665 Eh     change       -0.8336839E-03 Eh
   gradient norm :     0.0257737 Eh/α   predicted    -0.9277006E-03 (  11.28%)
   displ. norm   :     0.6629709 α      lambda       -0.1167671E-02
   maximum displ.:     0.2536220 α      in ANC's #21, #39, #14, ...

........................................................................
.............................. CYCLE   19 ..............................
........................................................................
   1   -257.5739052 -0.257574E+03  0.107E-01    0.62       0.0  T
   2   -257.5739314 -0.261979E-04  0.572E-02    0.62       1.0  T
   3   -257.5738676  0.637404E-04  0.222E-02    0.63       1.0  T
   4   -257.5739372 -0.695405E-04  0.885E-03    0.63       1.0  T
   5   -257.5739423 -0.509915E-05  0.384E-03    0.63       2.1  T
   6   -257.5739434 -0.117746E-05  0.176E-03    0.63       4.6  T
   7   -257.5739439 -0.500408E-06  0.575E-04    0.63      14.2  T
   8   -257.5739440 -0.452239E-07  0.258E-04    0.63      31.7  T
     SCC iter.                  ...        0 min,  0.209 sec
     gradient                   ...        0 min,  0.073 sec
 * total energy  :  -253.5711170 Eh     change       -0.8504588E-03 Eh
   gradient norm :     0.0177271 Eh/α   predicted    -0.8404554E-03 (  -1.18%)
   displ. norm   :     0.5820532 α      lambda       -0.1145652E-02
   maximum displ.:     0.2023365 α      in ANC's #21, #14, #6, ...

........................................................................
.............................. CYCLE   20 ..............................
........................................................................
   1   -257.5824443 -0.257582E+03  0.930E-02    0.61       0.0  T
   2   -257.5824622 -0.179492E-04  0.485E-02    0.62       1.0  T
   3   -257.5824394  0.227782E-04  0.154E-02    0.62       1.0  T
   4   -257.5824647 -0.252575E-04  0.711E-03    0.63       1.1  T
   5   -257.5824671 -0.240810E-05  0.359E-03    0.62       2.3  T
   6   -257.5824688 -0.169858E-05  0.114E-03    0.62       7.2  T
   7   -257.5824690 -0.171444E-06  0.513E-04    0.62      15.9  T
   8   -257.5824690 -0.299073E-07  0.251E-04    0.62      32.5  T
     SCC iter.                  ...        0 min,  0.202 sec
     gradient                   ...        0 min,  0.073 sec
 * total energy  :  -253.5718495 Eh     change       -0.7325664E-03 Eh
   gradient norm :     0.0164319 Eh/α   predicted    -0.7668956E-03 (   4.69%)
   displ. norm   :     0.6828603 α      lambda       -0.9305942E-03
   maximum displ.:     0.2374220 α      in ANC's #21, #14, #6, ...
 * RMSD in coord.:     0.6912420 α      energy gain  -0.1233400E+00 Eh

generating ANC from model Hessian ...
Using Lindh-Hessian (1995)
 Shifting diagonal of input Hessian by   1.000867948651414E-002
 Lowest  eigenvalues of input Hessian
    0.010000    0.000000    0.000000    0.000000    0.000000    0.000000
    0.000000    0.010017    0.010021    0.010028    0.010053    0.010074
    0.010106    0.010131    0.010157    0.010191    0.010206    0.010245
 Highest eigenvalues
    2.266781    2.303686    2.602869    2.611860    2.646699    2.655169
 

........................................................................
.............................. CYCLE   21 ..............................
........................................................................
   1   -257.5808355 -0.257581E+03  0.111E-01    0.62       0.0  T
   2   -257.5808608 -0.253530E-04  0.577E-02    0.62       1.0  T
   3   -257.5808420  0.188784E-04  0.154E-02    0.63       1.0  T
   4   -257.5808619 -0.199731E-04  0.838E-03    0.63       1.0  T
   5   -257.5808666 -0.469700E-05  0.359E-03    0.63       2.3  T
   6   -257.5808685 -0.182974E-05  0.141E-03    0.63       5.8  T
   7   -257.5808688 -0.368904E-06  0.463E-04    0.63      17.6  T
   8   -257.5808688 -0.219275E-07  0.229E-04    0.63      35.7  T
     SCC iter.                  ...        0 min,  0.225 sec
     gradient                   ...        0 min,  0.073 sec
 * total energy  :  -253.5726166 Eh     change       -0.7670948E-03 Eh
   gradient norm :     0.0120926 Eh/α   predicted     0.0000000E+00 (-100.00%)
   displ. norm   :     0.1590497 α      lambda       -0.4836997E-03
   maximum displ.:     0.0457114 α      in ANC's #14, #6, #21, ...

........................................................................
.............................. CYCLE   22 ..............................
........................................................................
   1   -257.5826484 -0.257583E+03  0.735E-02    0.62       0.0  T
   2   -257.5826619 -0.134769E-04  0.404E-02    0.63       1.0  T
   3   -257.5826531  0.875925E-05  0.935E-03    0.63       1.0  T
   4   -257.5826663 -0.131616E-04  0.291E-03    0.63       2.8  T
   5   -257.5826668 -0.530797E-06  0.169E-03    0.63       4.8  T
   6   -257.5826672 -0.387363E-06  0.684E-04    0.63      11.9  T
   7   -257.5826673 -0.649912E-07  0.269E-04    0.63      30.3  T
     SCC iter.                  ...        0 min,  0.193 sec
     gradient                   ...        0 min,  0.073 sec
 * total energy  :  -253.5728554 Eh     change       -0.2388113E-03 Eh
   gradient norm :     0.0077765 Eh/α   predicted    -0.2479840E-03 (   3.84%)
   displ. norm   :     0.3409317 α      lambda       -0.8436742E-03
   maximum displ.:     0.1176893 α      in ANC's #14, #21, #36, ...

........................................................................
.............................. CYCLE   23 ..............................
........................................................................
   1   -257.5886868 -0.257589E+03  0.822E-02    0.62       0.0  T
   2   -257.5887017 -0.148560E-04  0.446E-02    0.62       1.0  T
   3   -257.5886446  0.571034E-04  0.187E-02    0.63       1.0  T
   4   -257.5887073 -0.627401E-04  0.563E-03    0.63       1.4  T
   5   -257.5887098 -0.253001E-05  0.292E-03    0.63       2.8  T
   6   -257.5887109 -0.102570E-05  0.118E-03    0.63       6.9  T
   7   -257.5887111 -0.212174E-06  0.443E-04    0.63      18.4  T
   8   -257.5887111 -0.214142E-07  0.216E-04    0.63      37.7  T
     SCC iter.                  ...        0 min,  0.216 sec
     gradient                   ...        0 min,  0.073 sec
 * total energy  :  -253.5732263 Eh     change       -0.3708679E-03 Eh
   gradient norm :     0.0159865 Eh/α   predicted    -0.4708697E-03 (  26.96%)
   displ. norm   :     0.3550906 α      lambda       -0.8069426E-03
   maximum displ.:     0.1193591 α      in ANC's #14, #21, #6, ...

........................................................................
.............................. CYCLE   24 ..............................
........................................................................
   1   -257.5904185 -0.257590E+03  0.972E-02    0.62       0.0  T
   2   -257.5904381 -0.195886E-04  0.522E-02    0.63       1.0  T
   3   -257.5904117  0.263566E-04  0.147E-02    0.63       1.0  T
   4   -257.5904438 -0.320983E-04  0.550E-03    0.63       1.5  T
   5   -257.5904460 -0.219287E-05  0.276E-03    0.63       3.0  T
   6   -257.5904471 -0.108255E-05  0.726E-04    0.63      11.3  T
   7   -257.5904471 -0.537703E-07  0.318E-04    0.63      25.7  T
   8   -257.5904471 -0.555502E-08  0.188E-04    0.63      43.4  T
     SCC iter.                  ...        0 min,  0.219 sec
     gradient                   ...        0 min,  0.072 sec
 * total energy  :  -253.5736660 Eh     change       -0.4397083E-03 Eh
   gradient norm :     0.0137300 Eh/α   predicted    -0.4543614E-03 (   3.33%)
   displ. norm   :     0.4342572 α      lambda       -0.8255792E-03
   maximum displ.:     0.1481424 α      in ANC's #14, #21, #6, ...

........................................................................
.............................. CYCLE   25 ..............................
........................................................................
   1   -257.5871265 -0.257587E+03  0.852E-02    0.63       0.0  T
   2   -257.5871430 -0.165416E-04  0.438E-02    0.63       1.0  T
   3   -257.5871300  0.130105E-04  0.126E-02    0.63       1.0  T
   4   -257.5871470 -0.170159E-04  0.570E-03    0.63       1.4  T
   5   -257.5871485 -0.148231E-05  0.236E-03    0.63       3.5  T
   6   -257.5871491 -0.534956E-06  0.872E-04    0.63       9.4  T
   7   -257.5871492 -0.965787E-07  0.333E-04    0.63      24.5  T
     SCC iter.                  ...        0 min,  0.191 sec
     gradient                   ...        0 min,  0.073 sec
 * total energy  :  -253.5742767 Eh     change       -0.6107377E-03 Eh
   gradient norm :     0.0107012 Eh/α   predicted    -0.4906340E-03 ( -19.67%)
   displ. norm   :     0.5928825 α      lambda       -0.8930951E-03
   maximum displ.:     0.2033799 α      in ANC's #14, #21, #6, ...

........................................................................
.............................. CYCLE   26 ..............................
........................................................................
   1   -257.5789766 -0.257579E+03  0.118E-01    0.63       0.0  T
   2   -257.5790045 -0.279049E-04  0.608E-02    0.64       1.0  T
   3   -257.5789767  0.277370E-04  0.178E-02    0.64       1.0  T
   4   -257.5790131 -0.363417E-04  0.741E-03    0.64       1.1  T
   5   -257.5790151 -0.198794E-05  0.290E-03    0.64       2.8  T
   6   -257.5790159 -0.836887E-06  0.102E-03    0.64       8.0  T
   7   -257.5790160 -0.115407E-06  0.434E-04    0.64      18.8  T
   8   -257.5790160 -0.537824E-08  0.273E-04    0.64      29.9  T
     SCC iter.                  ...        0 min,  0.216 sec
     gradient                   ...        0 min,  0.073 sec
 * total energy  :  -253.5747659 Eh     change       -0.4891835E-03 Eh
   gradient norm :     0.0153582 Eh/α   predicted    -0.6035138E-03 (  23.37%)
   displ. norm   :     0.4709124 α      lambda       -0.8850002E-03
   maximum displ.:     0.1695728 α      in ANC's #14, #6, #21, ...

........................................................................
.............................. CYCLE   27 ..............................
........................................................................
   1   -257.5774376 -0.257577E+03  0.959E-02    0.64       0.0  T
   2   -257.5774552 -0.176243E-04  0.502E-02    0.64       1.0  T
   3   -257.5774292  0.260539E-04  0.154E-02    0.64       1.0  T
   4   -257.5774613 -0.321049E-04  0.601E-03    0.64       1.4  T
   5   -257.5774624 -0.110746E-05  0.306E-03    0.64       2.7  T
   6   -257.5774639 -0.155627E-05  0.764E-04    0.64      10.7  T
   7   -257.5774640 -0.698429E-07  0.413E-04    0.64      19.8  T
   8   -257.5774640 -0.156216E-07  0.222E-04    0.64      36.8  T
     SCC iter.                  ...        0 min,  0.216 sec
     gradient                   ...        0 min,  0.072 sec
 * total energy  :  -253.5753580 Eh     change       -0.5921004E-03 Eh
   gradient norm :     0.0155600 Eh/α   predicted    -0.5406358E-03 (  -8.69%)
   displ. norm   :     0.4294423 α      lambda       -0.9247166E-03
   maximum displ.:     0.1611976 α      in ANC's #14, #6, #3, ...

........................................................................
.............................. CYCLE   28 ..............................
........................................................................
   1   -257.5871454 -0.257587E+03  0.733E-02    0.63       0.0  T
   2   -257.5871549 -0.948574E-05  0.387E-02    0.64       1.0  T
   3   -257.5871138  0.411132E-04  0.168E-02    0.64       1.0  T
   4   -257.5871589 -0.451053E-04  0.559E-03    0.64       1.5  T
   5   -257.5871606 -0.168836E-05  0.298E-03    0.64       2.7  T
   6   -257.5871618 -0.118946E-05  0.960E-04    0.64       8.5  T
   7   -257.5871619 -0.150064E-06  0.420E-04    0.64      19.5  T
   8   -257.5871619 -0.190853E-07  0.210E-04    0.64      38.9  T
     SCC iter.                  ...        0 min,  0.214 sec
     gradient                   ...        0 min,  0.073 sec
 * total energy  :  -253.5759501 Eh     change       -0.5920399E-03 Eh
   gradient norm :     0.0112555 Eh/α   predicted    -0.5476296E-03 (  -7.50%)
   displ. norm   :     0.6670216 α      lambda       -0.9671586E-03
   maximum displ.:     0.2411655 α      in ANC's #14, #6, #3, ...

........................................................................
.............................. CYCLE   29 ..............................
........................................................................
   1   -257.5861554 -0.257586E+03  0.114E-01    0.63       0.0  T
   2   -257.5861807 -0.253152E-04  0.582E-02    0.64       1.0  T
   3   -257.5861734  0.736445E-05  0.128E-02    0.64       1.0  T
   4   -257.5861820 -0.861083E-05  0.791E-03    0.64       1.0  T
   5   -257.5861866 -0.461490E-05  0.344E-03    0.64       2.4  T
   6   -257.5861885 -0.189839E-05  0.967E-04    0.64       8.4  T
   7   -257.5861886 -0.125202E-06  0.431E-04    0.64      18.9  T
   8   -257.5861886 -0.168376E-07  0.234E-04    0.64      34.9  T
     SCC iter.                  ...        0 min,  0.216 sec
     gradient                   ...        0 min,  0.073 sec
 * total energy  :  -253.5767659 Eh     change       -0.8158033E-03 Eh
   gradient norm :     0.0086152 Eh/α   predicted    -0.6987352E-03 ( -14.35%)
   displ. norm   :     0.7736548 α      lambda       -0.9799685E-03
   maximum displ.:     0.2766345 α      in ANC's #14, #6, #3, ...

........................................................................
.............................. CYCLE   30 ..............................
........................................................................
   1   -257.5832587 -0.257583E+03  0.119E-01    0.63       0.0  T
   2   -257.5832864 -0.277204E-04  0.596E-02    0.64       1.0  T
   3   -257.5832763  0.101465E-04  0.143E-02    0.64       1.0  T
   4   -257.5832883 -0.120849E-04  0.844E-03    0.64       1.0  T
   5   -257.5832925 -0.411865E-05  0.362E-03    0.64       2.3  T
   6   -257.5832941 -0.167121E-05  0.124E-03    0.64       6.6  T
   7   -257.5832944 -0.228812E-06  0.405E-04    0.64      20.2  T
   8   -257.5832944 -0.112362E-07  0.245E-04    0.64      33.3  T
     SCC iter.                  ...        0 min,  0.214 sec
     gradient                   ...        0 min,  0.073 sec
 * total energy  :  -253.5775890 Eh     change       -0.8231384E-03 Eh
   gradient norm :     0.0098193 Eh/α   predicted    -0.7832651E-03 (  -4.84%)
   displ. norm   :     0.6847818 α      lambda       -0.1081234E-02
   maximum displ.:     0.2587287 α      in ANC's #6, #3, #14, ...

........................................................................
.............................. CYCLE   31 ..............................
........................................................................
   1   -257.5922353 -0.257592E+03  0.106E-01    0.62       0.0  T
   2   -257.5922577 -0.223988E-04  0.557E-02    0.63       1.0  T
   3   -257.5922319  0.258745E-04  0.166E-02    0.63       1.0  T
   4   -257.5922602 -0.283276E-04  0.812E-03    0.63       1.0  T
   5   -257.5922642 -0.403561E-05  0.366E-03    0.63       2.2  T
   6   -257.5922659 -0.164583E-05  0.128E-03    0.63       6.4  T
   7   -257.5922661 -0.233654E-06  0.591E-04    0.63      13.8  T
   8   -257.5922662 -0.518276E-07  0.274E-04    0.63      29.8  T
     SCC iter.                  ...        0 min,  0.208 sec
     gradient                   ...        0 min,  0.073 sec
 * total energy  :  -253.5782019 Eh     change       -0.6128578E-03 Eh
   gradient norm :     0.0186618 Eh/α   predicted    -0.7941291E-03 (  29.58%)
   displ. norm   :     0.7172214 α      lambda       -0.1163736E-02
   maximum displ.:     0.2581124 α      in ANC's #6, #14, #3, ...

........................................................................
.............................. CYCLE   32 ..............................
........................................................................
   1   -257.5839771 -0.257584E+03  0.120E-01    0.63       0.0  T
   2   -257.5840053 -0.282598E-04  0.601E-02    0.63       1.0  T
   3   -257.5839819  0.233928E-04  0.165E-02    0.63       1.0  T
   4   -257.5840069 -0.249471E-04  0.893E-03    0.64       1.0  T
   5   -257.5840117 -0.479626E-05  0.449E-03    0.63       1.8  T
   6   -257.5840147 -0.300791E-05  0.133E-03    0.63       6.1  T
   7   -257.5840149 -0.245727E-06  0.526E-04    0.63      15.5  T
   8   -257.5840150 -0.264191E-07  0.277E-04    0.63      29.4  T
     SCC iter.                  ...        0 min,  0.202 sec
     gradient                   ...        0 min,  0.073 sec
 * total energy  :  -253.5790687 Eh     change       -0.8667972E-03 Eh
   gradient norm :     0.0140308 Eh/α   predicted    -0.8811867E-03 (   1.66%)
   displ. norm   :     0.5909598 α      lambda       -0.1005021E-02
   maximum displ.:     0.2218599 α      in ANC's #6, #3, #14, ...

........................................................................
.............................. CYCLE   33 ..............................
........................................................................
   1   -257.5836514 -0.257584E+03  0.949E-02    0.63       0.0  T
   2   -257.5836714 -0.200048E-04  0.498E-02    0.63       1.0  T
   3   -257.5836303  0.411442E-04  0.183E-02    0.63       1.0  T
   4   -257.5836746 -0.442954E-04  0.762E-03    0.63       1.1  T
   5   -257.5836786 -0.403472E-05  0.397E-03    0.63       2.1  T
   6   -257.5836803 -0.168442E-05  0.160E-03    0.63       5.1  T
   7   -257.5836807 -0.384497E-06  0.501E-04    0.63      16.3  T
   8   -257.5836807 -0.218700E-07  0.283E-04    0.63      28.9  T
     SCC iter.                  ...        0 min,  0.232 sec
     gradient                   ...        0 min,  0.072 sec
 * total energy  :  -253.5797062 Eh     change       -0.6375434E-03 Eh
   gradient norm :     0.0142885 Eh/α   predicted    -0.6780050E-03 (   6.35%)
   displ. norm   :     0.6176869 α      lambda       -0.1015372E-02
   maximum displ.:     0.2372360 α      in ANC's #6, #3, #14, ...

........................................................................
.............................. CYCLE   34 ..............................
........................................................................
   1   -257.5862507 -0.257586E+03  0.879E-02    0.62       0.0  T
   2   -257.5862673 -0.166205E-04  0.454E-02    0.63       1.0  T
   3   -257.5862501  0.172103E-04  0.137E-02    0.63       1.0  T
   4   -257.5862680 -0.178595E-04  0.678E-03    0.63       1.2  T
   5   -257.5862712 -0.319813E-05  0.347E-03    0.63       2.4  T
   6   -257.5862728 -0.160240E-05  0.122E-03    0.63       6.7  T
   7   -257.5862730 -0.208905E-06  0.396E-04    0.63      20.6  T
   8   -257.5862730 -0.109733E-07  0.222E-04    0.63      36.7  T
     SCC iter.                  ...        0 min,  0.221 sec
     gradient                   ...        0 min,  0.073 sec
 * total energy  :  -253.5804408 Eh     change       -0.7345764E-03 Eh
   gradient norm :     0.0125821 Eh/α   predicted    -0.7013891E-03 (  -4.52%)
   displ. norm   :     0.7335810 α      lambda       -0.1012846E-02
   maximum displ.:     0.2800523 α      in ANC's #6, #3, #14, ...

........................................................................
.............................. CYCLE   35 ..............................
........................................................................
   1   -257.5824944 -0.257582E+03  0.104E-01    0.62       0.0  T
   2   -257.5825160 -0.216901E-04  0.542E-02    0.62       1.0  T
   3   -257.5824847  0.313021E-04  0.161E-02    0.63       1.0  T
   4   -257.5825144 -0.296505E-04  0.861E-03    0.62       1.0  T
   5   -257.5825222 -0.777338E-05  0.396E-03    0.63       2.1  T
   6   -257.5825241 -0.197679E-05  0.118E-03    0.63       6.9  T
   7   -257.5825243 -0.191707E-06  0.431E-04    0.63      18.9  T
   8   -257.5825243 -0.167822E-07  0.260E-04    0.63      31.4  T
     SCC iter.                  ...        0 min,  0.216 sec
     gradient                   ...        0 min,  0.073 sec
 * total energy  :  -253.5812638 Eh     change       -0.8230257E-03 Eh
   gradient norm :     0.0120380 Eh/α   predicted    -0.7789541E-03 (  -5.35%)
   displ. norm   :     0.6121060 α      lambda       -0.1149884E-02
   maximum displ.:     0.2357863 α      in ANC's #3, #6, #12, ...

........................................................................
.............................. CYCLE   36 ..............................
........................................................................
   1   -257.6055914 -0.257606E+03  0.861E-02    0.62       0.0  T
   2   -257.6056021 -0.107364E-04  0.482E-02    0.62       1.0  T
   3   -257.6054679  0.134214E-03  0.279E-02    0.62       1.0  T
   4   -257.6056141 -0.146223E-03  0.687E-03    0.62       1.2  T
   5   -257.6056175 -0.330977E-05  0.355E-03    0.62       2.3  T
   6   -257.6056185 -0.101657E-05  0.144E-03    0.62       5.7  T
   7   -257.6056188 -0.286010E-06  0.665E-04    0.62      12.3  T
   8   -257.6056188 -0.555577E-07  0.321E-04    0.62      25.4  T
     SCC iter.                  ...        0 min,  0.215 sec
     gradient                   ...        0 min,  0.073 sec
 * total energy  :  -253.5816638 Eh     change       -0.3999722E-03 Eh
   gradient norm :     0.0156711 Eh/α   predicted    -0.7903601E-03 (  97.60%)
   displ. norm   :     0.6804694 α      lambda       -0.1317214E-02
   maximum displ.:     0.2510615 α      in ANC's #6, #3, #14, ...

........................................................................
.............................. CYCLE   37 ..............................
........................................................................
   1   -257.5901837 -0.257590E+03  0.104E-01    0.62       0.0  T
   2   -257.5902055 -0.217826E-04  0.527E-02    0.62       1.0  T
   3   -257.5901993  0.617434E-05  0.126E-02    0.62       1.0  T
   4   -257.5902066 -0.730415E-05  0.735E-03    0.62       1.1  T
   5   -257.5902091 -0.245051E-05  0.352E-03    0.62       2.3  T
   6   -257.5902108 -0.174198E-05  0.143E-03    0.62       5.7  T
   7   -257.5902112 -0.354343E-06  0.424E-04    0.62      19.2  T
   8   -257.5902112 -0.573891E-08  0.270E-04    0.62      30.3  T
     SCC iter.                  ...        0 min,  0.212 sec
     gradient                   ...        0 min,  0.073 sec
 * total energy  :  -253.5825450 Eh     change       -0.8812392E-03 Eh
   gradient norm :     0.0116798 Eh/α   predicted    -0.9635721E-03 (   9.34%)
   displ. norm   :     0.7267474 α      lambda       -0.8491523E-03
   maximum displ.:     0.2892934 α      in ANC's #3, #6, #14, ...

........................................................................
.............................. CYCLE   38 ..............................
........................................................................
   1   -257.5784746 -0.257578E+03  0.110E-01    0.61       0.0  T
   2   -257.5784989 -0.243640E-04  0.580E-02    0.62       1.0  T
   3   -257.5784618  0.371663E-04  0.198E-02    0.61       1.0  T
   4   -257.5785068 -0.450000E-04  0.754E-03    0.62       1.1  T
   5   -257.5785083 -0.154182E-05  0.370E-03    0.62       2.2  T
   6   -257.5785103 -0.194579E-05  0.124E-03    0.62       6.6  T
   7   -257.5785105 -0.215883E-06  0.571E-04    0.62      14.3  T
   8   -257.5785105 -0.394898E-07  0.269E-04    0.62      30.3  T
     SCC iter.                  ...        0 min,  0.206 sec
     gradient                   ...        0 min,  0.072 sec
 * total energy  :  -253.5830435 Eh     change       -0.4984989E-03 Eh
   gradient norm :     0.0221138 Eh/α   predicted    -0.6488219E-03 (  30.16%)
   displ. norm   :     0.6090326 α      lambda       -0.9166643E-03
   maximum displ.:     0.2475077 α      in ANC's #3, #6, #12, ...

........................................................................
.............................. CYCLE   39 ..............................
........................................................................
   1   -257.5824286 -0.257582E+03  0.763E-02    0.61       0.0  T
   2   -257.5824407 -0.120706E-04  0.399E-02    0.61       1.0  T
   3   -257.5824328  0.787980E-05  0.109E-02    0.61       1.0  T
   4   -257.5824407 -0.789512E-05  0.590E-03    0.61       1.4  T
   5   -257.5824427 -0.205002E-05  0.296E-03    0.61       2.8  T
   6   -257.5824440 -0.127168E-05  0.108E-03    0.61       7.6  T
   7   -257.5824442 -0.187074E-06  0.320E-04    0.61      25.5  T
   8   -257.5824442 -0.368368E-08  0.200E-04    0.61      40.8  T
     SCC iter.                  ...        0 min,  0.218 sec
     gradient                   ...        0 min,  0.073 sec
 * total energy  :  -253.5835221 Eh     change       -0.4786007E-03 Eh
   gradient norm :     0.0167691 Eh/α   predicted    -0.6283398E-03 (  31.29%)
   displ. norm   :     0.4977680 α      lambda       -0.1207051E-02
   maximum displ.:     0.1970357 α      in ANC's #3, #6, #12, ...

........................................................................
.............................. CYCLE   40 ..............................
........................................................................
   1   -257.5994719 -0.257599E+03  0.931E-02    0.61       0.0  T
   2   -257.5994950 -0.230889E-04  0.508E-02    0.61       1.0  T
   3   -257.5994373  0.576582E-04  0.217E-02    0.61       1.0  T
   4   -257.5995050 -0.676914E-04  0.602E-03    0.61       1.4  T
   5   -257.5995069 -0.189925E-05  0.299E-03    0.61       2.7  T
   6   -257.5995077 -0.769875E-06  0.148E-03    0.61       5.5  T
   7   -257.5995080 -0.363732E-06  0.546E-04    0.61      15.0  T
   8   -257.5995081 -0.321016E-07  0.274E-04    0.61      29.8  T
     SCC iter.                  ...        0 min,  0.234 sec
     gradient                   ...        0 min,  0.073 sec
 * total energy  :  -253.5837426 Eh     change       -0.2204792E-03 Eh
   gradient norm :     0.0369311 Eh/α   predicted    -0.7530649E-03 ( 241.56%)
   displ. norm   :     0.3932543 α      lambda       -0.1004607E-02
   maximum displ.:     0.1735629 α      in ANC's #3, #6, #12, ...

........................................................................
.............................. CYCLE   41 ..............................
........................................................................
   1   -257.5933395 -0.257593E+03  0.781E-02    0.61       0.0  T
   2   -257.5933556 -0.161312E-04  0.421E-02    0.61       1.0  T
   3   -257.5933464  0.925686E-05  0.117E-02    0.61       1.0  T
   4   -257.5933599 -0.135091E-04  0.463E-03    0.61       1.8  T
   5   -257.5933608 -0.856088E-06  0.246E-03    0.61       3.3  T
   6   -257.5933616 -0.796256E-06  0.108E-03    0.61       7.6  T
   7   -257.5933618 -0.204297E-06  0.342E-04    0.61      23.9  T
   8   -257.5933618 -0.566286E-08  0.201E-04    0.61      40.6  T
     SCC iter.                  ...        0 min,  0.220 sec
     gradient                   ...        0 min,  0.073 sec
 * total energy  :  -253.5844339 Eh     change       -0.6912890E-03 Eh
   gradient norm :     0.0077924 Eh/α   predicted    -0.5799877E-03 ( -16.10%)
   displ. norm   :     0.6448671 α      lambda       -0.6090428E-03
   maximum displ.:     0.2906618 α      in ANC's #3, #6, #12, ...

........................................................................
.............................. CYCLE   42 ..............................
........................................................................
   1   -257.5901538 -0.257590E+03  0.831E-02    0.60       0.0  T
   2   -257.5901674 -0.136159E-04  0.435E-02    0.61       1.0  T
   3   -257.5901516  0.158111E-04  0.129E-02    0.60       1.0  T
   4   -257.5901693 -0.176672E-04  0.621E-03    0.61       1.3  T
   5   -257.5901717 -0.238586E-05  0.278E-03    0.61       2.9  T
   6   -257.5901727 -0.100185E-05  0.105E-03    0.61       7.8  T
   7   -257.5901728 -0.187664E-06  0.384E-04    0.61      21.2  T
   8   -257.5901729 -0.145062E-07  0.197E-04    0.61      41.4  T
     SCC iter.                  ...        0 min,  0.218 sec
     gradient                   ...        0 min,  0.073 sec
 * total energy  :  -253.5848853 Eh     change       -0.4514242E-03 Eh
   gradient norm :     0.0127184 Eh/α   predicted    -0.4311601E-03 (  -4.49%)
   displ. norm   :     0.6461258 α      lambda       -0.5938780E-03
   maximum displ.:     0.3080688 α      in ANC's #3, #6, #12, ...
 * RMSD in coord.:     0.9489089 α      energy gain  -0.1303579E-01 Eh

generating ANC from model Hessian ...
Using Lindh-Hessian (1995)
 Shifting diagonal of input Hessian by   1.000208153811488E-002
 Lowest  eigenvalues of input Hessian
    0.010000    0.000000    0.000000    0.000000    0.000000    0.000000
    0.000000    0.010007    0.010028    0.010029    0.010039    0.010073
    0.010106    0.010108    0.010161    0.010181    0.010215    0.010261
 Highest eigenvalues
    2.274348    2.303689    2.598828    2.600538    2.625908    2.654240
 

........................................................................
.............................. CYCLE   43 ..............................
........................................................................
   1   -257.5966264 -0.257597E+03  0.757E-02    0.60       0.0  T
   2   -257.5966367 -0.103484E-04  0.389E-02    0.60       1.0  T
   3   -257.5966312  0.548684E-05  0.969E-03    0.60       1.0  T
   4   -257.5966369 -0.569215E-05  0.556E-03    0.60       1.5  T
   5   -257.5966389 -0.201595E-05  0.252E-03    0.60       3.2  T
   6   -257.5966400 -0.103582E-05  0.857E-04    0.60       9.5  T
   7   -257.5966401 -0.122445E-06  0.327E-04    0.60      25.0  T
   8   -257.5966401 -0.791647E-08  0.195E-04    0.60      41.8  T
     SCC iter.                  ...        0 min,  0.215 sec
     gradient                   ...        0 min,  0.073 sec
 * total energy  :  -253.5853443 Eh     change       -0.4589372E-03 Eh
   gradient norm :     0.0156053 Eh/α   predicted     0.0000000E+00 (-100.00%)
   displ. norm   :     0.1148114 α      lambda       -0.3509050E-03
   maximum displ.:     0.0446404 α      in ANC's #32, #46, #28, ...

........................................................................
.............................. CYCLE   44 ..............................
........................................................................
   1   -257.5986429 -0.257599E+03  0.287E-02    0.60       0.0  T
   2   -257.5986448 -0.192209E-05  0.157E-02    0.60       1.0  T
   3   -257.5986316  0.132573E-04  0.932E-03    0.60       1.0  T
   4   -257.5986463 -0.147521E-04  0.229E-03    0.60       3.6  T
   5   -257.5986467 -0.404321E-06  0.123E-03    0.60       6.6  T
   6   -257.5986468 -0.108498E-06  0.591E-04    0.60      13.8  T
   7   -257.5986469 -0.617085E-07  0.189E-04    0.60      43.3  T
     SCC iter.                  ...        0 min,  0.191 sec
     gradient                   ...        0 min,  0.073 sec
 * total energy  :  -253.5855864 Eh     change       -0.2421664E-03 Eh
   gradient norm :     0.0041481 Eh/α   predicted    -0.1777726E-03 ( -26.59%)
   displ. norm   :     0.2597864 α      lambda       -0.3780220E-03
   maximum displ.:     0.1018147 α      in ANC's #32, #46, #28, ...

........................................................................
.............................. CYCLE   45 ..............................
........................................................................
   1   -257.5976633 -0.257598E+03  0.590E-02    0.60       0.0  T
   2   -257.5976700 -0.677355E-05  0.311E-02    0.60       1.0  T
   3   -257.5976504  0.196756E-04  0.117E-02    0.60       1.0  T
   4   -257.5976723 -0.219754E-04  0.418E-03    0.60       2.0  T
   5   -257.5976736 -0.122543E-05  0.197E-03    0.60       4.1  T
   6   -257.5976739 -0.318351E-06  0.742E-04    0.60      11.0  T
   7   -257.5976740 -0.881622E-07  0.248E-04    0.60      32.9  T
     SCC iter.                  ...        0 min,  0.191 sec
     gradient                   ...        0 min,  0.072 sec
 * total energy  :  -253.5858178 Eh     change       -0.2314074E-03 Eh
   gradient norm :     0.0136050 Eh/α   predicted    -0.2018807E-03 ( -12.76%)
   displ. norm   :     0.4404764 α      lambda       -0.5534606E-03
   maximum displ.:     0.1670108 α      in ANC's #32, #46, #28, ...

........................................................................
.............................. CYCLE   46 ..............................
........................................................................
   1   -257.5925877 -0.257593E+03  0.916E-02    0.60       0.0  T
   2   -257.5926033 -0.156089E-04  0.475E-02    0.60       1.0  T
   3   -257.5925831  0.201660E-04  0.131E-02    0.60       1.0  T
   4   -257.5926039 -0.207651E-04  0.683E-03    0.60       1.2  T
   5   -257.5926084 -0.450453E-05  0.317E-03    0.60       2.6  T
   6   -257.5926095 -0.110296E-05  0.101E-03    0.60       8.1  T
   7   -257.5926096 -0.136885E-06  0.337E-04    0.60      24.2  T
   8   -257.5926096 -0.431038E-08  0.226E-04    0.60      36.1  T
     SCC iter.                  ...        0 min,  0.210 sec
     gradient                   ...        0 min,  0.073 sec
 * total energy  :  -253.5859908 Eh     change       -0.1729683E-03 Eh
   gradient norm :     0.0203134 Eh/α   predicted    -0.3304278E-03 (  91.03%)
   displ. norm   :     0.1746348 α      lambda       -0.5458008E-03
   maximum displ.:     0.0498662 α      in ANC's #32, #7, #28, ...

........................................................................
.............................. CYCLE   47 ..............................
........................................................................
   1   -257.5931209 -0.257593E+03  0.597E-02    0.60       0.0  T
   2   -257.5931283 -0.747409E-05  0.323E-02    0.60       1.0  T
   3   -257.5931229  0.546866E-05  0.723E-03    0.60       1.1  T
   4   -257.5931303 -0.746074E-05  0.314E-03    0.60       2.6  T
   5   -257.5931311 -0.800234E-06  0.165E-03    0.60       4.9  T
   6   -257.5931315 -0.403016E-06  0.527E-04    0.60      15.5  T
   7   -257.5931316 -0.395776E-07  0.207E-04    0.60      39.4  T
     SCC iter.                  ...        0 min,  0.186 sec
     gradient                   ...        0 min,  0.073 sec
 * total energy  :  -253.5863657 Eh     change       -0.3748627E-03 Eh
   gradient norm :     0.0117815 Eh/α   predicted    -0.2812260E-03 ( -24.98%)
   displ. norm   :     0.3194889 α      lambda       -0.7326668E-03
   maximum displ.:     0.1034137 α      in ANC's #7, #8, #4, ...

........................................................................
.............................. CYCLE   48 ..............................
........................................................................
   1   -257.5979568 -0.257598E+03  0.745E-02    0.60       0.0  T
   2   -257.5979696 -0.127481E-04  0.393E-02    0.60       1.0  T
   3   -257.5979547  0.148144E-04  0.123E-02    0.60       1.0  T
   4   -257.5979723 -0.175351E-04  0.524E-03    0.60       1.6  T
   5   -257.5979741 -0.181114E-05  0.248E-03    0.60       3.3  T
   6   -257.5979747 -0.570261E-06  0.104E-03    0.60       7.8  T
   7   -257.5979749 -0.203011E-06  0.395E-04    0.60      20.7  T
   8   -257.5979749 -0.149978E-07  0.229E-04    0.60      35.7  T
     SCC iter.                  ...        0 min,  0.209 sec
     gradient                   ...        0 min,  0.073 sec
 * total energy  :  -253.5866932 Eh     change       -0.3275859E-03 Eh
   gradient norm :     0.0093024 Eh/α   predicted    -0.4037267E-03 (  23.24%)
   displ. norm   :     0.5215024 α      lambda       -0.5671968E-03
   maximum displ.:     0.1721555 α      in ANC's #32, #7, #28, ...

........................................................................
.............................. CYCLE   49 ..............................
........................................................................
   1   -257.5942670 -0.257594E+03  0.935E-02    0.60       0.0  T
   2   -257.5942820 -0.149667E-04  0.470E-02    0.60       1.0  T
   3   -257.5942705  0.114573E-04  0.117E-02    0.60       1.0  T
   4   -257.5942816 -0.110585E-04  0.701E-03    0.60       1.2  T
   5   -257.5942858 -0.420003E-05  0.298E-03    0.60       2.7  T
   6   -257.5942870 -0.119806E-05  0.822E-04    0.60       9.9  T
   7   -257.5942871 -0.862998E-07  0.318E-04    0.60      25.7  T
   8   -257.5942871 -0.440269E-08  0.198E-04    0.60      41.3  T
     SCC iter.                  ...        0 min,  0.214 sec
     gradient                   ...        0 min,  0.073 sec
 * total energy  :  -253.5871030 Eh     change       -0.4097324E-03 Eh
   gradient norm :     0.0094633 Eh/α   predicted    -0.3607389E-03 ( -11.96%)
   displ. norm   :     0.4870505 α      lambda       -0.4252261E-03
   maximum displ.:     0.1620181 α      in ANC's #7, #4, #8, ...

........................................................................
.............................. CYCLE   50 ..............................
........................................................................
   1   -257.5940078 -0.257594E+03  0.827E-02    0.60       0.0  T
   2   -257.5940191 -0.112637E-04  0.419E-02    0.60       1.0  T
   3   -257.5940121  0.700819E-05  0.965E-03    0.60       1.0  T
   4   -257.5940184 -0.631444E-05  0.606E-03    0.60       1.3  T
   5   -257.5940219 -0.347463E-05  0.250E-03    0.60       3.3  T
   6   -257.5940229 -0.101391E-05  0.690E-04    0.60      11.8  T
   7   -257.5940230 -0.656050E-07  0.328E-04    0.60      24.9  T
   8   -257.5940230 -0.103241E-07  0.164E-04    0.60      49.9  T
     SCC iter.                  ...        0 min,  0.211 sec
     gradient                   ...        0 min,  0.073 sec
 * total energy  :  -253.5874089 Eh     change       -0.3059021E-03 Eh
   gradient norm :     0.0080395 Eh/α   predicted    -0.2631077E-03 ( -13.99%)
   displ. norm   :     0.4249404 α      lambda       -0.4195427E-03
   maximum displ.:     0.1586175 α      in ANC's #7, #4, #8, ...

........................................................................
.............................. CYCLE   51 ..............................
........................................................................
   1   -257.5991665 -0.257599E+03  0.594E-02    0.60       0.0  T
   2   -257.5991729 -0.631219E-05  0.298E-02    0.60       1.0  T
   3   -257.5991670  0.587433E-05  0.834E-03    0.60       1.0  T
   4   -257.5991735 -0.647644E-05  0.449E-03    0.60       1.8  T
   5   -257.5991747 -0.128832E-05  0.173E-03    0.60       4.7  T
   6   -257.5991751 -0.381938E-06  0.476E-04    0.60      17.1  T
   7   -257.5991752 -0.290855E-07  0.218E-04    0.60      37.4  T
     SCC iter.                  ...        0 min,  0.181 sec
     gradient                   ...        0 min,  0.073 sec
 * total energy  :  -253.5877106 Eh     change       -0.3017233E-03 Eh
   gradient norm :     0.0061722 Eh/α   predicted    -0.2476511E-03 ( -17.92%)
   displ. norm   :     0.6662822 α      lambda       -0.5118268E-03
   maximum displ.:     0.2398477 α      in ANC's #7, #4, #8, ...

........................................................................
.............................. CYCLE   52 ..............................
........................................................................
   1   -257.5967028 -0.257597E+03  0.108E-01    0.60       0.0  T
   2   -257.5967239 -0.211071E-04  0.552E-02    0.59       1.0  T
   3   -257.5967091  0.147955E-04  0.134E-02    0.60       1.0  T
   4   -257.5967247 -0.155851E-04  0.793E-03    0.59       1.0  T
   5   -257.5967301 -0.542735E-05  0.317E-03    0.60       2.6  T
   6   -257.5967317 -0.158377E-05  0.910E-04    0.59       9.0  T
   7   -257.5967318 -0.116827E-06  0.428E-04    0.59      19.1  T
   8   -257.5967319 -0.177650E-07  0.210E-04    0.59      38.9  T
     SCC iter.                  ...        0 min,  0.205 sec
     gradient                   ...        0 min,  0.072 sec
 * total energy  :  -253.5880427 Eh     change       -0.3320864E-03 Eh
   gradient norm :     0.0085883 Eh/α   predicted    -0.3695216E-03 (  11.27%)
   displ. norm   :     0.4898497 α      lambda       -0.3911837E-03
   maximum displ.:     0.1905641 α      in ANC's #7, #8, #4, ...

........................................................................
.............................. CYCLE   53 ..............................
........................................................................
   1   -257.5997004 -0.257600E+03  0.661E-02    0.59       0.0  T
   2   -257.5997083 -0.793279E-05  0.333E-02    0.59       1.0  T
   3   -257.5996999  0.844080E-05  0.922E-03    0.59       1.0  T
   4   -257.5997085 -0.860726E-05  0.515E-03    0.60       1.6  T
   5   -257.5997106 -0.214203E-05  0.225E-03    0.59       3.6  T
   6   -257.5997114 -0.724743E-06  0.580E-04    0.59      14.1  T
   7   -257.5997114 -0.448480E-07  0.283E-04    0.59      28.8  T
     SCC iter.                  ...        0 min,  0.208 sec
     gradient                   ...        0 min,  0.073 sec
 * total energy  :  -253.5883577 Eh     change       -0.3150371E-03 Eh
   gradient norm :     0.0052878 Eh/α   predicted    -0.2425269E-03 ( -23.02%)
   displ. norm   :     0.6158821 α      lambda       -0.4392417E-03
   maximum displ.:     0.2451148 α      in ANC's #7, #8, #4, ...

........................................................................
.............................. CYCLE   54 ..............................
........................................................................
   1   -257.6024890 -0.257602E+03  0.759E-02    0.59       0.0  T
   2   -257.6024997 -0.106264E-04  0.384E-02    0.59       1.0  T
   3   -257.6024935  0.613125E-05  0.940E-03    0.59       1.0  T
   4   -257.6024996 -0.610301E-05  0.564E-03    0.59       1.4  T
   5   -257.6025023 -0.272213E-05  0.231E-03    0.59       3.5  T
   6   -257.6025031 -0.785970E-06  0.691E-04    0.59      11.8  T
   7   -257.6025032 -0.576199E-07  0.311E-04    0.59      26.3  T
     SCC iter.                  ...        0 min,  0.194 sec
     gradient                   ...        0 min,  0.073 sec
 * total energy  :  -253.5887027 Eh     change       -0.3449766E-03 Eh
   gradient norm :     0.0065941 Eh/α   predicted    -0.3029254E-03 ( -12.19%)
   displ. norm   :     0.7280914 α      lambda       -0.4913486E-03
   maximum displ.:     0.2911745 α      in ANC's #7, #8, #4, ...

........................................................................
.............................. CYCLE   55 ..............................
........................................................................
   1   -257.6022037 -0.257602E+03  0.915E-02    0.59       0.0  T
   2   -257.6022185 -0.148181E-04  0.462E-02    0.59       1.0  T
   3   -257.6021985  0.200124E-04  0.134E-02    0.59       1.0  T
   4   -257.6022194 -0.208855E-04  0.696E-03    0.59       1.2  T
   5   -257.6022233 -0.386484E-05  0.319E-03    0.59       2.6  T
   6   -257.6022246 -0.132105E-05  0.880E-04    0.59       9.3  T
   7   -257.6022247 -0.918245E-07  0.366E-04    0.59      22.3  T
   8   -257.6022247 -0.904242E-08  0.215E-04    0.59      38.0  T
     SCC iter.                  ...        0 min,  0.220 sec
     gradient                   ...        0 min,  0.073 sec
 * total energy  :  -253.5890769 Eh     change       -0.3741671E-03 Eh
   gradient norm :     0.0069189 Eh/α   predicted    -0.3759145E-03 (   0.47%)
   displ. norm   :     0.6803338 α      lambda       -0.3876632E-03
   maximum displ.:     0.2767327 α      in ANC's #7, #8, #4, ...

........................................................................
.............................. CYCLE   56 ..............................
........................................................................
   1   -257.6007165 -0.257601E+03  0.771E-02    0.59       0.0  T
   2   -257.6007272 -0.106918E-04  0.387E-02    0.59       1.0  T
   3   -257.6007126  0.146424E-04  0.118E-02    0.59       1.0  T
   4   -257.6007284 -0.158461E-04  0.589E-03    0.59       1.4  T
   5   -257.6007305 -0.208852E-05  0.272E-03    0.59       3.0  T
   6   -257.6007315 -0.988784E-06  0.821E-04    0.59       9.9  T
   7   -257.6007316 -0.980943E-07  0.305E-04    0.59      26.8  T
     SCC iter.                  ...        0 min,  0.190 sec
     gradient                   ...        0 min,  0.073 sec
 * total energy  :  -253.5894067 Eh     change       -0.3298402E-03 Eh
   gradient norm :     0.0056517 Eh/α   predicted    -0.2835534E-03 ( -14.03%)
   displ. norm   :     0.6582951 α      lambda       -0.4711516E-03
   maximum displ.:     0.2620694 α      in ANC's #7, #8, #6, ...

........................................................................
.............................. CYCLE   57 ..............................
........................................................................
   1   -257.6058046 -0.257606E+03  0.713E-02    0.59       0.0  T
   2   -257.6058122 -0.765547E-05  0.394E-02    0.59       1.0  T
   3   -257.6057748  0.374343E-04  0.158E-02    0.60       1.0  T
   4   -257.6058142 -0.393735E-04  0.564E-03    0.59       1.4  T
   5   -257.6058164 -0.222748E-05  0.297E-03    0.59       2.8  T
   6   -257.6058176 -0.120165E-05  0.114E-03    0.59       7.2  T
   7   -257.6058178 -0.235990E-06  0.435E-04    0.59      18.8  T
   8   -257.6058178 -0.186743E-07  0.246E-04    0.59      33.2  T
     SCC iter.                  ...        0 min,  0.212 sec
     gradient                   ...        0 min,  0.073 sec
 * total energy  :  -253.5896361 Eh     change       -0.2293510E-03 Eh
   gradient norm :     0.0110631 Eh/α   predicted    -0.3376636E-03 (  47.23%)
   displ. norm   :     0.5860331 α      lambda       -0.4997753E-03
   maximum displ.:     0.2426084 α      in ANC's #7, #8, #4, ...

[...]
                           116 H    0.979
    41   6 C    3.987 --    42 C    1.467    38 C    1.370   119 H    0.964
                            36 C    0.102
    42   6 C    3.981 --    41 C    1.467    35 C    1.352   120 H    0.967
    43   6 C    3.960 --    44 C    1.368    50 C    1.354    34 N    1.038
    44   6 C    3.985 --    45 C    1.458    43 C    1.368   121 H    0.967
                            49 C    0.101
    45   6 C    3.988 --    44 C    1.458    46 C    1.379   122 H    0.965
    46   6 C    3.959 --    45 C    1.379    49 C    1.373    47 S    1.050
    47  16 S    2.251 --    46 C    1.050    48 C    1.008
    48   6 C    3.976 --    47 S    1.008   125 H    0.982   123 H    0.980
                           124 H    0.979
    49   6 C    3.987 --    50 C    1.470    46 C    1.373   126 H    0.959
                            44 C    0.101
    50   6 C    3.982 --    49 C    1.470    43 C    1.354   127 H    0.965
    51   6 C    3.927 --    72 C    1.371    33 C    1.219    52 S    1.106
    52  16 S    2.556 --    51 C    1.106    53 C    1.080
    53   6 C    3.906 --    54 C    1.360    74 C    1.213    52 S    1.080
    54   6 C    3.943 --    53 C    1.360    72 C    1.217    55 N    1.126
    55   7 N    3.505 --    54 C    1.126    56 C    1.060    64 C    1.024
    56   6 C    3.961 --    57 C    1.358    63 C    1.346    55 N    1.060
    57   6 C    3.985 --    58 C    1.456    56 C    1.358   128 H    0.967
    58   6 C    3.989 --    57 C    1.456    59 C    1.387   129 H    0.966
    59   6 C    3.958 --    58 C    1.387    62 C    1.372    60 S    1.047
    60  16 S    2.224 --    59 C    1.047    61 C    1.004
    61   6 C    3.975 --    60 S    1.004   132 H    0.983   131 H    0.981
                           130 H    0.980
    62   6 C    3.989 --    63 C    1.476    59 C    1.372   133 H    0.967
    63   6 C    3.980 --    62 C    1.476    56 C    1.346   134 H    0.966
    64   6 C    3.961 --    65 C    1.378    71 C    1.354    55 N    1.024
    65   6 C    3.981 --    66 C    1.451    64 C    1.378   135 H    0.967
                            70 C    0.102
    66   6 C    3.988 --    65 C    1.451    67 C    1.384   136 H    0.964
    67   6 C    3.954 --    66 C    1.384    70 C    1.367    68 S    1.057
    68  16 S    2.265 --    67 C    1.057    69 C    1.010
    69   6 C    3.977 --    68 S    1.010   137 H    0.982   139 H    0.981
                           138 H    0.978
    70   6 C    3.988 --    71 C    1.473    67 C    1.367   140 H    0.967
                            65 C    0.102
    71   6 C    3.984 --    70 C    1.473    64 C    1.354   141 H    0.967
    72   6 C    3.932 --    51 C    1.371    54 C    1.217    73 S    1.112
    73  16 S    2.589 --    72 C    1.112    32 C    1.077
    74   6 C    3.939 --    75 C    1.428    53 C    1.213    81 S    1.122
    75   6 C    3.961 --    74 C    1.428    76 C    1.336   142 H    0.956
    76   6 C    3.949 --    80 C    1.383    75 C    1.336    77 S    1.035
    77  16 S    2.187 --    76 C    1.035    78 C    0.958
    78   6 C    3.969 --    79 C    1.029   143 H    0.972   144 H    0.971
                            77 S    0.958
    79   6 C    3.990 --    78 C    1.029   146 H    0.985   147 H    0.977
                           145 H    0.976
    80   6 C    3.917 --    76 C    1.383    82 C    1.232    81 S    1.093
    81  16 S    2.584 --    74 C    1.122    80 C    1.093
    82   6 C    3.952 --    83 C    1.565    80 C    1.232   148 H    0.943
    83   6 C    3.950 --    82 C    1.565    91 C    1.122    84 C    1.000
    84   6 C    3.934 --    85 O    1.758    86 C    1.060    83 C    1.000
    85   8 O    2.049 --    84 C    1.758
    86   6 C    3.923 --    90 C    1.389    87 S    1.199    84 C    1.060
    87  16 S    2.697 --    88 C    1.211    86 C    1.199
    88   6 C    3.934 --    89 C    1.601    87 S    1.211   149 H    0.969
    89   6 C    3.981 --    88 C    1.601    90 C    1.275   150 H    0.955
    90   6 C    3.973 --    86 C    1.389    89 C    1.275    91 C    1.094
    91   6 C    3.972 --    92 C    1.479    83 C    1.122    90 C    1.094
    92   6 C    3.974 --    91 C    1.479    95 C    1.101    93 C    1.097
    93   6 C    3.946 --    94 N    2.768    92 C    1.097
    94   7 N    2.973 --    93 C    2.768
    95   6 C    3.944 --    96 N    2.752    92 C    1.101
    96   7 N    2.974 --    95 C    2.752
    97   1 H    0.995 --     1 C    0.943
    98   1 H    0.996 --     6 C    0.964
    99   1 H    0.996 --     9 C    0.958
   100   1 H    0.997 --    17 C    0.960
   101   1 H    0.998 --    18 C    0.972
   102   1 H    0.999 --    19 C    0.971
   103   1 H    0.999 --    20 C    0.972
   104   1 H    0.999 --    21 C    0.972
   105   1 H    0.998 --    22 C    0.978
   106   1 H    0.996 --    22 C    0.977
   107   1 H    0.996 --    23 C    0.960
   108   1 H    0.989 --    25 C    0.937
   109   1 H    0.998 --    28 C    0.973
   110   1 H    0.997 --    28 C    0.970
   111   1 H    0.998 --    29 C    0.983
   112   1 H    0.997 --    29 C    0.977
   113   1 H    0.997 --    29 C    0.986
   114   1 H    0.998 --    36 C    0.967
   115   1 H    0.998 --    37 C    0.964
   116   1 H    0.996 --    40 C    0.979
   117   1 H    0.996 --    40 C    0.982
   118   1 H    0.996 --    40 C    0.982
   119   1 H    0.996 --    41 C    0.964
   120   1 H    0.998 --    42 C    0.967
   121   1 H    0.999 --    44 C    0.967
   122   1 H    0.998 --    45 C    0.965
   123   1 H    0.996 --    48 C    0.980
   124   1 H    0.996 --    48 C    0.979
   125   1 H    0.996 --    48 C    0.982
   126   1 H    0.995 --    49 C    0.959
   127   1 H    0.997 --    50 C    0.965
   128   1 H    0.999 --    57 C    0.967
   129   1 H    0.998 --    58 C    0.966
   130   1 H    0.995 --    61 C    0.980
   131   1 H    0.996 --    61 C    0.981
   132   1 H    0.997 --    61 C    0.983
   133   1 H    0.997 --    62 C    0.967
   134   1 H    0.998 --    63 C    0.966
   135   1 H    0.998 --    65 C    0.967
   136   1 H    0.998 --    66 C    0.964
   137   1 H    0.996 --    69 C    0.982
   138   1 H    0.995 --    69 C    0.978
   139   1 H    0.996 --    69 C    0.981
   140   1 H    0.997 --    70 C    0.967
   141   1 H    0.998 --    71 C    0.967
   142   1 H    0.996 --    75 C    0.956
   143   1 H    0.998 --    78 C    0.972
   144   1 H    0.996 --    78 C    0.971
   145   1 H    0.996 --    79 C    0.976
   146   1 H    0.997 --    79 C    0.985
   147   1 H    0.997 --    79 C    0.977
   148   1 H    0.991 --    82 C    0.943
   149   1 H    0.995 --    88 C    0.969
   150   1 H    0.994 --    89 C    0.955
 ---------------------------------------------------------------------------

Topologies differ in bond orders
Writing corrected topology to xtbtopo.mol

molecular dipole:
                 x           y           z       tot (Debye)
 q only:       -2.381      -0.676      -0.215
   full:       -2.597      -0.910      -0.353       7.052
molecular quadrupole (traceless):
                xx          xy          yy          xz          yz          zz
 q only:       44.592     -11.121     -47.825     -38.496       8.500       3.233
  q+dip:       64.175     -17.636     -66.807     -42.826      23.859       2.632
   full:       61.744     -17.539     -71.881     -38.321      27.487      10.137

           -------------------------------------------------
          |                Geometry Summary                 |
           -------------------------------------------------

      molecular mass/u    :     1448.0071554
   center of mass at/Å    :        0.5057025      -0.0408732       0.2961458
  moments of inertia/u·Å² :        0.2017104E+05   0.6956633E+05   0.8445202E+05
rotational constants/cm⁻¹ :        0.8357345E-03   0.2423246E-03   0.1996120E-03

 * 139 selected distances

     #   Z          #   Z                                           value/Å
     1   6 C        2   6 C                                       1.3683177
     3   6 C        4   8 O                                       1.2161067
     5   6 C        6   6 C                                       1.3931715
     6   6 C        7   6 C                                       1.3735988
     7   6 C        8   6 C                                       1.4015968
     8   6 C        9   6 C                                       1.3745196
     5   6 C       10   6 C                                       1.4081726
     9   6 C       10   6 C                                       1.3978525
    11   6 C       12   6 C                                       1.3702647
    13   6 C       14   7 N                                       1.1482129
    15   6 C       16   7 N                                       1.1490586
     8   6 C       17   6 C                                       1.5080520
    17   6 C       18   6 C                                       1.5485207
    19   6 C       20   6 C                                       1.3263265
    18   6 C       22   6 C                                       1.5371004
    21   6 C       22   6 C                                       1.5370030
     7   6 C       23   6 C                                       1.5081390
    17   6 C       23   6 C                                       1.5613455
    21   6 C       23   6 C                                       1.5488039
     1   6 C       24   6 C                                       1.4070141
    24   6 C       25   6 C                                       1.3846319
    25   6 C       26   6 C                                       1.3895325
    28   6 C       29   6 C                                       1.5133622
    26   6 C       30   6 C                                       1.3943621
    24   6 C       31  16 S                                       1.7563644
    30   6 C       31  16 S                                       1.7322278
    30   6 C       32   6 C                                       1.4172752
    32   6 C       33   6 C                                       1.3996198
    33   6 C       34   7 N                                       1.3736378
    34   7 N       35   6 C                                       1.4076393
    35   6 C       36   6 C                                       1.3911676
    36   6 C       37   6 C                                       1.3800855
    37   6 C       38   6 C                                       1.3894301
    38   6 C       41   6 C                                       1.3936584
    35   6 C       42   6 C                                       1.3950328
    41   6 C       42   6 C                                       1.3784951
    34   7 N       43   6 C                                       1.4061933
    43   6 C       44   6 C                                       1.3929943
    44   6 C       45   6 C                                       1.3803044
    45   6 C       46   6 C                                       1.3901189
    46   6 C       49   6 C                                       1.3930898
    43   6 C       50   6 C                                       1.3956990
    49   6 C       50   6 C                                       1.3777370
    33   6 C       51   6 C                                       1.4171741
    51   6 C       52  16 S                                       1.7258821
    52  16 S       53   6 C                                       1.7645365 (max)
    53   6 C       54   6 C                                       1.3968424
    54   6 C       55   7 N                                       1.3765950
    55   7 N       56   6 C                                       1.3982005
    56   6 C       57   6 C                                       1.3935611
    57   6 C       58   6 C                                       1.3801641
    58   6 C       59   6 C                                       1.3884876
    59   6 C       62   6 C                                       1.3920869
    56   6 C       63   6 C                                       1.3973255
    62   6 C       63   6 C                                       1.3768083
    55   7 N       64   6 C                                       1.4110868
    64   6 C       65   6 C                                       1.3904157
    65   6 C       66   6 C                                       1.3809829
    66   6 C       67   6 C                                       1.3891049
    67   6 C       70   6 C                                       1.3940821
    64   6 C       71   6 C                                       1.3947833
    70   6 C       71   6 C                                       1.3767526
    51   6 C       72   6 C                                       1.3854039
    54   6 C       72   6 C                                       1.4192995
    32   6 C       73  16 S                                       1.7595171
    72   6 C       73  16 S                                       1.7247897
    53   6 C       74   6 C                                       1.4166924
    74   6 C       75   6 C                                       1.3801310
    75   6 C       76   6 C                                       1.3979846
    78   6 C       79   6 C                                       1.5139437
    76   6 C       80   6 C                                       1.3873485
    74   6 C       81  16 S                                       1.7432746
    80   6 C       81  16 S                                       1.7466348
    80   6 C       82   6 C                                       1.4128992
    82   6 C       83   6 C                                       1.3616860
    84   6 C       85   8 O                                       1.2099864
    86   6 C       87  16 S                                       1.7100640
    87  16 S       88   6 C                                       1.7260306
    88   6 C       89   6 C                                       1.3634702
    86   6 C       90   6 C                                       1.3901313
    89   6 C       90   6 C                                       1.4070292
    90   6 C       91   6 C                                       1.4492900
    91   6 C       92   6 C                                       1.3703079
    93   6 C       94   7 N                                       1.1476166
    95   6 C       96   7 N                                       1.1487678
     1   6 C       97   1 H                                       1.0837508
     6   6 C       98   1 H                                       1.0789325
     9   6 C       99   1 H                                       1.0770248
    17   6 C      100   1 H                                       1.0882344
    18   6 C      101   1 H                                       1.0865854
    19   6 C      102   1 H                                       1.0742447
    20   6 C      103   1 H                                       1.0743842
    21   6 C      104   1 H                                       1.0869639
    22   6 C      105   1 H                                       1.0892104
    22   6 C      106   1 H                                       1.0889293
    23   6 C      107   1 H                                       1.0884517
    25   6 C      108   1 H                                       1.0749043
    28   6 C      109   1 H                                       1.0897079
    28   6 C      110   1 H                                       1.0889049
    29   6 C      111   1 H                                       1.0879883
    29   6 C      112   1 H                                       1.0884138
    29   6 C      113   1 H                                       1.0875209
    36   6 C      114   1 H                                       1.0801439
    37   6 C      115   1 H                                       1.0777218
    40   6 C      116   1 H                                       1.0855540
    40   6 C      117   1 H                                       1.0857052
    40   6 C      118   1 H                                       1.0860857
    41   6 C      119   1 H                                       1.0792838
    42   6 C      120   1 H                                       1.0797720
    44   6 C      121   1 H                                       1.0800822
    45   6 C      122   1 H                                       1.0778964
    48   6 C      123   1 H                                       1.0858605
    48   6 C      124   1 H                                       1.0858988
    48   6 C      125   1 H                                       1.0860863
    49   6 C      126   1 H                                       1.0784282
    50   6 C      127   1 H                                       1.0790428
    57   6 C      128   1 H                                       1.0793342
    58   6 C      129   1 H                                       1.0783052
    61   6 C      130   1 H                                       1.0852119
    61   6 C      131   1 H                                       1.0859969
    61   6 C      132   1 H                                       1.0860272
    62   6 C      133   1 H                                       1.0786579
    63   6 C      134   1 H                                       1.0798373
    65   6 C      135   1 H                                       1.0798108
    66   6 C      136   1 H                                       1.0778011
    69   6 C      137   1 H                                       1.0858803
    69   6 C      138   1 H                                       1.0855978
    69   6 C      139   1 H                                       1.0862036
    70   6 C      140   1 H                                       1.0791131
    71   6 C      141   1 H                                       1.0799050
    75   6 C      142   1 H                                       1.0718925 (min)
    78   6 C      143   1 H                                       1.0883408
    78   6 C      144   1 H                                       1.0898639
    79   6 C      145   1 H                                       1.0878678
    79   6 C      146   1 H                                       1.0878751
    79   6 C      147   1 H                                       1.0882578
    82   6 C      148   1 H                                       1.0864413
    88   6 C      149   1 H                                       1.0725190
    89   6 C      150   1 H                                       1.0744800

 * 5 distinct bonds (by element types)

   Z      Z             #   av. dist./Å        max./Å        min./Å
   1 H    6 C          54     1.0829062     1.0898639     1.0718925
   6 C    6 C          63     1.4103267     1.5613455     1.3263265
   6 C    7 N          10     1.2967009     1.4110868     1.1476166
   6 C    8 O           2     1.2130465     1.2161067     1.2099864
   6 C   16 S          10     1.7389322     1.7645365     1.7100640


optimized geometry written to: xtbopt.mol


           -------------------------------------------------
          | TOTAL ENERGY             -253.606357233148 Eh   |
          | GRADIENT NORM               0.000165866118 Eh/α |
          | HOMO-LUMO GAP               0.696314391205 eV   |
           -------------------------------------------------

------------------------------------------------------------------------
 * finished run on 2022/02/04 at 23:37:59.104     
------------------------------------------------------------------------
 total:
 * wall-time:     0 d,  0 h,  1 min, 41.091 sec
 *  cpu-time:     0 d,  0 h, 13 min, 28.570 sec
 * ratio c/w:     7.998 speedup
 SCF:
 * wall-time:     0 d,  0 h,  0 min,  0.477 sec
 *  cpu-time:     0 d,  0 h,  0 min,  3.813 sec
 * ratio c/w:     7.994 speedup
 ANC optimizer:
 * wall-time:     0 d,  0 h,  1 min, 40.519 sec
 *  cpu-time:     0 d,  0 h, 13 min, 24.091 sec
 * ratio c/w:     7.999 speedup

