      -----------------------------------------------------------      
     |                   =====================                   |     
     |                           x T B                           |     
     |                   =====================                   |     
     |                         S. Grimme                         |     
     |          Mulliken Center for Theoretical Chemistry        |     
     |                    University of Bonn                     |     
      -----------------------------------------------------------      

   * xtb version 6.4.1 (unknown) compiled by 'oda6@login1.crc.pitt.edu' on 2021-06-25

   xtb is free software: you can redistribute it and/or modify it under
   the terms of the GNU Lesser General Public License as published by
   the Free Software Foundation, either version 3 of the License, or
   (at your option) any later version.
   
   xtb is distributed in the hope that it will be useful,
   but WITHOUT ANY WARRANTY; without even the implied warranty of
   MERCHANTABILITY or FITNESS FOR A PARTICULAR PURPOSE.  See the
   GNU Lesser General Public License for more details.
   
   Cite this work as:
   * C. Bannwarth, E. Caldeweyher, S. Ehlert, A. Hansen, P. Pracht,
     J. Seibert, S. Spicher, S. Grimme, WIREs Comput. Mol. Sci., 2020, 11,
     e01493. DOI: 10.1002/wcms.1493
   
   for GFN2-xTB:
   * C. Bannwarth, S. Ehlert and S. Grimme., J. Chem. Theory Comput., 2019,
     15, 1652-1671. DOI: 10.1021/acs.jctc.8b01176
   for GFN1-xTB:
   * S. Grimme, C. Bannwarth, P. Shushkov, J. Chem. Theory Comput., 2017,
     13, 1989-2009. DOI: 10.1021/acs.jctc.7b00118
   for GFN0-xTB:
   * P. Pracht, E. Caldeweyher, S. Ehlert, S. Grimme, ChemRxiv, 2019, preprint.
     DOI: 10.26434/chemrxiv.8326202.v1
   for GFN-FF:
   * S. Spicher and S. Grimme, Angew. Chem. Int. Ed., 2020, 59, 15665-15673.
     DOI: 10.1002/anie.202004239
   
   for DFT-D4:
   * E. Caldeweyher, C. Bannwarth and S. Grimme, J. Chem. Phys., 2017,
     147, 034112. DOI: 10.1063/1.4993215
   * E. Caldeweyher, S. Ehlert, A. Hansen, H. Neugebauer, S. Spicher,
     C. Bannwarth and S. Grimme, J. Chem. Phys., 2019, 150, 154122.
     DOI: 10.1063/1.5090222
   * E. Caldeweyher, J.-M. Mewes, S. Ehlert and S. Grimme, Phys. Chem. Chem. Phys.
     2020, 22, 8499-8512. DOI: 10.1039/D0CP00502A
   
   for sTDA-xTB:
   * S. Grimme and C. Bannwarth, J. Chem. Phys., 2016, 145, 054103.
     DOI: 10.1063/1.4959605
   
   in the mass-spec context:
   * V. Asgeirsson, C. Bauer and S. Grimme, Chem. Sci., 2017, 8, 4879.
     DOI: 10.1039/c7sc00601b
   * J. Koopman and S. Grimme, ACS Omega 2019, 4, 12, 15120-15133.
     DOI: 10.1021/acsomega.9b02011
   
   for metadynamics refer to:
   * S. Grimme, J. Chem. Theory Comput., 2019, 155, 2847-2862
     DOI: 10.1021/acs.jctc.9b00143
   
   for SPH calculations refer to:
   * S. Spicher and S. Grimme, J. Chem. Theory Comput., 2021, 17, 1701-1714
     DOI: 10.1021/acs.jctc.0c01306
   
   with help from (in alphabetical order)
   P. Atkinson, C. Bannwarth, F. Bohle, G. Brandenburg, E. Caldeweyher
   M. Checinski, S. Dohm, S. Ehlert, S. Ehrlich, I. Gerasimov, J. Koopman
   C. Lavigne, S. Lehtola, F. März, M. Müller, F. Musil, H. Neugebauer
   J. Pisarek, C. Plett, P. Pracht, J. Seibert, P. Shushkov, S. Spicher
   M. Stahn, M. Steiner, T. Strunk, J. Stückrath, T. Rose, and J. Unsleber
   
 * started run on 2022/02/05 at 17:24:35.289     

           -------------------------------------------------
          |                Calculation Setup                |
           -------------------------------------------------

          program call               : /ihome/ghutchison/oda6/xtb/xtb-641/bin/xtb ../../FF_optimized/39_50_30_130_39.mol -opt
          hostname                   : smp-n57
          coordinate file            : ../../FF_optimized/39_50_30_130_39.mol
          omp threads                :                     8
          number of atoms            :                   170
          number of electrons        :                   526
          charge                     :                     0
          spin                       :                   0.0
          first test random number   :      0.31331240228915

   ID    Z sym.   atoms
    1    6 C      1-3, 5-13, 15, 17-26, 28-30, 32, 33, 36, 37, 39-42, 44, 45,
                  47-50, 52-58, 60-63, 65, 66, 68-71, 73-79, 81-84, 86-88,
                  90-98, 100, 102-108
    2    8 O      4, 89
    3    7 N      14, 16, 34, 35, 38, 46, 67, 99, 101
    4   16 S      27, 31, 51, 59, 64, 72, 80, 85
    5    9 F      43
    6    1 H      109-170
########################################################################
[WARNING] Please study the warnings concerning your input carefully
-1- prog_main_parseArguments: the use of '-opt' is discouraged, please use '--opt' next time
########################################################################

           -------------------------------------------------
          |                 G F N 2 - x T B                 |
           -------------------------------------------------

        Reference                      10.1021/acs.jctc.8b01176
      * Hamiltonian:
        H0-scaling (s, p, d)           1.850000    2.230000    2.230000
        zeta-weighting                 0.500000
      * Dispersion:
        s8                             2.700000
        a1                             0.520000
        a2                             5.000000
        s9                             5.000000
      * Repulsion:
        kExp                           1.500000    1.000000
        rExp                           1.000000
      * Coulomb:
        alpha                          2.000000
        third order                    shell-resolved
        anisotropic                    true
        a3                             3.000000
        a5                             4.000000
        cn-shift                       1.200000
        cn-exp                         4.000000
        max-rad                        5.000000


          ...................................................
          :                      SETUP                      :
          :.................................................:
          :  # basis functions                 542          :
          :  # atomic orbitals                 534          :
          :  # shells                          286          :
          :  # electrons                       526          :
          :  max. iterations                   250          :
          :  Hamiltonian                  GFN2-xTB          :
          :  restarted?                      false          :
          :  GBSA solvation                  false          :
          :  PC potential                    false          :
          :  electronic temp.          300.0000000     K    :
          :  accuracy                    1.0000000          :
          :  -> integral cutoff          0.2500000E+02      :
          :  -> integral neglect         0.1000000E-07      :
          :  -> SCF convergence          0.1000000E-05 Eh   :
          :  -> wf. convergence          0.1000000E-03 e    :
          :  Broyden damping             0.4000000          :
          ...................................................

 iter      E             dE          RMSdq      gap      omega  full diag
   1   -288.6402170 -0.288640E+03  0.477E+00    0.96       0.0  T
   2   -288.8386261 -0.198409E+00  0.290E+00    0.56       1.0  T
   3   -288.4751641  0.363462E+00  0.202E+00    0.29       1.0  T
   4   -288.9656460 -0.490482E+00  0.662E-01    0.30       1.0  T
   5   -289.0138627 -0.482166E-01  0.261E-01    0.13       1.0  T
   6   -289.0164300 -0.256734E-02  0.187E-01    0.62       1.0  T
   7   -289.0233135 -0.688352E-02  0.780E-02    0.50       1.0  T
   8   -289.0237905 -0.476974E-03  0.421E-02    0.40       1.0  T
   9   -289.0238853 -0.948010E-04  0.270E-02    0.30       1.0  T
  10   -289.0239140 -0.286895E-04  0.140E-02    0.25       1.0  T
  11   -289.0239347 -0.206648E-04  0.780E-03    0.27       1.0  T
  12   -289.0239406 -0.595170E-05  0.412E-03    0.26       1.9  T
  13   -289.0239425 -0.185295E-05  0.186E-03    0.26       4.1  T
  14   -289.0239427 -0.269503E-06  0.109E-03    0.26       7.1  T
  15   -289.0239429 -0.154763E-06  0.501E-04    0.26      15.3  T
  16   -289.0239429 -0.173175E-07  0.219E-04    0.26      35.0  T

   *** convergence criteria satisfied after 16 iterations ***

         #    Occupation            Energy/Eh            Energy/eV
      -------------------------------------------------------------
         1        2.0000           -0.8258671             -22.4730
       ...           ...                  ...                  ...
       257        2.0000           -0.3702422             -10.0748
       258        2.0000           -0.3697458             -10.0613
       259        2.0000           -0.3661825              -9.9643
       260        2.0000           -0.3657151              -9.9516
       261        2.0000           -0.3555412              -9.6748
       262        1.9972           -0.3505601              -9.5392
       263        1.9891           -0.3492690              -9.5041 (HOMO)
       264        0.0137           -0.3395955              -9.2409 (LUMO)
       265        0.0000           -0.3313950              -9.0177
       266        0.0000           -0.3289446              -8.9510
       267                         -0.3236258              -8.8063
       268                         -0.3048404              -8.2951
       ...                                ...                  ...
       534                          1.0903631              29.6703
      -------------------------------------------------------------
                  HL-Gap            0.0096736 Eh            0.2632 eV
             Fermi-level           -0.3443221 Eh           -9.3695 eV

 SCC (total)                   0 d,  0 h,  0 min,  0.625 sec
 SCC setup                      ...        0 min,  0.002 sec (  0.331%)
 Dispersion                     ...        0 min,  0.006 sec (  0.971%)
 classical contributions        ...        0 min,  0.000 sec (  0.047%)
 integral evaluation            ...        0 min,  0.028 sec (  4.432%)
 iterations                     ...        0 min,  0.491 sec ( 78.545%)
 molecular gradient             ...        0 min,  0.095 sec ( 15.269%)
 printout                       ...        0 min,  0.002 sec (  0.389%)

         :::::::::::::::::::::::::::::::::::::::::::::::::::::
         ::                     SUMMARY                     ::
         :::::::::::::::::::::::::::::::::::::::::::::::::::::
         :: total energy            -284.791578738043 Eh    ::
         :: gradient norm              0.308834170314 Eh/a0 ::
         :: HOMO-LUMO gap              0.263231276121 eV    ::
         ::.................................................::
         :: SCC energy              -289.023942915000 Eh    ::
         :: -> isotropic ES            0.140046472671 Eh    ::
         :: -> anisotropic ES          0.015826244932 Eh    ::
         :: -> anisotropic XC          0.207201636820 Eh    ::
         :: -> dispersion             -0.278705846240 Eh    ::
         :: repulsion energy           4.221421136601 Eh    ::
         :: add. restraining           0.000000000000 Eh    ::
         :: total charge               0.000000000014 e     ::
         :::::::::::::::::::::::::::::::::::::::::::::::::::::

      ----------------------------------------------------------- 
     |                   =====================                   |
     |                        A N C O P T                        |
     |                   =====================                   |
     |               Approximate Normal Coordinate               |
     |                Rational Function Optimizer                |
      ----------------------------------------------------------- 

          ...................................................
          :                      SETUP                      :
          :.................................................:
          :   optimization level            normal          :
          :   max. optcycles                   510          :
          :   ANC micro-cycles                  20          :
          :   degrees of freedom               504          :
          :.................................................:
          :   RF solver                   davidson          :
          :   write xtbopt.log                true          :
          :   linear?                        false          :
          :   energy convergence         0.5000000E-05 Eh   :
          :   grad. convergence          0.1000000E-02 Eh/α :
          :   maximium RF displ.         1.0000000          :
          :   Hlow (freq-cutoff)         0.1000000E-01      :
          :   Hmax (freq-cutoff)         5.0000000          :
          :   S6 in model hess.         20.0000000          :
          ...................................................

generating ANC from model Hessian ...
Using Lindh-Hessian (1995)
 Shifting diagonal of input Hessian by   1.007809859558677E-002
 Lowest  eigenvalues of input Hessian
    0.010000    0.010078    0.000000    0.000000    0.000000    0.000000
    0.000000    0.000000    0.010083    0.010090    0.010107    0.010119
    0.010137    0.010162    0.010169    0.010201    0.010210    0.010238
 Highest eigenvalues
    2.169036    2.268056    2.508581    2.509739    2.557024    2.568937
 

........................................................................
.............................. CYCLE    1 ..............................
........................................................................
   1   -289.0239429 -0.289024E+03  0.131E-04    0.26       0.0  T
   2   -289.0239429  0.946955E-09  0.114E-04    0.26      67.0  T
   3   -289.0239429 -0.279687E-08  0.570E-05    0.26     134.5  T
     SCC iter.                  ...        0 min,  0.095 sec
     gradient                   ...        0 min,  0.095 sec
 * total energy  :  -284.7915787 Eh     change       -0.3886271E-08 Eh
   gradient norm :     0.3088336 Eh/α   predicted     0.0000000E+00 (-100.00%)
   displ. norm   :     0.4797133 α      lambda       -0.1027808E+00
   maximum displ.:     0.1044632 α      in ANC's #272, #144, #145, ...

........................................................................
.............................. CYCLE    2 ..............................
........................................................................
   1   -289.2365631 -0.289237E+03  0.251E-01    0.26       0.0  T
   2   -289.2379228 -0.135967E-02  0.158E-01    0.29       1.0  T
   3   -289.2377195  0.203302E-03  0.951E-02    0.27       1.0  T
   4   -289.2383508 -0.631288E-03  0.424E-02    0.27       1.0  T
   5   -289.2386126 -0.261815E-03  0.147E-02    0.29       1.0  T
   6   -289.2386300 -0.173373E-04  0.799E-03    0.28       1.0  T
   7   -289.2386383 -0.836942E-05  0.314E-03    0.28       2.4  T
   8   -289.2386396 -0.127210E-05  0.124E-03    0.28       6.2  T
   9   -289.2386397 -0.572905E-07  0.722E-04    0.28      10.6  T
  10   -289.2386397 -0.344786E-07  0.345E-04    0.28      22.2  T
     SCC iter.                  ...        0 min,  0.292 sec
     gradient                   ...        0 min,  0.095 sec
 * total energy  :  -284.8670382 Eh     change       -0.7545948E-01 Eh
   gradient norm :     0.1461261 Eh/α   predicted    -0.6325835E-01 ( -16.17%)
   displ. norm   :     0.4923124 α      lambda       -0.4460767E-01
   maximum displ.:     0.0961982 α      in ANC's #72, #144, #145, ...

........................................................................
.............................. CYCLE    3 ..............................
........................................................................
   1   -289.3686627 -0.289369E+03  0.208E-01    0.25       0.0  T
   2   -289.3697377 -0.107499E-02  0.131E-01    0.29       1.0  T
   3   -289.3698003 -0.626446E-04  0.776E-02    0.27       1.0  T
   4   -289.3702199 -0.419529E-03  0.322E-02    0.27       1.0  T
   5   -289.3703578 -0.137916E-03  0.112E-02    0.28       1.0  T
   6   -289.3703666 -0.880311E-05  0.596E-03    0.27       1.3  T
   7   -289.3703703 -0.370201E-05  0.277E-03    0.28       2.8  T
   8   -289.3703712 -0.956698E-06  0.111E-03    0.28       6.9  T
   9   -289.3703713 -0.362398E-07  0.690E-04    0.28      11.1  T
  10   -289.3703713 -0.349409E-07  0.303E-04    0.28      25.3  T
     SCC iter.                  ...        0 min,  0.292 sec
     gradient                   ...        0 min,  0.095 sec
 * total energy  :  -284.8954920 Eh     change       -0.2845374E-01 Eh
   gradient norm :     0.0415082 Eh/α   predicted    -0.2770966E-01 (  -2.62%)
   displ. norm   :     0.5328078 α      lambda       -0.1228662E-01
   maximum displ.:     0.1501916 α      in ANC's #72, #74, #88, ...

........................................................................
.............................. CYCLE    4 ..............................
........................................................................
   1   -289.4077853 -0.289408E+03  0.145E-01    0.27       0.0  T
   2   -289.4078969 -0.111648E-03  0.862E-02    0.27       1.0  T
   3   -289.4074978  0.399122E-03  0.526E-02    0.28       1.0  T
   4   -289.4080021 -0.504243E-03  0.116E-02    0.27       1.0  T
   5   -289.4080174 -0.153264E-04  0.500E-03    0.28       1.5  T
   6   -289.4080192 -0.178465E-05  0.245E-03    0.27       3.1  T
   7   -289.4080198 -0.637603E-06  0.116E-03    0.28       6.6  T
   8   -289.4080200 -0.150084E-06  0.530E-04    0.27      14.5  T
   9   -289.4080200 -0.586806E-08  0.301E-04    0.28      25.5  T
     SCC iter.                  ...        0 min,  0.271 sec
     gradient                   ...        0 min,  0.095 sec
 * total energy  :  -284.9043900 Eh     change       -0.8898016E-02 Eh
   gradient norm :     0.0241851 Eh/α   predicted    -0.7887334E-02 ( -11.36%)
   displ. norm   :     0.6669041 α      lambda       -0.8566713E-02
   maximum displ.:     0.1803892 α      in ANC's #72, #74, #65, ...

........................................................................
.............................. CYCLE    5 ..............................
........................................................................
   1   -289.4249767 -0.289425E+03  0.282E-01    0.24       0.0  T
   2   -289.4251701 -0.193379E-03  0.158E-01    0.29       1.0  T
   3   -289.4235261  0.164399E-02  0.834E-02    0.20       1.0  T
   4   -289.4253015 -0.177542E-02  0.203E-02    0.31       1.0  T
   5   -289.4253697 -0.681549E-04  0.862E-03    0.27       1.0  T
   6   -289.4253756 -0.591645E-05  0.422E-03    0.26       1.8  T
   7   -289.4253772 -0.158762E-05  0.180E-03    0.26       4.3  T
   8   -289.4253773 -0.143755E-06  0.107E-03    0.26       7.2  T
   9   -289.4253775 -0.137888E-06  0.421E-04    0.26      18.2  T
  10   -289.4253775 -0.105533E-07  0.250E-04    0.26      30.7  T
     SCC iter.                  ...        0 min,  0.291 sec
     gradient                   ...        0 min,  0.095 sec
 * total energy  :  -284.9080324 Eh     change       -0.3642379E-02 Eh
   gradient norm :     0.0367159 Eh/α   predicted    -0.6188437E-02 (  69.90%)
   displ. norm   :     0.5556795 α      lambda       -0.8038171E-02
   maximum displ.:     0.1535564 α      in ANC's #61, #64, #57, ...

........................................................................
.............................. CYCLE    6 ..............................
........................................................................
   1   -289.4415020 -0.289442E+03  0.246E-01    0.29       0.0  T
   2   -289.4416327 -0.130652E-03  0.137E-01    0.27       1.0  T
   3   -289.4407350  0.897704E-03  0.656E-02    0.29       1.0  T
   4   -289.4417563 -0.102136E-02  0.107E-02    0.27       1.0  T
   5   -289.4417672 -0.109139E-04  0.538E-03    0.27       1.4  T
   6   -289.4417691 -0.188693E-05  0.245E-03    0.27       3.1  T
   7   -289.4417698 -0.693185E-06  0.958E-04    0.27       8.0  T
   8   -289.4417699 -0.927168E-07  0.428E-04    0.27      17.9  T
     SCC iter.                  ...        0 min,  0.231 sec
     gradient                   ...        0 min,  0.095 sec
 * total energy  :  -284.9119418 Eh     change       -0.3909477E-02 Eh
   gradient norm :     0.0315713 Eh/α   predicted    -0.5260120E-02 (  34.55%)
   displ. norm   :     0.4144073 α      lambda       -0.3290711E-02
   maximum displ.:     0.1186914 α      in ANC's #58, #37, #56, ...

........................................................................
.............................. CYCLE    7 ..............................
........................................................................
   1   -289.4371184 -0.289437E+03  0.138E-01    0.26       0.0  T
   2   -289.4371543 -0.358601E-04  0.791E-02    0.28       1.0  T
   3   -289.4365355  0.618725E-03  0.613E-02    0.25       1.0  T
   4   -289.4372740 -0.738516E-03  0.821E-03    0.28       1.0  T
   5   -289.4372805 -0.645907E-05  0.412E-03    0.27       1.9  T
   6   -289.4372820 -0.149119E-05  0.206E-03    0.27       3.7  T
   7   -289.4372825 -0.528400E-06  0.803E-04    0.27       9.5  T
   8   -289.4372826 -0.446579E-07  0.424E-04    0.27      18.1  T
     SCC iter.                  ...        0 min,  0.227 sec
     gradient                   ...        0 min,  0.095 sec
 * total energy  :  -284.9138939 Eh     change       -0.1952079E-02 Eh
   gradient norm :     0.0231506 Eh/α   predicted    -0.1927920E-02 (  -1.24%)
   displ. norm   :     0.5654064 α      lambda       -0.4240869E-02
   maximum displ.:     0.1783990 α      in ANC's #30, #37, #18, ...

........................................................................
.............................. CYCLE    8 ..............................
........................................................................
   1   -289.4395866 -0.289440E+03  0.169E-01    0.25       0.0  T
   2   -289.4396764 -0.897844E-04  0.956E-02    0.28       1.0  T
   3   -289.4388448  0.831673E-03  0.685E-02    0.23       1.0  T
   4   -289.4398289 -0.984120E-03  0.131E-02    0.28       1.0  T
   5   -289.4398499 -0.210441E-04  0.598E-03    0.26       1.3  T
   6   -289.4398532 -0.333126E-05  0.276E-03    0.27       2.8  T
   7   -289.4398543 -0.101903E-05  0.105E-03    0.27       7.3  T
   8   -289.4398544 -0.125394E-06  0.481E-04    0.27      15.9  T
   9   -289.4398544 -0.200100E-07  0.260E-04    0.27      29.5  T
     SCC iter.                  ...        0 min,  0.282 sec
     gradient                   ...        0 min,  0.096 sec
 * total energy  :  -284.9166957 Eh     change       -0.2801814E-02 Eh
   gradient norm :     0.0252533 Eh/α   predicted    -0.2798337E-02 (  -0.12%)
   displ. norm   :     0.5936339 α      lambda       -0.2880055E-02
   maximum displ.:     0.1779750 α      in ANC's #37, #30, #18, ...

........................................................................
.............................. CYCLE    9 ..............................
........................................................................
   1   -289.4364522 -0.289436E+03  0.166E-01    0.25       0.0  T
   2   -289.4365359 -0.837034E-04  0.938E-02    0.28       1.0  T
   3   -289.4356641  0.871836E-03  0.704E-02    0.23       1.0  T
   4   -289.4367312 -0.106709E-02  0.135E-02    0.27       1.0  T
   5   -289.4367522 -0.210282E-04  0.637E-03    0.26       1.2  T
   6   -289.4367557 -0.346196E-05  0.297E-03    0.26       2.6  T
   7   -289.4367569 -0.123159E-05  0.117E-03    0.26       6.6  T
   8   -289.4367571 -0.169094E-06  0.516E-04    0.26      14.8  T
   9   -289.4367571 -0.232620E-07  0.285E-04    0.26      26.9  T
     SCC iter.                  ...        0 min,  0.268 sec
     gradient                   ...        0 min,  0.095 sec
 * total energy  :  -284.9180328 Eh     change       -0.1337094E-02 Eh
   gradient norm :     0.0364602 Eh/α   predicted    -0.1947499E-02 (  45.65%)
   displ. norm   :     0.5835816 α      lambda       -0.4055574E-02
   maximum displ.:     0.1846853 α      in ANC's #37, #18, #30, ...

........................................................................
.............................. CYCLE   10 ..............................
........................................................................
   1   -289.4476660 -0.289448E+03  0.195E-01    0.27       0.0  T
   2   -289.4477712 -0.105146E-03  0.109E-01    0.27       1.0  T
   3   -289.4465875  0.118366E-02  0.778E-02    0.27       1.0  T
   4   -289.4479968 -0.140924E-02  0.125E-02    0.27       1.0  T
   5   -289.4480133 -0.165500E-04  0.624E-03    0.27       1.2  T
   6   -289.4480167 -0.339904E-05  0.269E-03    0.27       2.9  T
   7   -289.4480176 -0.886512E-06  0.108E-03    0.27       7.1  T
   8   -289.4480178 -0.144404E-06  0.438E-04    0.27      17.5  T
   9   -289.4480178 -0.704415E-08  0.256E-04    0.27      29.9  T
     SCC iter.                  ...        0 min,  0.264 sec
     gradient                   ...        0 min,  0.095 sec
 * total energy  :  -284.9198717 Eh     change       -0.1838894E-02 Eh
   gradient norm :     0.0329505 Eh/α   predicted    -0.2718388E-02 (  47.83%)
   displ. norm   :     0.4464811 α      lambda       -0.2184656E-02
   maximum displ.:     0.1534613 α      in ANC's #37, #18, #20, ...

........................................................................
.............................. CYCLE   11 ..............................
........................................................................
   1   -289.4465354 -0.289447E+03  0.112E-01    0.26       0.0  T
   2   -289.4465617 -0.263592E-04  0.624E-02    0.28       1.0  T
   3   -289.4461358  0.425926E-03  0.464E-02    0.25       1.0  T
   4   -289.4466397 -0.503949E-03  0.791E-03    0.27       1.0  T
   5   -289.4466451 -0.534680E-05  0.413E-03    0.27       1.9  T
   6   -289.4466466 -0.146374E-05  0.174E-03    0.27       4.4  T
   7   -289.4466470 -0.424758E-06  0.616E-04    0.27      12.5  T
   8   -289.4466470 -0.468443E-07  0.277E-04    0.27      27.7  T
     SCC iter.                  ...        0 min,  0.235 sec
     gradient                   ...        0 min,  0.095 sec
 * total energy  :  -284.9214512 Eh     change       -0.1579468E-02 Eh
   gradient norm :     0.0254540 Eh/α   predicted    -0.1310084E-02 ( -17.06%)
   displ. norm   :     0.6077521 α      lambda       -0.2646968E-02
   maximum displ.:     0.2160737 α      in ANC's #37, #20, #18, ...

........................................................................
.............................. CYCLE   12 ..............................
........................................................................
   1   -289.4577933 -0.289458E+03  0.149E-01    0.25       0.0  T
   2   -289.4578425 -0.491402E-04  0.821E-02    0.28       1.0  T
   3   -289.4573837  0.458805E-03  0.498E-02    0.23       1.0  T
   4   -289.4578964 -0.512725E-03  0.114E-02    0.28       1.0  T
   5   -289.4579110 -0.146411E-04  0.557E-03    0.26       1.4  T
   6   -289.4579140 -0.291641E-05  0.227E-03    0.27       3.4  T
   7   -289.4579147 -0.743973E-06  0.697E-04    0.27      11.0  T
   8   -289.4579147 -0.313289E-07  0.383E-04    0.27      20.0  T
     SCC iter.                  ...        0 min,  0.233 sec
     gradient                   ...        0 min,  0.095 sec
 * total energy  :  -284.9224857 Eh     change       -0.1034517E-02 Eh
   gradient norm :     0.0415611 Eh/α   predicted    -0.1812338E-02 (  75.19%)
   displ. norm   :     0.5370504 α      lambda       -0.2331785E-02
   maximum displ.:     0.1949698 α      in ANC's #37, #18, #22, ...

........................................................................
.............................. CYCLE   13 ..............................
........................................................................
   1   -289.4473276 -0.289447E+03  0.129E-01    0.25       0.0  T
   2   -289.4473584 -0.308108E-04  0.723E-02    0.28       1.0  T
   3   -289.4468077  0.550692E-03  0.541E-02    0.24       1.0  T
   4   -289.4474610 -0.653261E-03  0.908E-03    0.27       1.0  T
   5   -289.4474675 -0.653103E-05  0.503E-03    0.26       1.5  T
   6   -289.4474700 -0.241896E-05  0.188E-03    0.27       4.1  T
   7   -289.4474704 -0.428631E-06  0.822E-04    0.26       9.3  T
   8   -289.4474705 -0.104880E-06  0.317E-04    0.26      24.2  T
     SCC iter.                  ...        0 min,  0.235 sec
     gradient                   ...        0 min,  0.095 sec
 * total energy  :  -284.9242306 Eh     change       -0.1744926E-02 Eh
   gradient norm :     0.0207789 Eh/α   predicted    -0.1502164E-02 ( -13.91%)
   displ. norm   :     0.6407551 α      lambda       -0.1846215E-02
   maximum displ.:     0.2418182 α      in ANC's #37, #18, #20, ...

........................................................................
.............................. CYCLE   14 ..............................
........................................................................
   1   -289.4477467 -0.289448E+03  0.125E-01    0.25       0.0  T
   2   -289.4477767 -0.299501E-04  0.679E-02    0.27       1.0  T
   3   -289.4473648  0.411870E-03  0.459E-02    0.24       1.0  T
   4   -289.4478474 -0.482579E-03  0.900E-03    0.27       1.0  T
   5   -289.4478517 -0.435790E-05  0.552E-03    0.26       1.4  T
   6   -289.4478552 -0.349761E-05  0.181E-03    0.26       4.2  T
   7   -289.4478557 -0.455126E-06  0.668E-04    0.26      11.5  T
   8   -289.4478557 -0.617389E-07  0.276E-04    0.26      27.8  T
     SCC iter.                  ...        0 min,  0.227 sec
     gradient                   ...        0 min,  0.095 sec
 * total energy  :  -284.9257603 Eh     change       -0.1529660E-02 Eh
   gradient norm :     0.0280554 Eh/α   predicted    -0.1302102E-02 ( -14.88%)
   displ. norm   :     0.7229905 α      lambda       -0.2152149E-02
   maximum displ.:     0.2705029 α      in ANC's #37, #18, #20, ...

........................................................................
.............................. CYCLE   15 ..............................
........................................................................
   1   -289.4546697 -0.289455E+03  0.123E-01    0.25       0.0  T
   2   -289.4546971 -0.274289E-04  0.655E-02    0.27       1.0  T
   3   -289.4544825  0.214632E-03  0.343E-02    0.24       1.0  T
   4   -289.4547251 -0.242654E-03  0.930E-03    0.27       1.0  T
   5   -289.4547285 -0.341633E-05  0.578E-03    0.26       1.3  T
   6   -289.4547334 -0.491750E-05  0.154E-03    0.26       5.0  T
   7   -289.4547338 -0.338100E-06  0.615E-04    0.26      12.5  T
   8   -289.4547338 -0.505510E-07  0.266E-04    0.26      28.8  T
     SCC iter.                  ...        0 min,  0.225 sec
     gradient                   ...        0 min,  0.095 sec
 * total energy  :  -284.9277126 Eh     change       -0.1952330E-02 Eh
   gradient norm :     0.0244691 Eh/α   predicted    -0.1638559E-02 ( -16.07%)
   displ. norm   :     0.8025753 α      lambda       -0.2583310E-02
   maximum displ.:     0.2900891 α      in ANC's #37, #18, #20, ...

........................................................................
.............................. CYCLE   16 ..............................
........................................................................
   1   -289.4617174 -0.289462E+03  0.140E-01    0.24       0.0  T
   2   -289.4617510 -0.335664E-04  0.741E-02    0.27       1.0  T
   3   -289.4615669  0.184082E-03  0.331E-02    0.22       1.0  T
   4   -289.4617651 -0.198194E-03  0.111E-02    0.27       1.0  T
   5   -289.4617716 -0.650960E-05  0.637E-03    0.25       1.2  T
   6   -289.4617784 -0.680089E-05  0.153E-03    0.26       5.0  T
   7   -289.4617787 -0.291693E-06  0.744E-04    0.26      10.3  T
   8   -289.4617788 -0.712587E-07  0.312E-04    0.26      24.6  T
     SCC iter.                  ...        0 min,  0.226 sec
     gradient                   ...        0 min,  0.095 sec
 * total energy  :  -284.9299707 Eh     change       -0.2258122E-02 Eh
   gradient norm :     0.0188311 Eh/α   predicted    -0.2123647E-02 (  -5.96%)
   displ. norm   :     0.8446662 α      lambda       -0.2683927E-02
   maximum displ.:     0.3142296 α      in ANC's #37, #18, #12, ...

........................................................................
.............................. CYCLE   17 ..............................
........................................................................
   1   -289.4651177 -0.289465E+03  0.159E-01    0.24       0.0  T
   2   -289.4651661 -0.483921E-04  0.845E-02    0.27       1.0  T
   3   -289.4649610  0.205186E-03  0.356E-02    0.22       1.0  T
   4   -289.4651776 -0.216645E-03  0.129E-02    0.27       1.0  T
   5   -289.4651900 -0.123559E-04  0.743E-03    0.25       1.0  T
   6   -289.4651991 -0.913307E-05  0.153E-03    0.26       5.0  T
   7   -289.4651993 -0.230596E-06  0.751E-04    0.25      10.2  T
   8   -289.4651994 -0.645395E-07  0.358E-04    0.25      21.4  T
     SCC iter.                  ...        0 min,  0.229 sec
     gradient                   ...        0 min,  0.095 sec
 * total energy  :  -284.9321211 Eh     change       -0.2150362E-02 Eh
   gradient norm :     0.0243646 Eh/α   predicted    -0.2299406E-02 (   6.93%)
   displ. norm   :     0.8225629 α      lambda       -0.2458654E-02
   maximum displ.:     0.3170556 α      in ANC's #37, #18, #20, ...

........................................................................
.............................. CYCLE   18 ..............................
........................................................................
   1   -289.4562979 -0.289456E+03  0.143E-01    0.24       0.0  T
   2   -289.4563356 -0.377449E-04  0.755E-02    0.27       1.0  T
   3   -289.4561603  0.175333E-03  0.305E-02    0.22       1.0  T
   4   -289.4563400 -0.179662E-03  0.122E-02    0.27       1.0  T
   5   -289.4563549 -0.149373E-04  0.608E-03    0.25       1.3  T
   6   -289.4563607 -0.578642E-05  0.169E-03    0.25       4.5  T
   7   -289.4563611 -0.402063E-06  0.677E-04    0.25      11.3  T
   8   -289.4563612 -0.660489E-07  0.302E-04    0.25      25.4  T
     SCC iter.                  ...        0 min,  0.233 sec
     gradient                   ...        0 min,  0.095 sec
 * total energy  :  -284.9342983 Eh     change       -0.2177212E-02 Eh
   gradient norm :     0.0152909 Eh/α   predicted    -0.2061103E-02 (  -5.33%)
   displ. norm   :     0.7275871 α      lambda       -0.2926170E-02
   maximum displ.:     0.2232286 α      in ANC's #37, #18, #12, ...

........................................................................
.............................. CYCLE   19 ..............................
........................................................................
   1   -289.4893428 -0.289489E+03  0.138E-01    0.24       0.0  T
   2   -289.4893810 -0.382443E-04  0.761E-02    0.26       1.0  T
   3   -289.4889429  0.438157E-03  0.480E-02    0.23       1.0  T
   4   -289.4894435 -0.500615E-03  0.109E-02    0.25       1.0  T
   5   -289.4894508 -0.729767E-05  0.591E-03    0.25       1.3  T
   6   -289.4894537 -0.290748E-05  0.230E-03    0.25       3.3  T
   7   -289.4894545 -0.760274E-06  0.995E-04    0.25       7.7  T
   8   -289.4894546 -0.152470E-06  0.471E-04    0.25      16.3  T
     SCC iter.                  ...        0 min,  0.233 sec
     gradient                   ...        0 min,  0.095 sec
 * total energy  :  -284.9355522 Eh     change       -0.1253860E-02 Eh
   gradient norm :     0.0253865 Eh/α   predicted    -0.2237621E-02 (  78.46%)
   displ. norm   :     0.7143145 α      lambda       -0.3158644E-02
   maximum displ.:     0.3079544 α      in ANC's #37, #20, #18, ...

........................................................................
.............................. CYCLE   20 ..............................
........................................................................
   1   -289.4628308 -0.289463E+03  0.137E-01    0.24       0.0  T
   2   -289.4628660 -0.352111E-04  0.728E-02    0.26       1.0  T
   3   -289.4624470  0.418992E-03  0.447E-02    0.21       1.0  T
   4   -289.4629094 -0.462382E-03  0.119E-02    0.26       1.0  T
   5   -289.4629205 -0.110894E-04  0.729E-03    0.24       1.1  T
   6   -289.4629283 -0.778979E-05  0.239E-03    0.25       3.2  T
   7   -289.4629291 -0.808342E-06  0.999E-04    0.25       7.7  T
   8   -289.4629292 -0.146109E-06  0.432E-04    0.25      17.8  T
     SCC iter.                  ...        0 min,  0.233 sec
     gradient                   ...        0 min,  0.095 sec
 * total energy  :  -284.9377989 Eh     change       -0.2246744E-02 Eh
   gradient norm :     0.0182856 Eh/α   predicted    -0.2385171E-02 (   6.16%)
   displ. norm   :     0.7804751 α      lambda       -0.2127229E-02
   maximum displ.:     0.3107426 α      in ANC's #37, #18, #12, ...
 * RMSD in coord.:     0.7534311 α      energy gain  -0.1462202E+00 Eh

generating ANC from model Hessian ...
Using Lindh-Hessian (1995)
 Shifting diagonal of input Hessian by   1.000412099479251E-002
 Lowest  eigenvalues of input Hessian
    0.010000    0.000000    0.000000    0.000000    0.000000    0.000000
    0.000000    0.010009    0.010019    0.010026    0.010037    0.010063
    0.010087    0.010108    0.010133    0.010157    0.010169    0.010239
 Highest eigenvalues
    2.270339    2.272351    2.576505    2.607406    2.642843    2.646621
 

........................................................................
.............................. CYCLE   21 ..............................
........................................................................
   1   -289.4488639 -0.289449E+03  0.128E-01    0.23       0.0  T
   2   -289.4488886 -0.247462E-04  0.703E-02    0.26       1.0  T
   3   -289.4484316  0.457056E-03  0.477E-02    0.21       1.0  T
   4   -289.4489293 -0.497687E-03  0.125E-02    0.26       1.0  T
   5   -289.4489462 -0.169694E-04  0.714E-03    0.24       1.1  T
   6   -289.4489534 -0.712929E-05  0.218E-03    0.25       3.5  T
   7   -289.4489540 -0.611414E-06  0.100E-03    0.25       7.7  T
   8   -289.4489541 -0.177177E-06  0.351E-04    0.25      21.9  T
   9   -289.4489542 -0.700288E-08  0.199E-04    0.25      38.6  T
     SCC iter.                  ...        0 min,  0.262 sec
     gradient                   ...        0 min,  0.095 sec
 * total energy  :  -284.9394616 Eh     change       -0.1662643E-02 Eh
   gradient norm :     0.0202113 Eh/α   predicted     0.0000000E+00 (-100.00%)
   displ. norm   :     0.2261932 α      lambda       -0.1398778E-02
   maximum displ.:     0.1110214 α      in ANC's #34, #13, #19, ...

........................................................................
.............................. CYCLE   22 ..............................
........................................................................
   1   -289.4730878 -0.289473E+03  0.607E-02    0.24       0.0  T
   2   -289.4730953 -0.745432E-05  0.336E-02    0.25       1.0  T
   3   -289.4730553  0.399932E-04  0.162E-02    0.24       1.0  T
   4   -289.4731002 -0.449536E-04  0.408E-03    0.25       1.9  T
   5   -289.4731013 -0.104644E-05  0.231E-03    0.24       3.3  T
   6   -289.4731021 -0.790282E-06  0.891E-04    0.25       8.6  T
   7   -289.4731022 -0.138305E-06  0.370E-04    0.25      20.7  T
     SCC iter.                  ...        0 min,  0.206 sec
     gradient                   ...        0 min,  0.095 sec
 * total energy  :  -284.9404613 Eh     change       -0.9997507E-03 Eh
   gradient norm :     0.0080939 Eh/α   predicted    -0.7352517E-03 ( -26.46%)
   displ. norm   :     0.5109849 α      lambda       -0.1878616E-02
   maximum displ.:     0.2258127 α      in ANC's #34, #13, #30, ...

........................................................................
.............................. CYCLE   23 ..............................
........................................................................
   1   -289.5001144 -0.289500E+03  0.136E-01    0.24       0.0  T
   2   -289.5001541 -0.397397E-04  0.739E-02    0.25       1.0  T
   3   -289.5000899  0.641846E-04  0.222E-02    0.23       1.0  T
   4   -289.5001656 -0.756333E-04  0.829E-03    0.25       1.0  T
   5   -289.5001693 -0.376206E-05  0.448E-03    0.24       1.7  T
   6   -289.5001729 -0.354907E-05  0.158E-03    0.25       4.9  T
   7   -289.5001733 -0.397375E-06  0.717E-04    0.24      10.7  T
   8   -289.5001733 -0.679728E-07  0.321E-04    0.25      23.9  T
     SCC iter.                  ...        0 min,  0.233 sec
     gradient                   ...        0 min,  0.095 sec
 * total energy  :  -284.9411610 Eh     change       -0.6996468E-03 Eh
   gradient norm :     0.0219789 Eh/α   predicted    -0.1184570E-02 (  69.31%)
   displ. norm   :     0.4881992 α      lambda       -0.2104387E-02
   maximum displ.:     0.2476459 α      in ANC's #34, #13, #19, ...

........................................................................
.............................. CYCLE   24 ..............................
........................................................................
   1   -289.5010907 -0.289501E+03  0.139E-01    0.24       0.0  T
   2   -289.5011278 -0.370779E-04  0.748E-02    0.25       1.0  T
   3   -289.5010691  0.586684E-04  0.185E-02    0.23       1.0  T
   4   -289.5011292 -0.601503E-04  0.898E-03    0.26       1.0  T
   5   -289.5011418 -0.125321E-04  0.373E-03    0.24       2.1  T
   6   -289.5011439 -0.216399E-05  0.121E-03    0.25       6.4  T
   7   -289.5011441 -0.172502E-06  0.537E-04    0.25      14.3  T
   8   -289.5011441 -0.321246E-07  0.280E-04    0.25      27.4  T
     SCC iter.                  ...        0 min,  0.235 sec
     gradient                   ...        0 min,  0.095 sec
 * total energy  :  -284.9425678 Eh     change       -0.1406824E-02 Eh
   gradient norm :     0.0194746 Eh/α   predicted    -0.1302972E-02 (  -7.38%)
   displ. norm   :     0.5932664 α      lambda       -0.2413687E-02
   maximum displ.:     0.2869349 α      in ANC's #34, #13, #38, ...

........................................................................
.............................. CYCLE   25 ..............................
........................................................................
   1   -289.4767029 -0.289477E+03  0.150E-01    0.23       0.0  T
   2   -289.4767451 -0.421198E-04  0.815E-02    0.26       1.0  T
   3   -289.4762951  0.449925E-03  0.429E-02    0.20       1.0  T
   4   -289.4767543 -0.459124E-03  0.130E-02    0.27       1.0  T
   5   -289.4767837 -0.293940E-04  0.576E-03    0.24       1.3  T
   6   -289.4767864 -0.273132E-05  0.227E-03    0.24       3.4  T
   7   -289.4767871 -0.667904E-06  0.848E-04    0.24       9.0  T
   8   -289.4767871 -0.677525E-07  0.439E-04    0.24      17.5  T
     SCC iter.                  ...        0 min,  0.235 sec
     gradient                   ...        0 min,  0.095 sec
 * total energy  :  -284.9439931 Eh     change       -0.1425307E-02 Eh
   gradient norm :     0.0206693 Eh/α   predicted    -0.1631611E-02 (  14.47%)
   displ. norm   :     0.6274825 α      lambda       -0.2051541E-02
   maximum displ.:     0.3017924 α      in ANC's #34, #13, #38, ...

........................................................................
.............................. CYCLE   26 ..............................
........................................................................
   1   -289.4689169 -0.289469E+03  0.121E-01    0.24       0.0  T
   2   -289.4689492 -0.322957E-04  0.646E-02    0.25       1.0  T
   3   -289.4688891  0.600791E-04  0.203E-02    0.23       1.0  T
   4   -289.4689495 -0.603576E-04  0.938E-03    0.25       1.0  T
   5   -289.4689588 -0.939422E-05  0.469E-03    0.24       1.6  T
   6   -289.4689623 -0.347993E-05  0.162E-03    0.24       4.7  T
   7   -289.4689627 -0.408164E-06  0.669E-04    0.24      11.5  T
   8   -289.4689628 -0.796217E-07  0.265E-04    0.24      28.9  T
     SCC iter.                  ...        0 min,  0.234 sec
     gradient                   ...        0 min,  0.095 sec
 * total energy  :  -284.9457093 Eh     change       -0.1716184E-02 Eh
   gradient norm :     0.0167566 Eh/α   predicted    -0.1429655E-02 ( -16.70%)
   displ. norm   :     0.6843568 α      lambda       -0.2446187E-02
   maximum displ.:     0.3026410 α      in ANC's #34, #38, #19, ...

........................................................................
.............................. CYCLE   27 ..............................
........................................................................
   1   -289.4671770 -0.289467E+03  0.139E-01    0.24       0.0  T
   2   -289.4672231 -0.460761E-04  0.760E-02    0.25       1.0  T
   3   -289.4671663  0.567271E-04  0.209E-02    0.23       1.0  T
   4   -289.4672265 -0.602087E-04  0.971E-03    0.25       1.0  T
   5   -289.4672362 -0.964054E-05  0.455E-03    0.24       1.7  T
   6   -289.4672393 -0.314070E-05  0.177E-03    0.24       4.3  T
   7   -289.4672399 -0.535844E-06  0.715E-04    0.24      10.7  T
   8   -289.4672400 -0.942802E-07  0.291E-04    0.24      26.3  T
     SCC iter.                  ...        0 min,  0.235 sec
     gradient                   ...        0 min,  0.095 sec
 * total energy  :  -284.9472294 Eh     change       -0.1520162E-02 Eh
   gradient norm :     0.0168133 Eh/α   predicted    -0.1795930E-02 (  18.14%)
   displ. norm   :     0.6568470 α      lambda       -0.2574911E-02
   maximum displ.:     0.2888697 α      in ANC's #34, #13, #38, ...

........................................................................
.............................. CYCLE   28 ..............................
........................................................................
   1   -289.4650151 -0.289465E+03  0.160E-01    0.23       0.0  T
   2   -289.4650742 -0.591301E-04  0.873E-02    0.25       1.0  T
   3   -289.4648623  0.211893E-03  0.318E-02    0.21       1.0  T
   4   -289.4650849 -0.222527E-03  0.111E-02    0.26       1.0  T
   5   -289.4651031 -0.182442E-04  0.597E-03    0.24       1.3  T
   6   -289.4651088 -0.568663E-05  0.165E-03    0.24       4.6  T
   7   -289.4651091 -0.257625E-06  0.871E-04    0.24       8.8  T
   8   -289.4651092 -0.118371E-06  0.335E-04    0.24      22.9  T
     SCC iter.                  ...        0 min,  0.234 sec
     gradient                   ...        0 min,  0.095 sec
 * total energy  :  -284.9486590 Eh     change       -0.1429612E-02 Eh
   gradient norm :     0.0217367 Eh/α   predicted    -0.1842926E-02 (  28.91%)
   displ. norm   :     0.6593533 α      lambda       -0.2373666E-02
   maximum displ.:     0.2790316 α      in ANC's #34, #19, #38, ...

........................................................................
.............................. CYCLE   29 ..............................
........................................................................
   1   -289.4616649 -0.289462E+03  0.124E-01    0.24       0.0  T
   2   -289.4616987 -0.337305E-04  0.658E-02    0.25       1.0  T
   3   -289.4616080  0.906772E-04  0.235E-02    0.22       1.0  T
   4   -289.4616929 -0.849316E-04  0.110E-02    0.26       1.0  T
   5   -289.4617100 -0.170822E-04  0.488E-03    0.24       1.6  T
   6   -289.4617128 -0.277330E-05  0.226E-03    0.24       3.4  T
   7   -289.4617137 -0.918818E-06  0.655E-04    0.24      11.7  T
   8   -289.4617138 -0.626563E-07  0.315E-04    0.24      24.4  T
     SCC iter.                  ...        0 min,  0.238 sec
     gradient                   ...        0 min,  0.095 sec
 * total energy  :  -284.9501417 Eh     change       -0.1482697E-02 Eh
   gradient norm :     0.0242987 Eh/α   predicted    -0.1702805E-02 (  14.85%)
   displ. norm   :     0.4083033 α      lambda       -0.2860866E-02
   maximum displ.:     0.1094420 α      in ANC's #19, #13, #34, ...

........................................................................
.............................. CYCLE   30 ..............................
........................................................................
   1   -289.4988689 -0.289499E+03  0.109E-01    0.23       0.0  T
   2   -289.4988950 -0.260771E-04  0.608E-02    0.25       1.0  T
   3   -289.4987968  0.981380E-04  0.225E-02    0.22       1.0  T
   4   -289.4989025 -0.105638E-03  0.706E-03    0.25       1.1  T
   5   -289.4989096 -0.718200E-05  0.339E-03    0.24       2.3  T
   6   -289.4989107 -0.102857E-05  0.175E-03    0.24       4.4  T
   7   -289.4989112 -0.509147E-06  0.689E-04    0.24      11.1  T
   8   -289.4989112 -0.630710E-07  0.312E-04    0.24      24.6  T
     SCC iter.                  ...        0 min,  0.238 sec
     gradient                   ...        0 min,  0.095 sec
 * total energy  :  -284.9515249 Eh     change       -0.1383199E-02 Eh
   gradient norm :     0.0267088 Eh/α   predicted    -0.1668903E-02 (  20.66%)
   displ. norm   :     0.7456197 α      lambda       -0.2436666E-02
   maximum displ.:     0.3200232 α      in ANC's #34, #13, #38, ...

........................................................................
.............................. CYCLE   31 ..............................
........................................................................
   1   -289.4845817 -0.289485E+03  0.128E-01    0.23       0.0  T
   2   -289.4846150 -0.333274E-04  0.702E-02    0.25       1.0  T
   3   -289.4845063  0.108722E-03  0.237E-02    0.22       1.0  T
   4   -289.4846020 -0.957579E-04  0.114E-02    0.25       1.0  T
   5   -289.4846253 -0.233110E-04  0.521E-03    0.24       1.5  T
   6   -289.4846295 -0.419325E-05  0.173E-03    0.24       4.4  T
   7   -289.4846299 -0.370889E-06  0.751E-04    0.24      10.2  T
   8   -289.4846300 -0.974748E-07  0.287E-04    0.24      26.8  T
     SCC iter.                  ...        0 min,  0.237 sec
     gradient                   ...        0 min,  0.095 sec
 * total energy  :  -284.9535530 Eh     change       -0.2028077E-02 Eh
   gradient norm :     0.0137080 Eh/α   predicted    -0.1895678E-02 (  -6.53%)
   displ. norm   :     0.7942309 α      lambda       -0.2254676E-02
   maximum displ.:     0.2920914 α      in ANC's #34, #13, #38, ...

........................................................................
.............................. CYCLE   32 ..............................
........................................................................
   1   -289.4747788 -0.289475E+03  0.136E-01    0.23       0.0  T
   2   -289.4748135 -0.346952E-04  0.742E-02    0.25       1.0  T
   3   -289.4745974  0.216093E-03  0.286E-02    0.20       1.0  T
   4   -289.4747859 -0.188485E-03  0.139E-02    0.26       1.0  T
   5   -289.4748296 -0.436426E-04  0.593E-03    0.24       1.3  T
   6   -289.4748332 -0.360575E-05  0.171E-03    0.24       4.5  T
   7   -289.4748335 -0.281013E-06  0.679E-04    0.24      11.3  T
   8   -289.4748335 -0.532934E-07  0.335E-04    0.24      22.9  T
     SCC iter.                  ...        0 min,  0.235 sec
     gradient                   ...        0 min,  0.095 sec
 * total energy  :  -284.9553316 Eh     change       -0.1778629E-02 Eh
   gradient norm :     0.0187917 Eh/α   predicted    -0.1838468E-02 (   3.36%)
   displ. norm   :     0.7760212 α      lambda       -0.1934414E-02
   maximum displ.:     0.2902988 α      in ANC's #34, #13, #38, ...

........................................................................
.............................. CYCLE   33 ..............................
........................................................................
   1   -289.4708028 -0.289471E+03  0.124E-01    0.22       0.0  T
   2   -289.4708276 -0.247505E-04  0.677E-02    0.24       1.0  T
   3   -289.4706168  0.210748E-03  0.270E-02    0.20       1.0  T
   4   -289.4707927 -0.175860E-03  0.137E-02    0.26       1.0  T
   5   -289.4708395 -0.467783E-04  0.530E-03    0.24       1.4  T
   6   -289.4708423 -0.284069E-05  0.165E-03    0.23       4.7  T
   7   -289.4708426 -0.264416E-06  0.709E-04    0.23      10.8  T
   8   -289.4708426 -0.732192E-07  0.338E-04    0.23      22.7  T
     SCC iter.                  ...        0 min,  0.237 sec
     gradient                   ...        0 min,  0.095 sec
 * total energy  :  -284.9569753 Eh     change       -0.1643618E-02 Eh
   gradient norm :     0.0185881 Eh/α   predicted    -0.1549672E-02 (  -5.72%)
   displ. norm   :     0.6881696 α      lambda       -0.2538020E-02
   maximum displ.:     0.2086231 α      in ANC's #13, #3, #38, ...

........................................................................
.............................. CYCLE   34 ..............................
........................................................................
   1   -289.5037973 -0.289504E+03  0.114E-01    0.22       0.0  T
   2   -289.5038217 -0.243582E-04  0.634E-02    0.24       1.0  T
   3   -289.5037080  0.113652E-03  0.233E-02    0.20       1.0  T
   4   -289.5038029 -0.948203E-04  0.114E-02    0.25       1.0  T
   5   -289.5038313 -0.284641E-04  0.495E-03    0.23       1.5  T
   6   -289.5038344 -0.307030E-05  0.208E-03    0.23       3.7  T
   7   -289.5038350 -0.639173E-06  0.829E-04    0.23       9.3  T
   8   -289.5038351 -0.974802E-07  0.425E-04    0.23      18.0  T
     SCC iter.                  ...        0 min,  0.242 sec
     gradient                   ...        0 min,  0.095 sec
 * total energy  :  -284.9582209 Eh     change       -0.1245589E-02 Eh
   gradient norm :     0.0200508 Eh/α   predicted    -0.1869988E-02 (  50.13%)
   displ. norm   :     0.6926738 α      lambda       -0.2609881E-02
   maximum displ.:     0.2330996 α      in ANC's #34, #13, #19, ...

........................................................................
.............................. CYCLE   35 ..............................
........................................................................
   1   -289.4967556 -0.289497E+03  0.117E-01    0.23       0.0  T
   2   -289.4967874 -0.317905E-04  0.636E-02    0.23       1.0  T
   3   -289.4967512  0.361557E-04  0.182E-02    0.22       1.0  T
   4   -289.4967758 -0.245976E-04  0.101E-02    0.24       1.0  T
   5   -289.4967892 -0.133745E-04  0.547E-03    0.22       1.4  T
   6   -289.4967952 -0.597877E-05  0.225E-03    0.23       3.4  T
   7   -289.4967964 -0.118849E-05  0.639E-04    0.23      12.0  T
   8   -289.4967964 -0.554407E-07  0.345E-04    0.23      22.2  T
   9   -289.4967964 -0.933693E-08  0.137E-04    0.23      55.9  T
     SCC iter.                  ...        0 min,  0.264 sec
     gradient                   ...        0 min,  0.095 sec
 * total energy  :  -284.9595829 Eh     change       -0.1362024E-02 Eh
   gradient norm :     0.0168186 Eh/α   predicted    -0.1931049E-02 (  41.78%)
   displ. norm   :     0.6821493 α      lambda       -0.2181573E-02
   maximum displ.:     0.2502573 α      in ANC's #34, #13, #38, ...

........................................................................
.............................. CYCLE   36 ..............................
........................................................................
   1   -289.4737195 -0.289474E+03  0.123E-01    0.22       0.0  T
   2   -289.4737526 -0.330631E-04  0.676E-02    0.24       1.0  T
   3   -289.4736335  0.119080E-03  0.232E-02    0.20       1.0  T
   4   -289.4737219 -0.884603E-04  0.128E-02    0.25       1.0  T
   5   -289.4737627 -0.408096E-04  0.522E-03    0.23       1.5  T
   6   -289.4737659 -0.320187E-05  0.223E-03    0.23       3.4  T
   7   -289.4737666 -0.635365E-06  0.860E-04    0.23       8.9  T
   8   -289.4737667 -0.106860E-06  0.447E-04    0.23      17.1  T
     SCC iter.                  ...        0 min,  0.238 sec
     gradient                   ...        0 min,  0.095 sec
 * total energy  :  -284.9602343 Eh     change       -0.6514180E-03 Eh
   gradient norm :     0.0243687 Eh/α   predicted    -0.1598361E-02 ( 145.37%)
   displ. norm   :     0.3858782 α      lambda       -0.2033347E-02
   maximum displ.:     0.1465937 α      in ANC's #13, #3, #10, ...

........................................................................
.............................. CYCLE   37 ..............................
........................................................................
   1   -289.4835215 -0.289484E+03  0.689E-02    0.22       0.0  T
   2   -289.4835330 -0.114496E-04  0.380E-02    0.23       1.0  T
   3   -289.4834514  0.815768E-04  0.179E-02    0.20       1.0  T
   4   -289.4835242 -0.728349E-04  0.783E-03    0.24       1.0  T
   5   -289.4835399 -0.157065E-04  0.310E-03    0.23       2.5  T
   6   -289.4835408 -0.836863E-06  0.156E-03    0.23       4.9  T
   7   -289.4835411 -0.336755E-06  0.564E-04    0.23      13.6  T
   8   -289.4835411 -0.455456E-07  0.284E-04    0.23      27.0  T
     SCC iter.                  ...        0 min,  0.238 sec
     gradient                   ...        0 min,  0.095 sec
 * total energy  :  -284.9614622 Eh     change       -0.1227910E-02 Eh
   gradient norm :     0.0144707 Eh/α   predicted    -0.1168060E-02 (  -4.87%)
   displ. norm   :     0.6348700 α      lambda       -0.1401659E-02
   maximum displ.:     0.2211822 α      in ANC's #13, #3, #34, ...

........................................................................
.............................. CYCLE   38 ..............................
........................................................................
   1   -289.4925360 -0.289493E+03  0.101E-01    0.22       0.0  T
   2   -289.4925524 -0.163528E-04  0.555E-02    0.23       1.0  T
   3   -289.4925281  0.242604E-04  0.142E-02    0.22       1.0  T
   4   -289.4925526 -0.244577E-04  0.691E-03    0.23       1.1  T
   5   -289.4925560 -0.338703E-05  0.357E-03    0.22       2.1  T
   6   -289.4925580 -0.204548E-05  0.154E-03    0.23       5.0  T
   7   -289.4925586 -0.630366E-06  0.643E-04    0.23      11.9  T
   8   -289.4925587 -0.973903E-07  0.278E-04    0.23      27.5  T
     SCC iter.                  ...        0 min,  0.236 sec
     gradient                   ...        0 min,  0.095 sec
 * total energy  :  -284.9623661 Eh     change       -0.9039012E-03 Eh
   gradient norm :     0.0113202 Eh/α   predicted    -0.9833074E-03 (   8.78%)
   displ. norm   :     0.6107005 α      lambda       -0.1281609E-02
   maximum displ.:     0.2304493 α      in ANC's #13, #3, #10, ...

........................................................................
.............................. CYCLE   39 ..............................
........................................................................
   1   -289.5006352 -0.289501E+03  0.890E-02    0.23       0.0  T
   2   -289.5006461 -0.108657E-04  0.486E-02    0.23       1.0  T
   3   -289.5005973  0.487751E-04  0.175E-02    0.22       1.0  T
   4   -289.5006488 -0.514934E-04  0.641E-03    0.23       1.2  T
   5   -289.5006501 -0.127646E-05  0.374E-03    0.22       2.1  T
   6   -289.5006529 -0.282853E-05  0.140E-03    0.23       5.5  T
   7   -289.5006535 -0.574852E-06  0.577E-04    0.23      13.3  T
   8   -289.5006536 -0.757169E-07  0.236E-04    0.23      32.5  T
     SCC iter.                  ...        0 min,  0.232 sec
     gradient                   ...        0 min,  0.095 sec
 * total energy  :  -284.9634073 Eh     change       -0.1041145E-02 Eh
   gradient norm :     0.0089919 Eh/α   predicted    -0.8797970E-03 ( -15.50%)
   displ. norm   :     0.7774083 α      lambda       -0.1458827E-02
   maximum displ.:     0.2954105 α      in ANC's #13, #10, #34, ...

........................................................................
.............................. CYCLE   40 ..............................
........................................................................
   1   -289.4976392 -0.289498E+03  0.119E-01    0.22       0.0  T
   2   -289.4976596 -0.203622E-04  0.658E-02    0.23       1.0  T
   3   -289.4975212  0.138376E-03  0.261E-02    0.21       1.0  T
   4   -289.4976581 -0.136901E-03  0.943E-03    0.24       1.0  T
   5   -289.4976667 -0.858872E-05  0.591E-03    0.22       1.3  T
   6   -289.4976749 -0.826202E-05  0.207E-03    0.23       3.7  T
   7   -289.4976759 -0.985490E-06  0.765E-04    0.23      10.0  T
   8   -289.4976760 -0.100659E-06  0.318E-04    0.23      24.1  T
     SCC iter.                  ...        0 min,  0.235 sec
     gradient                   ...        0 min,  0.095 sec
 * total energy  :  -284.9643498 Eh     change       -0.9425258E-03 Eh
   gradient norm :     0.0151393 Eh/α   predicted    -0.1170268E-02 (  24.16%)
   displ. norm   :     0.7277740 α      lambda       -0.1260614E-02
   maximum displ.:     0.2771333 α      in ANC's #13, #10, #3, ...

........................................................................
.............................. CYCLE   41 ..............................
........................................................................
   1   -289.4842107 -0.289484E+03  0.110E-01    0.23       0.0  T
   2   -289.4842288 -0.181128E-04  0.599E-02    0.23       1.0  T
   3   -289.4841524  0.764826E-04  0.211E-02    0.22       1.0  T
   4   -289.4842281 -0.757506E-04  0.864E-03    0.24       1.0  T
   5   -289.4842335 -0.538257E-05  0.515E-03    0.22       1.5  T
   6   -289.4842394 -0.593176E-05  0.189E-03    0.23       4.1  T
   7   -289.4842404 -0.963917E-06  0.687E-04    0.23      11.2  T
   8   -289.4842405 -0.907909E-07  0.276E-04    0.23      27.8  T
     SCC iter.                  ...        0 min,  0.238 sec
     gradient                   ...        0 min,  0.095 sec
 * total energy  :  -284.9651440 Eh     change       -0.7942611E-03 Eh
   gradient norm :     0.0151079 Eh/α   predicted    -0.9641553E-03 (  21.39%)
   displ. norm   :     0.5349617 α      lambda       -0.1525542E-02
   maximum displ.:     0.1878786 α      in ANC's #13, #7, #10, ...

........................................................................
.............................. CYCLE   42 ..............................
........................................................................
   1   -289.5101799 -0.289510E+03  0.860E-02    0.24       0.0  T
   2   -289.5101971 -0.172487E-04  0.476E-02    0.23       1.0  T
   3   -289.5101263  0.708948E-04  0.212E-02    0.24       1.0  T
   4   -289.5102057 -0.794633E-04  0.620E-03    0.23       1.2  T
   5   -289.5102092 -0.345620E-05  0.310E-03    0.23       2.5  T
   6   -289.5102098 -0.636302E-06  0.138E-03    0.23       5.6  T
   7   -289.5102101 -0.305192E-06  0.575E-04    0.23      13.3  T
   8   -289.5102101 -0.247865E-07  0.342E-04    0.23      22.5  T
     SCC iter.                  ...        0 min,  0.235 sec
     gradient                   ...        0 min,  0.095 sec
 * total energy  :  -284.9657049 Eh     change       -0.5608811E-03 Eh
   gradient norm :     0.0207757 Eh/α   predicted    -0.9810641E-03 (  74.91%)
   displ. norm   :     0.5732002 α      lambda       -0.1418357E-02
   maximum displ.:     0.2035881 α      in ANC's #13, #3, #10, ...
 * RMSD in coord.:     0.9501598 α      energy gain  -0.2790600E-01 Eh

generating ANC from model Hessian ...
Using Lindh-Hessian (1995)
 Shifting diagonal of input Hessian by   1.037134666241730E-002
 Lowest  eigenvalues of input Hessian
    0.010000    0.010239    0.010361    0.000000    0.000000    0.000000
    0.000000    0.000000    0.000000    0.010375    0.010385    0.010387
    0.010411    0.010427    0.010446    0.010458    0.010491    0.010500
 Highest eigenvalues
    2.273702    2.277118    2.602770    2.608656    2.649303    2.668276
 

........................................................................
.............................. CYCLE   43 ..............................
........................................................................
   1   -289.5014716 -0.289501E+03  0.830E-02    0.23       0.0  T
   2   -289.5014852 -0.136257E-04  0.453E-02    0.24       1.0  T
   3   -289.5014707  0.145004E-04  0.119E-02    0.23       1.0  T
   4   -289.5014844 -0.137286E-04  0.613E-03    0.24       1.3  T
   5   -289.5014875 -0.304715E-05  0.326E-03    0.23       2.4  T
   6   -289.5014891 -0.159087E-05  0.144E-03    0.24       5.3  T
   7   -289.5014896 -0.536645E-06  0.484E-04    0.23      15.9  T
   8   -289.5014896 -0.294302E-07  0.268E-04    0.23      28.6  T
     SCC iter.                  ...        0 min,  0.233 sec
     gradient                   ...        0 min,  0.095 sec
 * total energy  :  -284.9664960 Eh     change       -0.7910623E-03 Eh
   gradient norm :     0.0148087 Eh/α   predicted     0.0000000E+00 (-100.00%)
   displ. norm   :     0.1577662 α      lambda       -0.7700329E-03
   maximum displ.:     0.0434937 α      in ANC's #45, #9, #30, ...

........................................................................
.............................. CYCLE   44 ..............................
........................................................................
   1   -289.5012817 -0.289501E+03  0.567E-02    0.23       0.0  T
   2   -289.5012878 -0.610959E-05  0.315E-02    0.23       1.0  T
   3   -289.5012737  0.141376E-04  0.926E-03    0.23       1.0  T
   4   -289.5012894 -0.157119E-04  0.313E-03    0.23       2.4  T
   5   -289.5012905 -0.109216E-05  0.169E-03    0.23       4.5  T
   6   -289.5012909 -0.362562E-06  0.825E-04    0.23       9.3  T
   7   -289.5012910 -0.159502E-06  0.320E-04    0.23      24.0  T
     SCC iter.                  ...        0 min,  0.206 sec
     gradient                   ...        0 min,  0.095 sec
 * total energy  :  -284.9669658 Eh     change       -0.4697904E-03 Eh
   gradient norm :     0.0067106 Eh/α   predicted    -0.3947592E-03 ( -15.97%)
   displ. norm   :     0.3804824 α      lambda       -0.1240992E-02
   maximum displ.:     0.1022464 α      in ANC's #16, #9, #29, ...

........................................................................
.............................. CYCLE   45 ..............................
........................................................................
   1   -289.5003754 -0.289500E+03  0.142E-01    0.23       0.0  T
   2   -289.5004096 -0.341369E-04  0.779E-02    0.23       1.0  T
   3   -289.5003631  0.464555E-04  0.177E-02    0.24       1.0  T
   4   -289.5004192 -0.560412E-04  0.650E-03    0.23       1.2  T
   5   -289.5004236 -0.439010E-05  0.348E-03    0.24       2.2  T
   6   -289.5004253 -0.178850E-05  0.133E-03    0.23       5.8  T
   7   -289.5004257 -0.314257E-06  0.679E-04    0.23      11.3  T
   8   -289.5004257 -0.754518E-07  0.320E-04    0.23      23.9  T
     SCC iter.                  ...        0 min,  0.234 sec
     gradient                   ...        0 min,  0.095 sec
 * total energy  :  -284.9668533 Eh     change        0.1125013E-03 Eh
   gradient norm :     0.0193586 Eh/α   predicted    -0.7103248E-03 (-731.39%)
   displ. norm   :     0.1276223 α      lambda       -0.1263738E-02
   maximum displ.:     0.0394299 α      in ANC's #30, #56, #45, ...

........................................................................
.............................. CYCLE   46 ..............................
........................................................................
   1   -289.5030345 -0.289503E+03  0.810E-02    0.23       0.0  T
   2   -289.5030457 -0.112536E-04  0.449E-02    0.23       1.0  T
   3   -289.5030453  0.472022E-06  0.539E-03    0.23       1.4  T
   4   -289.5030493 -0.406086E-05  0.239E-03    0.23       3.2  T
   5   -289.5030497 -0.428109E-06  0.137E-03    0.23       5.6  T
   6   -289.5030500 -0.254349E-06  0.598E-04    0.23      12.8  T
   7   -289.5030501 -0.746455E-07  0.276E-04    0.23      27.8  T
     SCC iter.                  ...        0 min,  0.211 sec
     gradient                   ...        0 min,  0.095 sec
 * total energy  :  -284.9676406 Eh     change       -0.7873038E-03 Eh
   gradient norm :     0.0087232 Eh/α   predicted    -0.6421604E-03 ( -18.44%)
   displ. norm   :     0.2810005 α      lambda       -0.5793842E-03
   maximum displ.:     0.0796541 α      in ANC's #9, #5, #16, ...

........................................................................
.............................. CYCLE   47 ..............................
........................................................................
   1   -289.5016854 -0.289502E+03  0.643E-02    0.23       0.0  T
   2   -289.5016928 -0.739521E-05  0.350E-02    0.23       1.0  T
   3   -289.5016886  0.417670E-05  0.657E-03    0.23       1.2  T
   4   -289.5016945 -0.584811E-05  0.324E-03    0.23       2.4  T
   5   -289.5016954 -0.939998E-06  0.154E-03    0.23       5.0  T
   6   -289.5016958 -0.356943E-06  0.542E-04    0.23      14.2  T
   7   -289.5016958 -0.442718E-07  0.261E-04    0.23      29.4  T
     SCC iter.                  ...        0 min,  0.211 sec
     gradient                   ...        0 min,  0.095 sec
 * total energy  :  -284.9679796 Eh     change       -0.3390472E-03 Eh
   gradient norm :     0.0063392 Eh/α   predicted    -0.3125720E-03 (  -7.81%)
   displ. norm   :     0.5653605 α      lambda       -0.9718965E-03
   maximum displ.:     0.1637003 α      in ANC's #16, #9, #14, ...

........................................................................
.............................. CYCLE   48 ..............................
........................................................................
   1   -289.4982596 -0.289498E+03  0.109E-01    0.23       0.0  T
   2   -289.4982832 -0.236609E-04  0.586E-02    0.23       1.0  T
   3   -289.4982771  0.608366E-05  0.108E-02    0.24       1.0  T
   4   -289.4982870 -0.989858E-05  0.588E-03    0.23       1.3  T
   5   -289.4982901 -0.307813E-05  0.267E-03    0.24       2.9  T
   6   -289.4982918 -0.166000E-05  0.102E-03    0.23       7.5  T
   7   -289.4982920 -0.214298E-06  0.465E-04    0.23      16.5  T
   8   -289.4982920 -0.213578E-07  0.255E-04    0.23      30.0  T
     SCC iter.                  ...        0 min,  0.235 sec
     gradient                   ...        0 min,  0.095 sec
 * total energy  :  -284.9683570 Eh     change       -0.3773571E-03 Eh
   gradient norm :     0.0158090 Eh/α   predicted    -0.6412734E-03 (  69.94%)
   displ. norm   :     0.3408064 α      lambda       -0.8378698E-03
   maximum displ.:     0.1042276 α      in ANC's #16, #5, #9, ...

........................................................................
.............................. CYCLE   49 ..............................
........................................................................
   1   -289.5017290 -0.289502E+03  0.800E-02    0.24       0.0  T
   2   -289.5017414 -0.123942E-04  0.435E-02    0.23       1.0  T
   3   -289.5017220  0.193753E-04  0.975E-03    0.25       1.0  T
   4   -289.5017447 -0.226971E-04  0.391E-03    0.23       2.0  T
   5   -289.5017467 -0.199594E-05  0.196E-03    0.24       3.9  T
   6   -289.5017474 -0.746542E-06  0.541E-04    0.23      14.2  T
   7   -289.5017475 -0.404711E-07  0.269E-04    0.24      28.5  T
     SCC iter.                  ...        0 min,  0.208 sec
     gradient                   ...        0 min,  0.095 sec
 * total energy  :  -284.9688819 Eh     change       -0.5249030E-03 Eh
   gradient norm :     0.0102355 Eh/α   predicted    -0.4675980E-03 ( -10.92%)
   displ. norm   :     0.4354420 α      lambda       -0.1157081E-02
   maximum displ.:     0.1334040 α      in ANC's #5, #9, #16, ...

........................................................................
.............................. CYCLE   50 ..............................
........................................................................
   1   -289.5103859 -0.289510E+03  0.977E-02    0.24       0.0  T
   2   -289.5104057 -0.198071E-04  0.534E-02    0.24       1.0  T
   3   -289.5103890  0.166720E-04  0.115E-02    0.25       1.0  T
   4   -289.5104108 -0.218006E-04  0.476E-03    0.24       1.6  T
   5   -289.5104131 -0.230341E-05  0.228E-03    0.24       3.4  T
   6   -289.5104138 -0.687129E-06  0.114E-03    0.24       6.7  T
   7   -289.5104141 -0.301387E-06  0.405E-04    0.24      18.9  T
   8   -289.5104141 -0.123189E-07  0.246E-04    0.24      31.2  T
     SCC iter.                  ...        0 min,  0.235 sec
     gradient                   ...        0 min,  0.095 sec
 * total energy  :  -284.9693083 Eh     change       -0.4264620E-03 Eh
   gradient norm :     0.0156518 Eh/α   predicted    -0.6882367E-03 (  61.38%)
   displ. norm   :     0.5070027 α      lambda       -0.9824920E-03
   maximum displ.:     0.1835442 α      in ANC's #16, #14, #5, ...

........................................................................
.............................. CYCLE   51 ..............................
........................................................................
   1   -289.5062472 -0.289506E+03  0.109E-01    0.24       0.0  T
   2   -289.5062708 -0.236195E-04  0.588E-02    0.24       1.0  T
   3   -289.5062592  0.116415E-04  0.116E-02    0.24       1.0  T
   4   -289.5062778 -0.186417E-04  0.525E-03    0.24       1.5  T
   5   -289.5062801 -0.220459E-05  0.205E-03    0.24       3.8  T
   6   -289.5062808 -0.782630E-06  0.616E-04    0.24      12.5  T
   7   -289.5062809 -0.467930E-07  0.367E-04    0.24      20.9  T
     SCC iter.                  ...        0 min,  0.208 sec
     gradient                   ...        0 min,  0.095 sec
 * total energy  :  -284.9697777 Eh     change       -0.4694040E-03 Eh
   gradient norm :     0.0114078 Eh/α   predicted    -0.6175215E-03 (  31.55%)
   displ. norm   :     0.5461599 α      lambda       -0.1090088E-02
   maximum displ.:     0.1640147 α      in ANC's #16, #9, #5, ...

........................................................................
.............................. CYCLE   52 ..............................
........................................................................
   1   -289.4981220 -0.289498E+03  0.102E-01    0.25       0.0  T
   2   -289.4981416 -0.195121E-04  0.549E-02    0.24       1.0  T
   3   -289.4981332  0.832681E-05  0.107E-02    0.25       1.0  T
   4   -289.4981439 -0.106801E-04  0.587E-03    0.24       1.3  T
   5   -289.4981474 -0.349337E-05  0.260E-03    0.24       2.9  T
   6   -289.4981485 -0.112959E-05  0.101E-03    0.24       7.6  T
   7   -289.4981487 -0.183447E-06  0.391E-04    0.24      19.6  T
   8   -289.4981487 -0.776373E-08  0.234E-04    0.24      32.7  T
     SCC iter.                  ...        0 min,  0.238 sec
     gradient                   ...        0 min,  0.095 sec
 * total energy  :  -284.9703447 Eh     change       -0.5669282E-03 Eh
   gradient norm :     0.0126365 Eh/α   predicted    -0.7076284E-03 (  24.82%)
   displ. norm   :     0.4728361 α      lambda       -0.6983802E-03
   maximum displ.:     0.1636254 α      in ANC's #16, #14, #5, ...

........................................................................
.............................. CYCLE   53 ..............................
........................................................................
   1   -289.5032796 -0.289503E+03  0.495E-02    0.25       0.0  T
   2   -289.5032848 -0.519330E-05  0.262E-02    0.24       1.0  T
   3   -289.5032738  0.109614E-04  0.919E-03    0.25       1.0  T
   4   -289.5032858 -0.119993E-04  0.391E-03    0.24       2.0  T
   5   -289.5032868 -0.948414E-06  0.187E-03    0.25       4.1  T
   6   -289.5032872 -0.412280E-06  0.641E-04    0.25      12.0  T
   7   -289.5032873 -0.701511E-07  0.205E-04    0.25      37.4  T
     SCC iter.                  ...        0 min,  0.208 sec
     gradient                   ...        0 min,  0.095 sec
 * total energy  :  -284.9709188 Eh     change       -0.5740878E-03 Eh
   gradient norm :     0.0085589 Eh/α   predicted    -0.4272649E-03 ( -25.57%)
   displ. norm   :     0.7624649 α      lambda       -0.8871268E-03
   maximum displ.:     0.2681781 α      in ANC's #16, #5, #14, ...

........................................................................
.............................. CYCLE   54 ..............................
........................................................................
   1   -289.5080108 -0.289508E+03  0.881E-02    0.25       0.0  T
   2   -289.5080237 -0.129675E-04  0.461E-02    0.25       1.0  T
   3   -289.5079898  0.339046E-04  0.153E-02    0.25       1.0  T
   4   -289.5080273 -0.374449E-04  0.636E-03    0.25       1.2  T
   5   -289.5080293 -0.199329E-05  0.324E-03    0.25       2.4  T
   6   -289.5080310 -0.171189E-05  0.721E-04    0.25      10.6  T
   7   -289.5080311 -0.806951E-07  0.349E-04    0.25      22.0  T
   8   -289.5080311 -0.138966E-07  0.166E-04    0.25      46.2  T
     SCC iter.                  ...        0 min,  0.232 sec
     gradient                   ...        0 min,  0.095 sec
 * total energy  :  -284.9716472 Eh     change       -0.7284679E-03 Eh
   gradient norm :     0.0076477 Eh/α   predicted    -0.7014310E-03 (  -3.71%)
   displ. norm   :     0.7995482 α      lambda       -0.7840568E-03
   maximum displ.:     0.2900504 α      in ANC's #16, #14, #5, ...

........................................................................
.............................. CYCLE   55 ..............................
........................................................................
   1   -289.5094046 -0.289509E+03  0.887E-02    0.26       0.0  T
   2   -289.5094172 -0.125888E-04  0.464E-02    0.26       1.0  T
   3   -289.5093542  0.629533E-04  0.190E-02    0.25       1.0  T
   4   -289.5094242 -0.699095E-04  0.657E-03    0.26       1.2  T
   5   -289.5094257 -0.158568E-05  0.356E-03    0.25       2.2  T
   6   -289.5094277 -0.197450E-05  0.762E-04    0.26      10.1  T
   7   -289.5094278 -0.879870E-07  0.341E-04    0.26      22.5  T
   8   -289.5094278 -0.119768E-07  0.171E-04    0.26      44.9  T
     SCC iter.                  ...        0 min,  0.235 sec
     gradient                   ...        0 min,  0.095 sec
 * total energy  :  -284.9723640 Eh     change       -0.7167198E-03 Eh
   gradient norm :     0.0069429 Eh/α   predicted    -0.6426559E-03 ( -10.33%)
   displ. norm   :     0.8435254 α      lambda       -0.8202287E-03
   maximum displ.:     0.3115763 α      in ANC's #16, #5, #14, ...

........................................................................
.............................. CYCLE   56 ..............................
........................................................................
   1   -289.5097314 -0.289510E+03  0.935E-02    0.26       0.0  T
   2   -289.5097450 -0.135940E-04  0.491E-02    0.26       1.0  T
   3   -289.5096694  0.755443E-04  0.204E-02    0.26       1.0  T
   4   -289.5097531 -0.836271E-04  0.689E-03    0.26       1.1  T
   5   -289.5097551 -0.208266E-05  0.376E-03    0.26       2.0  T
   6   -289.5097572 -0.209033E-05  0.850E-04    0.26       9.0  T
   7   -289.5097573 -0.108623E-06  0.369E-04    0.26      20.8  T
   8   -289.5097574 -0.138608E-07  0.182E-04    0.26      42.1  T
     SCC iter.                  ...        0 min,  0.244 sec
     gradient                   ...        0 min,  0.095 sec
 * total energy  :  -284.9731159 Eh     change       -0.7519424E-03 Eh
   gradient norm :     0.0048428 Eh/α   predicted    -0.7019363E-03 (  -6.65%)
   displ. norm   :     0.8613362 α      lambda       -0.8369771E-03
   maximum displ.:     0.3170269 α      in ANC's #16, #5, #14, ...

........................................................................
.............................. CYCLE   57 ..............................
........................................................................
   1   -289.5095452 -0.289510E+03  0.101E-01    0.27       0.0  T
   2   -289.5095613 -0.160568E-04  0.529E-02    0.27       1.0  T
   3   -289.5094738  0.874550E-04  0.216E-02    0.26       1.0  T
   4   -289.5095713 -0.974871E-04  0.735E-03    0.27       1.0  T
   5   -289.5095733 -0.194320E-05  0.396E-03    0.27       1.9  T
[...]
                            82 C    0.101
    78   6 C    3.988 --    77 C    1.449    79 C    1.386   154 H    0.964
    79   6 C    3.954 --    78 C    1.386    82 C    1.365    80 S    1.057
    80  16 S    2.262 --    79 C    1.057    81 C    1.010
    81   6 C    3.977 --    80 S    1.010   156 H    0.982   155 H    0.982
                           157 H    0.979
    82   6 C    3.988 --    83 C    1.475    79 C    1.365   158 H    0.967
                            77 C    0.101
    83   6 C    3.979 --    82 C    1.475    76 C    1.361   159 H    0.967
    84   6 C    3.937 --    63 C    1.373    66 C    1.226    85 S    1.105
    85  16 S    2.576 --    44 C    1.130    84 C    1.105
    86   6 C    3.952 --    87 C    1.458    65 C    1.324   160 H    0.948
    87   6 C    3.958 --    86 C    1.458    96 C    1.170    88 C    1.044
    88   6 C    3.932 --    89 O    1.723    87 C    1.044    90 C    1.014
    89   8 O    2.026 --    88 C    1.723
    90   6 C    3.975 --    91 C    1.390    95 C    1.313    88 C    1.014
    91   6 C    3.982 --    92 C    1.437    90 C    1.390   161 H    0.964
    92   6 C    3.958 --    91 C    1.437    93 C    1.335   108 C    0.994
    93   6 C    3.967 --    94 C    1.445    92 C    1.335   102 C    0.996
    94   6 C    3.978 --    93 C    1.445    95 C    1.372   162 H    0.959
    95   6 C    3.983 --    94 C    1.372    90 C    1.313    96 C    1.083
    96   6 C    3.975 --    97 C    1.452    87 C    1.170    95 C    1.083
    97   6 C    3.950 --    96 C    1.452   100 C    1.107    98 C    1.104
    98   6 C    3.945 --    99 N    2.749    97 C    1.104
    99   7 N    2.961 --    98 C    2.749
   100   6 C    3.944 --   101 N    2.749    97 C    1.107
   101   7 N    2.957 --   100 C    2.749
   102   6 C    3.986 --    93 C    0.996   108 C    0.978   163 H    0.961
                           103 C    0.947
   103   6 C    3.990 --   104 C    1.010   107 C    0.985   164 H    0.972
                           102 C    0.947
   104   6 C    3.986 --   105 C    1.924   103 C    1.010   165 H    0.969
   105   6 C    3.987 --   104 C    1.924   106 C    1.009   166 H    0.970
   106   6 C    3.990 --   105 C    1.009   107 C    0.985   167 H    0.973
                           108 C    0.948
   107   6 C    3.993 --   106 C    0.985   103 C    0.985   169 H    0.978
                           168 H    0.977
   108   6 C    3.985 --    92 C    0.994   102 C    0.978   170 H    0.961
                           106 C    0.948
   109   1 H    0.994 --     1 C    0.940
   110   1 H    0.996 --     6 C    0.964
   111   1 H    0.996 --     9 C    0.958
   112   1 H    0.997 --    17 C    0.961
   113   1 H    0.998 --    18 C    0.971
   114   1 H    0.998 --    19 C    0.971
   115   1 H    0.998 --    20 C    0.971
   116   1 H    0.999 --    21 C    0.971
   117   1 H    0.999 --    22 C    0.974
   118   1 H    0.998 --    22 C    0.978
   119   1 H    0.996 --    23 C    0.962
   120   1 H    0.996 --    25 C    0.958
   121   1 H    0.997 --    28 C    0.971
   122   1 H    0.996 --    28 C    0.970
   123   1 H    0.997 --    29 C    0.978
   124   1 H    0.997 --    29 C    0.986
   125   1 H    0.998 --    29 C    0.984
   126   1 H    0.993 --    36 C    0.969
   127   1 H    0.988 --    36 C    0.947
   128   1 H    0.996 --    37 C    0.983
   129   1 H    0.997 --    37 C    0.986
   130   1 H    0.996 --    37 C    0.984
   131   1 H    0.994 --    42 C    0.963
   132   1 H    0.998 --    48 C    0.967
   133   1 H    0.997 --    49 C    0.968
   134   1 H    0.995 --    52 C    0.972
   135   1 H    0.996 --    52 C    0.980
   136   1 H    0.994 --    52 C    0.969
   137   1 H    0.996 --    53 C    0.962
   138   1 H    0.999 --    54 C    0.968
   139   1 H    0.998 --    56 C    0.965
   140   1 H    0.997 --    57 C    0.968
   141   1 H    0.997 --    60 C    0.983
   142   1 H    0.997 --    60 C    0.983
   143   1 H    0.996 --    60 C    0.979
   144   1 H    0.998 --    61 C    0.965
   145   1 H    0.999 --    62 C    0.966
   146   1 H    0.997 --    69 C    0.965
   147   1 H    0.997 --    70 C    0.964
   148   1 H    0.996 --    73 C    0.980
   149   1 H    0.995 --    73 C    0.977
   150   1 H    0.996 --    73 C    0.982
   151   1 H    0.997 --    74 C    0.964
   152   1 H    0.998 --    75 C    0.967
   153   1 H    0.995 --    77 C    0.962
   154   1 H    0.997 --    78 C    0.964
   155   1 H    0.996 --    81 C    0.982
   156   1 H    0.996 --    81 C    0.982
   157   1 H    0.995 --    81 C    0.979
   158   1 H    0.997 --    82 C    0.967
   159   1 H    0.998 --    83 C    0.967
   160   1 H    0.993 --    86 C    0.948
   161   1 H    0.997 --    91 C    0.964
   162   1 H    0.997 --    94 C    0.959
   163   1 H    0.997 --   102 C    0.961
   164   1 H    0.998 --   103 C    0.972
   165   1 H    0.998 --   104 C    0.969
   166   1 H    0.999 --   105 C    0.970
   167   1 H    0.999 --   106 C    0.973
   168   1 H    0.997 --   107 C    0.977
   169   1 H    0.999 --   107 C    0.978
   170   1 H    0.997 --   108 C    0.961
 ---------------------------------------------------------------------------

Topologies differ in bond orders
Writing corrected topology to xtbtopo.mol

molecular dipole:
                 x           y           z       tot (Debye)
 q only:       -0.043       1.764       0.498
   full:       -0.199       1.158       1.506       4.855
molecular quadrupole (traceless):
                xx          xy          yy          xz          yz          zz
 q only:       54.496      12.970     -23.760      65.488     -64.980     -30.736
  q+dip:       71.671      13.150     -29.894      60.858     -59.577     -41.777
   full:       67.596      15.085     -21.137      59.217     -66.629     -46.459

           -------------------------------------------------
          |                Geometry Summary                 |
           -------------------------------------------------

      molecular mass/u    :     1553.0129269
   center of mass at/Å    :       -0.2862991       0.0539581      -0.0896660
  moments of inertia/u·Å² :        0.2011490E+05   0.9570710E+05   0.1041482E+06
rotational constants/cm⁻¹ :        0.8380671E-03   0.1761377E-03   0.1618619E-03

 * 159 selected distances

     #   Z          #   Z                                           value/Å
     1   6 C        2   6 C                                       1.3680022
     3   6 C        4   8 O                                       1.2218098
     5   6 C        6   6 C                                       1.3938691
     6   6 C        7   6 C                                       1.3740185
     7   6 C        8   6 C                                       1.4016162
     8   6 C        9   6 C                                       1.3749395
     5   6 C       10   6 C                                       1.4104630
     9   6 C       10   6 C                                       1.3982857
    11   6 C       12   6 C                                       1.3705038
    13   6 C       14   7 N                                       1.1489997
    15   6 C       16   7 N                                       1.1480721
     8   6 C       17   6 C                                       1.5081391
    17   6 C       18   6 C                                       1.5435244
    19   6 C       20   6 C                                       1.3268809
    18   6 C       22   6 C                                       1.5342148
    21   6 C       22   6 C                                       1.5342255
     7   6 C       23   6 C                                       1.5081393
    17   6 C       23   6 C                                       1.5625583
    21   6 C       23   6 C                                       1.5438674
     1   6 C       24   6 C                                       1.4067365
    24   6 C       25   6 C                                       1.3911471
    25   6 C       26   6 C                                       1.3936130
    28   6 C       29   6 C                                       1.5163774
    26   6 C       30   6 C                                       1.3870015
    24   6 C       31  16 S                                       1.7434382 (max)
    30   6 C       31  16 S                                       1.7187161
    32   6 C       33   6 C                                       1.4071283
    33   6 C       34   7 N                                       1.3418890
    34   7 N       35   7 N                                       1.3021376
    35   7 N       36   6 C                                       1.4357141
    36   6 C       37   6 C                                       1.5228071
    35   7 N       38   7 N                                       1.3007998
    33   6 C       39   6 C                                       1.4285057
    38   7 N       39   6 C                                       1.3406009
    39   6 C       40   6 C                                       1.4044774
    40   6 C       41   6 C                                       1.3798398
    32   6 C       42   6 C                                       1.3780370
    41   6 C       42   6 C                                       1.3979853
    44   6 C       45   6 C                                       1.3765845
    45   6 C       46   7 N                                       1.3917819
    46   7 N       47   6 C                                       1.4062230
    47   6 C       48   6 C                                       1.3937600
    48   6 C       49   6 C                                       1.3770216
    49   6 C       50   6 C                                       1.3914018
    50   6 C       53   6 C                                       1.3889199
    47   6 C       54   6 C                                       1.3927931
    53   6 C       54   6 C                                       1.3820772
    46   7 N       55   6 C                                       1.3925203
    55   6 C       56   6 C                                       1.3961740
    56   6 C       57   6 C                                       1.3764531
    57   6 C       58   6 C                                       1.3926241
    58   6 C       61   6 C                                       1.3876150
    55   6 C       62   6 C                                       1.3927279
    61   6 C       62   6 C                                       1.3809424
    45   6 C       63   6 C                                       1.4149080
    63   6 C       64  16 S                                       1.7196620
    65   6 C       66   6 C                                       1.4096902
    66   6 C       67   7 N                                       1.3668538
    67   7 N       68   6 C                                       1.3997784
    68   6 C       69   6 C                                       1.3975023
    69   6 C       70   6 C                                       1.3762189
    70   6 C       71   6 C                                       1.3941535
    71   6 C       74   6 C                                       1.3906946
    68   6 C       75   6 C                                       1.3932232
    74   6 C       75   6 C                                       1.3804224
    67   7 N       76   6 C                                       1.4109527
    76   6 C       77   6 C                                       1.3904797
    77   6 C       78   6 C                                       1.3808530
    78   6 C       79   6 C                                       1.3888504
    79   6 C       82   6 C                                       1.3944644
    76   6 C       83   6 C                                       1.3934550
    82   6 C       83   6 C                                       1.3768332
    63   6 C       84   6 C                                       1.3875510
    66   6 C       84   6 C                                       1.4178378
    44   6 C       85  16 S                                       1.7386243
    84   6 C       85  16 S                                       1.7372730
    65   6 C       86   6 C                                       1.3988106
    86   6 C       87   6 C                                       1.3768600
    88   6 C       89   8 O                                       1.2174332
    90   6 C       91   6 C                                       1.3908559
    91   6 C       92   6 C                                       1.3754172
    92   6 C       93   6 C                                       1.3998393
    93   6 C       94   6 C                                       1.3748373
    90   6 C       95   6 C                                       1.4086185
    94   6 C       95   6 C                                       1.3953993
    87   6 C       96   6 C                                       1.4354348
    96   6 C       97   6 C                                       1.3741973
    98   6 C       99   7 N                                       1.1494575
   100   6 C      101   7 N                                       1.1494500
    93   6 C      102   6 C                                       1.5070538
   102   6 C      103   6 C                                       1.5486842
   104   6 C      105   6 C                                       1.3265502
   103   6 C      107   6 C                                       1.5370966
   106   6 C      107   6 C                                       1.5368165
    92   6 C      108   6 C                                       1.5096122
   102   6 C      108   6 C                                       1.5612815
   106   6 C      108   6 C                                       1.5489374
     1   6 C      109   1 H                                       1.0833228
     6   6 C      110   1 H                                       1.0788315
     9   6 C      111   1 H                                       1.0769319
    17   6 C      112   1 H                                       1.0881205
    18   6 C      113   1 H                                       1.0864874
    19   6 C      114   1 H                                       1.0740621 (min)
    20   6 C      115   1 H                                       1.0741501
    21   6 C      116   1 H                                       1.0866603
    22   6 C      117   1 H                                       1.0885625
    22   6 C      118   1 H                                       1.0886999
    23   6 C      119   1 H                                       1.0882684
    25   6 C      120   1 H                                       1.0748780
    28   6 C      121   1 H                                       1.0889826
    28   6 C      122   1 H                                       1.0898872
    29   6 C      123   1 H                                       1.0880244
    29   6 C      124   1 H                                       1.0874937
    29   6 C      125   1 H                                       1.0880063
    36   6 C      126   1 H                                       1.0907054
    36   6 C      127   1 H                                       1.0945992
    37   6 C      128   1 H                                       1.0859566
    37   6 C      129   1 H                                       1.0874434
    37   6 C      130   1 H                                       1.0867666
    42   6 C      131   1 H                                       1.0784445
    48   6 C      132   1 H                                       1.0792291
    49   6 C      133   1 H                                       1.0791505
    52   6 C      134   1 H                                       1.0868694
    52   6 C      135   1 H                                       1.0857626
    52   6 C      136   1 H                                       1.0850875
    53   6 C      137   1 H                                       1.0788028
    54   6 C      138   1 H                                       1.0801161
    56   6 C      139   1 H                                       1.0792410
    57   6 C      140   1 H                                       1.0790856
    60   6 C      141   1 H                                       1.0859747
    60   6 C      142   1 H                                       1.0863348
    60   6 C      143   1 H                                       1.0855366
    61   6 C      144   1 H                                       1.0781778
    62   6 C      145   1 H                                       1.0798816
    69   6 C      146   1 H                                       1.0792220
    70   6 C      147   1 H                                       1.0785874
    73   6 C      148   1 H                                       1.0859394
    73   6 C      149   1 H                                       1.0855602
    73   6 C      150   1 H                                       1.0860096
    74   6 C      151   1 H                                       1.0780590
    75   6 C      152   1 H                                       1.0796463
    77   6 C      153   1 H                                       1.0785381
    78   6 C      154   1 H                                       1.0775644
    81   6 C      155   1 H                                       1.0859064
    81   6 C      156   1 H                                       1.0861085
    81   6 C      157   1 H                                       1.0856088
    82   6 C      158   1 H                                       1.0791132
    83   6 C      159   1 H                                       1.0799216
    86   6 C      160   1 H                                       1.0839074
    91   6 C      161   1 H                                       1.0791015
    94   6 C      162   1 H                                       1.0773595
   102   6 C      163   1 H                                       1.0882780
   103   6 C      164   1 H                                       1.0865679
   104   6 C      165   1 H                                       1.0747659
   105   6 C      166   1 H                                       1.0748210
   106   6 C      167   1 H                                       1.0871418
   107   6 C      168   1 H                                       1.0890469
   107   6 C      169   1 H                                       1.0892923
   108   6 C      170   1 H                                       1.0885446

 * 6 distinct bonds (by element types)

   Z      Z             #   av. dist./Å        max./Å        min./Å
   1 H    6 C          62     1.0833733     1.0945992     1.0740621
   6 C    6 C          75     1.4198592     1.5625583     1.3265502
   6 C    7 N          13     1.3140226     1.4357141     1.1480721
   7 N    7 N           2     1.3014687     1.3021376     1.3007998
   6 C    8 O           2     1.2196215     1.2218098     1.2174332
   6 C   16 S           5     1.7315427     1.7434382     1.7187161


optimized geometry written to: xtbopt.mol


           -------------------------------------------------
          | TOTAL ENERGY             -285.018046636633 Eh   |
          | GRADIENT NORM               0.000258173149 Eh/α |
          | HOMO-LUMO GAP               0.271546931060 eV   |
           -------------------------------------------------

------------------------------------------------------------------------
 * finished run on 2022/02/05 at 17:26:16.734     
------------------------------------------------------------------------
 total:
 * wall-time:     0 d,  0 h,  1 min, 41.445 sec
 *  cpu-time:     0 d,  0 h, 13 min, 31.339 sec
 * ratio c/w:     7.998 speedup
 SCF:
 * wall-time:     0 d,  0 h,  0 min,  0.627 sec
 *  cpu-time:     0 d,  0 h,  0 min,  5.003 sec
 * ratio c/w:     7.982 speedup
 ANC optimizer:
 * wall-time:     0 d,  0 h,  1 min, 40.710 sec
 *  cpu-time:     0 d,  0 h, 13 min, 25.577 sec
 * ratio c/w:     7.999 speedup

