      -----------------------------------------------------------      
     |                   =====================                   |     
     |                           x T B                           |     
     |                   =====================                   |     
     |                         S. Grimme                         |     
     |          Mulliken Center for Theoretical Chemistry        |     
     |                    University of Bonn                     |     
      -----------------------------------------------------------      

   * xtb version 6.4.1 (unknown) compiled by 'oda6@login1.crc.pitt.edu' on 2021-06-25

   xtb is free software: you can redistribute it and/or modify it under
   the terms of the GNU Lesser General Public License as published by
   the Free Software Foundation, either version 3 of the License, or
   (at your option) any later version.
   
   xtb is distributed in the hope that it will be useful,
   but WITHOUT ANY WARRANTY; without even the implied warranty of
   MERCHANTABILITY or FITNESS FOR A PARTICULAR PURPOSE.  See the
   GNU Lesser General Public License for more details.
   
   Cite this work as:
   * C. Bannwarth, E. Caldeweyher, S. Ehlert, A. Hansen, P. Pracht,
     J. Seibert, S. Spicher, S. Grimme, WIREs Comput. Mol. Sci., 2020, 11,
     e01493. DOI: 10.1002/wcms.1493
   
   for GFN2-xTB:
   * C. Bannwarth, S. Ehlert and S. Grimme., J. Chem. Theory Comput., 2019,
     15, 1652-1671. DOI: 10.1021/acs.jctc.8b01176
   for GFN1-xTB:
   * S. Grimme, C. Bannwarth, P. Shushkov, J. Chem. Theory Comput., 2017,
     13, 1989-2009. DOI: 10.1021/acs.jctc.7b00118
   for GFN0-xTB:
   * P. Pracht, E. Caldeweyher, S. Ehlert, S. Grimme, ChemRxiv, 2019, preprint.
     DOI: 10.26434/chemrxiv.8326202.v1
   for GFN-FF:
   * S. Spicher and S. Grimme, Angew. Chem. Int. Ed., 2020, 59, 15665-15673.
     DOI: 10.1002/anie.202004239
   
   for DFT-D4:
   * E. Caldeweyher, C. Bannwarth and S. Grimme, J. Chem. Phys., 2017,
     147, 034112. DOI: 10.1063/1.4993215
   * E. Caldeweyher, S. Ehlert, A. Hansen, H. Neugebauer, S. Spicher,
     C. Bannwarth and S. Grimme, J. Chem. Phys., 2019, 150, 154122.
     DOI: 10.1063/1.5090222
   * E. Caldeweyher, J.-M. Mewes, S. Ehlert and S. Grimme, Phys. Chem. Chem. Phys.
     2020, 22, 8499-8512. DOI: 10.1039/D0CP00502A
   
   for sTDA-xTB:
   * S. Grimme and C. Bannwarth, J. Chem. Phys., 2016, 145, 054103.
     DOI: 10.1063/1.4959605
   
   in the mass-spec context:
   * V. Asgeirsson, C. Bauer and S. Grimme, Chem. Sci., 2017, 8, 4879.
     DOI: 10.1039/c7sc00601b
   * J. Koopman and S. Grimme, ACS Omega 2019, 4, 12, 15120-15133.
     DOI: 10.1021/acsomega.9b02011
   
   for metadynamics refer to:
   * S. Grimme, J. Chem. Theory Comput., 2019, 155, 2847-2862
     DOI: 10.1021/acs.jctc.9b00143
   
   for SPH calculations refer to:
   * S. Spicher and S. Grimme, J. Chem. Theory Comput., 2021, 17, 1701-1714
     DOI: 10.1021/acs.jctc.0c01306
   
   with help from (in alphabetical order)
   P. Atkinson, C. Bannwarth, F. Bohle, G. Brandenburg, E. Caldeweyher
   M. Checinski, S. Dohm, S. Ehlert, S. Ehrlich, I. Gerasimov, J. Koopman
   C. Lavigne, S. Lehtola, F. März, M. Müller, F. Musil, H. Neugebauer
   J. Pisarek, C. Plett, P. Pracht, J. Seibert, P. Shushkov, S. Spicher
   M. Stahn, M. Steiner, T. Strunk, J. Stückrath, T. Rose, and J. Unsleber
   
 * started run on 2022/02/06 at 09:23:49.923     

           -------------------------------------------------
          |                Calculation Setup                |
           -------------------------------------------------

          program call               : /ihome/ghutchison/oda6/xtb/xtb-641/bin/xtb ../../FF_optimized/39_56_130_133_39.mol -opt
          hostname                   : smp-n57
          coordinate file            : ../../FF_optimized/39_56_130_133_39.mol
          omp threads                :                     8
          number of atoms            :                   192
          number of electrons        :                   620
          charge                     :                     0
          spin                       :                   0.0
          first test random number   :      0.62376494753175

   ID    Z sym.   atoms
    1    6 C      1-3, 5-13, 15, 17-28, 30-33, 35, 37-45, 47, 49, 50, 52, 53,
                  55-58, 60-66, 68-71, 73, 74, 76-79, 81-87, 89-92, 94-96,
                  100, 101, 105-108, 110-118, 120, 122-128
    2    8 O      4, 109
    3    7 N      14, 16, 54, 75, 97, 99, 102, 104, 119, 121
    4   16 S      29, 46, 48, 51, 59, 67, 72, 80, 88, 93, 98, 103
    5   17 Cl     34, 36
    6    1 H      129-192
########################################################################
[WARNING] Please study the warnings concerning your input carefully
-1- prog_main_parseArguments: the use of '-opt' is discouraged, please use '--opt' next time
########################################################################

           -------------------------------------------------
          |                 G F N 2 - x T B                 |
           -------------------------------------------------

        Reference                      10.1021/acs.jctc.8b01176
      * Hamiltonian:
        H0-scaling (s, p, d)           1.850000    2.230000    2.230000
        zeta-weighting                 0.500000
      * Dispersion:
        s8                             2.700000
        a1                             0.520000
        a2                             5.000000
        s9                             5.000000
      * Repulsion:
        kExp                           1.500000    1.000000
        rExp                           1.000000
      * Coulomb:
        alpha                          2.000000
        third order                    shell-resolved
        anisotropic                    true
        a3                             3.000000
        a5                             4.000000
        cn-shift                       1.200000
        cn-exp                         4.000000
        max-rad                        5.000000


          ...................................................
          :                      SETUP                      :
          :.................................................:
          :  # basis functions                 660          :
          :  # atomic orbitals                 646          :
          :  # shells                          334          :
          :  # electrons                       620          :
          :  max. iterations                   250          :
          :  Hamiltonian                  GFN2-xTB          :
          :  restarted?                      false          :
          :  GBSA solvation                  false          :
          :  PC potential                    false          :
          :  electronic temp.          300.0000000     K    :
          :  accuracy                    1.0000000          :
          :  -> integral cutoff          0.2500000E+02      :
          :  -> integral neglect         0.1000000E-07      :
          :  -> SCF convergence          0.1000000E-05 Eh   :
          :  -> wf. convergence          0.1000000E-03 e    :
          :  Broyden damping             0.4000000          :
          ...................................................

 iter      E             dE          RMSdq      gap      omega  full diag
   1   -340.5429432 -0.340543E+03  0.472E+00    1.10       0.0  T
   2   -340.7612643 -0.218321E+00  0.285E+00    0.94       1.0  T
   3   -340.3959673  0.365297E+00  0.195E+00    0.36       1.0  T
   4   -340.8996556 -0.503688E+00  0.669E-01    0.18       1.0  T
   5   -340.9582785 -0.586229E-01  0.247E-01    0.35       1.0  T
   6   -340.9599905 -0.171202E-02  0.156E-01    0.27       1.0  T
   7   -340.9624591 -0.246864E-02  0.105E-01    0.29       1.0  T
   8   -340.9647711 -0.231199E-02  0.442E-02    0.29       1.0  T
   9   -340.9649547 -0.183580E-03  0.298E-02    0.29       1.0  T
  10   -340.9650105 -0.558167E-04  0.199E-02    0.30       1.0  T
  11   -340.9650368 -0.262476E-04  0.136E-02    0.29       1.0  T
  12   -340.9650467 -0.989989E-05  0.966E-03    0.29       1.0  T
  13   -340.9650542 -0.757434E-05  0.567E-03    0.29       1.3  T
  14   -340.9650567 -0.250051E-05  0.303E-03    0.30       2.4  T
  15   -340.9650575 -0.759672E-06  0.163E-03    0.30       4.4  T
  16   -340.9650577 -0.211505E-06  0.966E-04    0.30       7.5  T
  17   -340.9650578 -0.526120E-07  0.666E-04    0.30      10.8  T

   *** convergence criteria satisfied after 17 iterations ***

         #    Occupation            Energy/Eh            Energy/eV
      -------------------------------------------------------------
         1        2.0000           -1.0779134             -29.3315
       ...           ...                  ...                  ...
       304        2.0000           -0.3762939             -10.2395
       305        2.0000           -0.3714764             -10.1084
       306        2.0000           -0.3684621             -10.0264
       307        2.0000           -0.3644841              -9.9181
       308        2.0000           -0.3635888              -9.8938
       309        1.9967           -0.3573203              -9.7232
       310        1.9949           -0.3569089              -9.7120 (HOMO)
       311        0.0084           -0.3460494              -9.4165 (LUMO)
       312                         -0.3329855              -9.0610
       313                         -0.3259769              -8.8703
       314                         -0.3257965              -8.8654
       315                         -0.3180382              -8.6543
       ...                                ...                  ...
       646                          1.0758918              29.2765
      -------------------------------------------------------------
                  HL-Gap            0.0108595 Eh            0.2955 eV
             Fermi-level           -0.3512404 Eh           -9.5577 eV

 SCC (total)                   0 d,  0 h,  0 min,  0.831 sec
 SCC setup                      ...        0 min,  0.004 sec (  0.428%)
 Dispersion                     ...        0 min,  0.008 sec (  0.921%)
 classical contributions        ...        0 min,  0.000 sec (  0.045%)
 integral evaluation            ...        0 min,  0.036 sec (  4.370%)
 iterations                     ...        0 min,  0.653 sec ( 78.582%)
 molecular gradient             ...        0 min,  0.127 sec ( 15.250%)
 printout                       ...        0 min,  0.003 sec (  0.392%)

         :::::::::::::::::::::::::::::::::::::::::::::::::::::
         ::                     SUMMARY                     ::
         :::::::::::::::::::::::::::::::::::::::::::::::::::::
         :: total energy            -336.090168426103 Eh    ::
         :: gradient norm              0.363991628545 Eh/a0 ::
         :: HOMO-LUMO gap              0.295501873869 eV    ::
         ::.................................................::
         :: SCC energy              -340.965057765823 Eh    ::
         :: -> isotropic ES            0.156665831138 Eh    ::
         :: -> anisotropic ES          0.017947660659 Eh    ::
         :: -> anisotropic XC          0.219963595131 Eh    ::
         :: -> dispersion             -0.342851485986 Eh    ::
         :: repulsion energy           4.859509254135 Eh    ::
         :: add. restraining           0.000000000000 Eh    ::
         :: total charge               0.000000001478 e     ::
         :::::::::::::::::::::::::::::::::::::::::::::::::::::

      ----------------------------------------------------------- 
     |                   =====================                   |
     |                        A N C O P T                        |
     |                   =====================                   |
     |               Approximate Normal Coordinate               |
     |                Rational Function Optimizer                |
      ----------------------------------------------------------- 

          ...................................................
          :                      SETUP                      :
          :.................................................:
          :   optimization level            normal          :
          :   max. optcycles                   576          :
          :   ANC micro-cycles                  20          :
          :   degrees of freedom               570          :
          :.................................................:
          :   RF solver                   davidson          :
          :   write xtbopt.log                true          :
          :   linear?                        false          :
          :   energy convergence         0.5000000E-05 Eh   :
          :   grad. convergence          0.1000000E-02 Eh/α :
          :   maximium RF displ.         1.0000000          :
          :   Hlow (freq-cutoff)         0.1000000E-01      :
          :   Hmax (freq-cutoff)         5.0000000          :
          :   S6 in model hess.         20.0000000          :
          ...................................................

generating ANC from model Hessian ...
Using Lindh-Hessian (1995)
 Shifting diagonal of input Hessian by   1.002506704853531E-002
 Lowest  eigenvalues of input Hessian
    0.010000    0.010016    0.010022    0.000000    0.000000    0.000000
    0.000000    0.000000    0.000000    0.010029    0.010042    0.010058
    0.010070    0.010092    0.010096    0.010130    0.010134    0.010171
 Highest eigenvalues
    2.126188    2.146209    2.492263    2.499529    2.556979    2.558159
 

........................................................................
.............................. CYCLE    1 ..............................
........................................................................
   1   -340.9650578 -0.340965E+03  0.469E-04    0.30       0.0  T
   2   -340.9650578 -0.367612E-08  0.422E-04    0.30      17.1  T
   3   -340.9650578 -0.906965E-08  0.360E-04    0.30      20.0  T
     SCC iter.                  ...        0 min,  0.118 sec
     gradient                   ...        0 min,  0.125 sec
 * total energy  :  -336.0901685 Eh     change       -0.4384646E-07 Eh
   gradient norm :     0.3639937 Eh/α   predicted     0.0000000E+00 (-100.00%)
   displ. norm   :     0.4889870 α      lambda       -0.1353956E+00
   maximum displ.:     0.1008077 α      in ANC's #371, #352, #374, ...

........................................................................
.............................. CYCLE    2 ..............................
........................................................................
   1   -341.2094538 -0.341209E+03  0.305E-01    0.33       0.0  T
   2   -341.2112183 -0.176455E-02  0.175E-01    0.33       1.0  T
   3   -341.2104492  0.769095E-03  0.108E-01    0.36       1.0  T
   4   -341.2114818 -0.103257E-02  0.557E-02    0.35       1.0  T
   5   -341.2118749 -0.393099E-03  0.306E-02    0.35       1.0  T
   6   -341.2120255 -0.150649E-03  0.164E-02    0.35       1.0  T
   7   -341.2120742 -0.486222E-04  0.729E-03    0.35       1.0  T
   8   -341.2120816 -0.743175E-05  0.370E-03    0.35       2.0  T
   9   -341.2120822 -0.598344E-06  0.268E-03    0.35       2.7  T
  10   -341.2120826 -0.387986E-06  0.179E-03    0.35       4.0  T
  11   -341.2120828 -0.202281E-06  0.123E-03    0.35       5.9  T
  12   -341.2120829 -0.920753E-07  0.812E-04    0.35       8.9  T
  13   -341.2120829 -0.532690E-07  0.387E-04    0.35      18.7  T
     SCC iter.                  ...        0 min,  0.483 sec
     gradient                   ...        0 min,  0.123 sec
 * total energy  :  -336.1919947 Eh     change       -0.1018263E+00 Eh
   gradient norm :     0.1901575 Eh/α   predicted    -0.8391992E-01 ( -17.59%)
   displ. norm   :     0.4814705 α      lambda       -0.6666538E-01
   maximum displ.:     0.0968280 α      in ANC's #371, #163, #111, ...

........................................................................
.............................. CYCLE    3 ..............................
........................................................................
   1   -341.3698174 -0.341370E+03  0.279E-01    0.39       0.0  T
   2   -341.3714270 -0.160960E-02  0.153E-01    0.37       1.0  T
   3   -341.3706343  0.792675E-03  0.989E-02    0.40       1.0  T
   4   -341.3712013 -0.567000E-03  0.650E-02    0.39       1.0  T
   5   -341.3719895 -0.788168E-03  0.331E-02    0.39       1.0  T
   6   -341.3722059 -0.216446E-03  0.137E-02    0.40       1.0  T
   7   -341.3722284 -0.224251E-04  0.714E-03    0.39       1.0  T
   8   -341.3722334 -0.503177E-05  0.417E-03    0.39       1.7  T
   9   -341.3722342 -0.829077E-06  0.309E-03    0.39       2.3  T
  10   -341.3722347 -0.528425E-06  0.202E-03    0.39       3.6  T
  11   -341.3722351 -0.308434E-06  0.124E-03    0.39       5.8  T
  12   -341.3722352 -0.953619E-07  0.787E-04    0.39       9.2  T
  13   -341.3722352 -0.437083E-07  0.354E-04    0.39      20.4  T
     SCC iter.                  ...        0 min,  0.501 sec
     gradient                   ...        0 min,  0.124 sec
 * total energy  :  -336.2336533 Eh     change       -0.4165857E-01 Eh
   gradient norm :     0.0537894 Eh/α   predicted    -0.4105968E-01 (  -1.44%)
   displ. norm   :     0.5153711 α      lambda       -0.1488015E-01
   maximum displ.:     0.1318201 α      in ANC's #111, #96, #112, ...

........................................................................
.............................. CYCLE    4 ..............................
........................................................................
   1   -341.4205373 -0.341421E+03  0.151E-01    0.40       0.0  T
   2   -341.4206004 -0.630441E-04  0.890E-02    0.40       1.0  T
   3   -341.4191707  0.142969E-02  0.783E-02    0.40       1.0  T
   4   -341.4205201 -0.134941E-02  0.352E-02    0.41       1.0  T
   5   -341.4208426 -0.322535E-03  0.121E-02    0.40       1.0  T
   6   -341.4208666 -0.239046E-04  0.460E-03    0.40       1.6  T
   7   -341.4208682 -0.169154E-05  0.274E-03    0.40       2.6  T
   8   -341.4208688 -0.525104E-06  0.180E-03    0.40       4.0  T
   9   -341.4208689 -0.166052E-06  0.135E-03    0.40       5.3  T
  10   -341.4208691 -0.122034E-06  0.782E-04    0.40       9.2  T
  11   -341.4208691 -0.501671E-07  0.459E-04    0.40      15.7  T
     SCC iter.                  ...        0 min,  0.406 sec
     gradient                   ...        0 min,  0.123 sec
 * total energy  :  -336.2444418 Eh     change       -0.1078848E-01 Eh
   gradient norm :     0.0250557 Eh/α   predicted    -0.9417311E-02 ( -12.71%)
   displ. norm   :     0.5683410 α      lambda       -0.7729087E-02
   maximum displ.:     0.1401753 α      in ANC's #111, #75, #96, ...

........................................................................
.............................. CYCLE    5 ..............................
........................................................................
   1   -341.4403988 -0.341440E+03  0.147E-01    0.40       0.0  T
   2   -341.4404062 -0.738384E-05  0.868E-02    0.40       1.0  T
   3   -341.4386323  0.177387E-02  0.794E-02    0.40       1.0  T
   4   -341.4404158 -0.178347E-02  0.245E-02    0.41       1.0  T
   5   -341.4405777 -0.161921E-03  0.863E-03    0.40       1.0  T
   6   -341.4405906 -0.129122E-04  0.318E-03    0.41       2.3  T
   7   -341.4405911 -0.463553E-06  0.195E-03    0.41       3.7  T
   8   -341.4405914 -0.297647E-06  0.124E-03    0.40       5.8  T
   9   -341.4405915 -0.729500E-07  0.952E-04    0.41       7.6  T
  10   -341.4405915 -0.635333E-07  0.578E-04    0.41      12.5  T
     SCC iter.                  ...        0 min,  0.360 sec
     gradient                   ...        0 min,  0.124 sec
 * total energy  :  -336.2499674 Eh     change       -0.5525652E-02 Eh
   gradient norm :     0.0192360 Eh/α   predicted    -0.5112838E-02 (  -7.47%)
   displ. norm   :     0.6392786 α      lambda       -0.5472152E-02
   maximum displ.:     0.1317052 α      in ANC's #75, #38, #1, ...

........................................................................
.............................. CYCLE    6 ..............................
........................................................................
   1   -341.4407719 -0.341441E+03  0.228E-01    0.40       0.0  T
   2   -341.4408268 -0.548985E-04  0.129E-01    0.41       1.0  T
   3   -341.4381407  0.268607E-02  0.970E-02    0.40       1.0  T
   4   -341.4408477 -0.270699E-02  0.255E-02    0.41       1.0  T
   5   -341.4410303 -0.182603E-03  0.837E-03    0.41       1.0  T
   6   -341.4410399 -0.956702E-05  0.323E-03    0.41       2.2  T
   7   -341.4410403 -0.440380E-06  0.186E-03    0.41       3.9  T
   8   -341.4410406 -0.341844E-06  0.104E-03    0.41       7.0  T
   9   -341.4410407 -0.479439E-07  0.788E-04    0.41       9.2  T
  10   -341.4410407 -0.384473E-07  0.524E-04    0.41      13.8  T
     SCC iter.                  ...        0 min,  0.381 sec
     gradient                   ...        0 min,  0.132 sec
 * total energy  :  -336.2510470 Eh     change       -0.1079604E-02 Eh
   gradient norm :     0.0464528 Eh/α   predicted    -0.3854252E-02 ( 257.01%)
   displ. norm   :     0.4546963 α      lambda       -0.7119377E-02
   maximum displ.:     0.1394322 α      in ANC's #1, #37, #41, ...

........................................................................
.............................. CYCLE    7 ..............................
........................................................................
   1   -341.4603407 -0.341460E+03  0.224E-01    0.41       0.0  T
   2   -341.4604386 -0.979166E-04  0.125E-01    0.41       1.0  T
   3   -341.4597023  0.736242E-03  0.504E-02    0.41       1.0  T
   4   -341.4604652 -0.762854E-03  0.130E-02    0.41       1.0  T
   5   -341.4605080 -0.428130E-04  0.570E-03    0.41       1.3  T
   6   -341.4605130 -0.494312E-05  0.222E-03    0.41       3.3  T
   7   -341.4605134 -0.414438E-06  0.101E-03    0.41       7.1  T
   8   -341.4605135 -0.112051E-06  0.590E-04    0.41      12.2  T
   9   -341.4605135 -0.200927E-07  0.423E-04    0.41      17.1  T
     SCC iter.                  ...        0 min,  0.343 sec
     gradient                   ...        0 min,  0.124 sec
 * total energy  :  -336.2543341 Eh     change       -0.3287038E-02 Eh
   gradient norm :     0.0272935 Eh/α   predicted    -0.4295648E-02 (  30.68%)
   displ. norm   :     0.4004526 α      lambda       -0.2836481E-02
   maximum displ.:     0.1136602 α      in ANC's #38, #41, #42, ...

........................................................................
.............................. CYCLE    8 ..............................
........................................................................
   1   -341.4542248 -0.341454E+03  0.161E-01    0.41       0.0  T
   2   -341.4542834 -0.586013E-04  0.896E-02    0.41       1.0  T
   3   -341.4538851  0.398356E-03  0.433E-02    0.41       1.0  T
   4   -341.4543051 -0.420036E-03  0.960E-03    0.42       1.0  T
   5   -341.4543213 -0.161797E-04  0.640E-03    0.41       1.1  T
   6   -341.4543320 -0.107624E-04  0.203E-03    0.41       3.6  T
   7   -341.4543325 -0.490706E-06  0.955E-04    0.41       7.6  T
   8   -341.4543326 -0.813566E-07  0.454E-04    0.41      15.9  T
     SCC iter.                  ...        0 min,  0.302 sec
     gradient                   ...        0 min,  0.124 sec
 * total energy  :  -336.2554852 Eh     change       -0.1151139E-02 Eh
   gradient norm :     0.0364232 Eh/α   predicted    -0.1645675E-02 (  42.96%)
   displ. norm   :     0.4680027 α      lambda       -0.3090313E-02
   maximum displ.:     0.1567576 α      in ANC's #37, #41, #38, ...

........................................................................
.............................. CYCLE    9 ..............................
........................................................................
   1   -341.4607635 -0.341461E+03  0.125E-01    0.41       0.0  T
   2   -341.4607906 -0.271048E-04  0.702E-02    0.42       1.0  T
   3   -341.4603918  0.398755E-03  0.381E-02    0.42       1.0  T
   4   -341.4607850 -0.393201E-03  0.112E-02    0.42       1.0  T
   5   -341.4608193 -0.343022E-04  0.428E-03    0.42       1.7  T
   6   -341.4608224 -0.305726E-05  0.163E-03    0.42       4.4  T
   7   -341.4608226 -0.273240E-06  0.782E-04    0.42       9.2  T
   8   -341.4608227 -0.654669E-07  0.414E-04    0.42      17.4  T
     SCC iter.                  ...        0 min,  0.302 sec
     gradient                   ...        0 min,  0.125 sec
 * total energy  :  -336.2577272 Eh     change       -0.2241947E-02 Eh
   gradient norm :     0.0127998 Eh/α   predicted    -0.1883589E-02 ( -15.98%)
   displ. norm   :     0.6725163 α      lambda       -0.2622692E-02
   maximum displ.:     0.2024253 α      in ANC's #38, #41, #37, ...

........................................................................
.............................. CYCLE   10 ..............................
........................................................................
   1   -341.4579008 -0.341458E+03  0.121E-01    0.42       0.0  T
   2   -341.4579016 -0.813533E-06  0.692E-02    0.42       1.0  T
   3   -341.4569180  0.983605E-03  0.565E-02    0.42       1.0  T
   4   -341.4579105 -0.992485E-03  0.134E-02    0.43       1.0  T
   5   -341.4579571 -0.465753E-04  0.536E-03    0.42       1.3  T
   6   -341.4579614 -0.435546E-05  0.207E-03    0.42       3.5  T
   7   -341.4579619 -0.489407E-06  0.950E-04    0.42       7.6  T
   8   -341.4579620 -0.971884E-07  0.519E-04    0.42      13.9  T
     SCC iter.                  ...        0 min,  0.294 sec
     gradient                   ...        0 min,  0.125 sec
 * total energy  :  -336.2598320 Eh     change       -0.2104828E-02 Eh
   gradient norm :     0.0120044 Eh/α   predicted    -0.1904444E-02 (  -9.52%)
   displ. norm   :     0.7591909 α      lambda       -0.2270483E-02
   maximum displ.:     0.2344747 α      in ANC's #42, #38, #41, ...

........................................................................
.............................. CYCLE   11 ..............................
........................................................................
   1   -341.4564572 -0.341456E+03  0.120E-01    0.42       0.0  T
   2   -341.4564592 -0.199531E-05  0.686E-02    0.43       1.0  T
   3   -341.4556003  0.858850E-03  0.542E-02    0.43       1.0  T
   4   -341.4564418 -0.841456E-03  0.157E-02    0.43       1.0  T
   5   -341.4565107 -0.689287E-04  0.602E-03    0.43       1.2  T
   6   -341.4565164 -0.573298E-05  0.216E-03    0.43       3.3  T
   7   -341.4565170 -0.568562E-06  0.998E-04    0.43       7.2  T
   8   -341.4565171 -0.118733E-06  0.553E-04    0.43      13.1  T
     SCC iter.                  ...        0 min,  0.295 sec
     gradient                   ...        0 min,  0.125 sec
 * total energy  :  -336.2617324 Eh     change       -0.1900391E-02 Eh
   gradient norm :     0.0135040 Eh/α   predicted    -0.1789573E-02 (  -5.83%)
   displ. norm   :     0.7659771 α      lambda       -0.2072464E-02
   maximum displ.:     0.2412539 α      in ANC's #42, #38, #10, ...

........................................................................
.............................. CYCLE   12 ..............................
........................................................................
   1   -341.4567624 -0.341457E+03  0.120E-01    0.42       0.0  T
   2   -341.4567422  0.201459E-04  0.687E-02    0.43       1.0  T
   3   -341.4553730  0.136921E-02  0.662E-02    0.42       1.0  T
   4   -341.4567695 -0.139651E-02  0.148E-02    0.43       1.0  T
   5   -341.4568239 -0.543390E-04  0.617E-03    0.43       1.2  T
   6   -341.4568295 -0.562706E-05  0.242E-03    0.43       3.0  T
   7   -341.4568303 -0.852705E-06  0.984E-04    0.43       7.3  T
   8   -341.4568304 -0.104214E-06  0.561E-04    0.43      12.9  T
     SCC iter.                  ...        0 min,  0.323 sec
     gradient                   ...        0 min,  0.127 sec
 * total energy  :  -336.2634622 Eh     change       -0.1729867E-02 Eh
   gradient norm :     0.0137568 Eh/α   predicted    -0.1644230E-02 (  -4.95%)
   displ. norm   :     0.7557299 α      lambda       -0.1870258E-02
   maximum displ.:     0.2467206 α      in ANC's #42, #10, #38, ...

........................................................................
.............................. CYCLE   13 ..............................
........................................................................
   1   -341.4641816 -0.341464E+03  0.112E-01    0.43       0.0  T
   2   -341.4641844 -0.285187E-05  0.633E-02    0.43       1.0  T
   3   -341.4634247  0.759679E-03  0.510E-02    0.43       1.0  T
   4   -341.4641572 -0.732443E-03  0.163E-02    0.43       1.0  T
   5   -341.4642316 -0.743854E-04  0.649E-03    0.43       1.1  T
   6   -341.4642385 -0.691502E-05  0.237E-03    0.43       3.0  T
   7   -341.4642392 -0.737660E-06  0.106E-03    0.43       6.8  T
   8   -341.4642394 -0.143711E-06  0.598E-04    0.43      12.1  T
   9   -341.4642394 -0.159847E-07  0.448E-04    0.43      16.1  T
     SCC iter.                  ...        0 min,  0.352 sec
     gradient                   ...        0 min,  0.130 sec
 * total energy  :  -336.2650129 Eh     change       -0.1550632E-02 Eh
   gradient norm :     0.0107606 Eh/α   predicted    -0.1469214E-02 (  -5.25%)
   displ. norm   :     0.7632721 α      lambda       -0.1597528E-02
   maximum displ.:     0.2538437 α      in ANC's #10, #42, #38, ...

........................................................................
.............................. CYCLE   14 ..............................
........................................................................
   1   -341.4647342 -0.341465E+03  0.109E-01    0.43       0.0  T
   2   -341.4647240  0.101645E-04  0.612E-02    0.43       1.0  T
   3   -341.4637501  0.973956E-03  0.557E-02    0.42       1.0  T
   4   -341.4647289 -0.978799E-03  0.142E-02    0.43       1.0  T
   5   -341.4647794 -0.504861E-04  0.627E-03    0.43       1.2  T
   6   -341.4647854 -0.607547E-05  0.232E-03    0.43       3.1  T
   7   -341.4647863 -0.854715E-06  0.888E-04    0.43       8.1  T
   8   -341.4647864 -0.949360E-07  0.489E-04    0.43      14.7  T
     SCC iter.                  ...        0 min,  0.319 sec
     gradient                   ...        0 min,  0.129 sec
 * total energy  :  -336.2664012 Eh     change       -0.1388315E-02 Eh
   gradient norm :     0.0093609 Eh/α   predicted    -0.1264119E-02 (  -8.95%)
   displ. norm   :     0.7792843 α      lambda       -0.1555304E-02
   maximum displ.:     0.2760075 α      in ANC's #10, #42, #20, ...

........................................................................
.............................. CYCLE   15 ..............................
........................................................................
   1   -341.4706285 -0.341471E+03  0.106E-01    0.43       0.0  T
   2   -341.4706356 -0.710436E-05  0.586E-02    0.43       1.0  T
   3   -341.4701225  0.513115E-03  0.415E-02    0.43       1.0  T
   4   -341.4706107 -0.488231E-03  0.143E-02    0.43       1.0  T
   5   -341.4706627 -0.520186E-04  0.661E-03    0.43       1.1  T
   6   -341.4706704 -0.767552E-05  0.214E-03    0.43       3.4  T
   7   -341.4706711 -0.760354E-06  0.809E-04    0.43       8.9  T
   8   -341.4706712 -0.809127E-07  0.441E-04    0.43      16.4  T
     SCC iter.                  ...        0 min,  0.327 sec
     gradient                   ...        0 min,  0.129 sec
 * total energy  :  -336.2677796 Eh     change       -0.1378419E-02 Eh
   gradient norm :     0.0116336 Eh/α   predicted    -0.1249912E-02 (  -9.32%)
   displ. norm   :     0.8110396 α      lambda       -0.1601281E-02
   maximum displ.:     0.2949042 α      in ANC's #10, #20, #33, ...

........................................................................
.............................. CYCLE   16 ..............................
........................................................................
   1   -341.4667160 -0.341467E+03  0.110E-01    0.43       0.0  T
   2   -341.4667161 -0.776760E-07  0.605E-02    0.44       1.0  T
   3   -341.4658917  0.824418E-03  0.514E-02    0.43       1.0  T
   4   -341.4667056 -0.813938E-03  0.152E-02    0.44       1.0  T
   5   -341.4667627 -0.570199E-04  0.693E-03    0.44       1.0  T
   6   -341.4667706 -0.794891E-05  0.242E-03    0.44       3.0  T
   7   -341.4667716 -0.972877E-06  0.841E-04    0.44       8.6  T
   8   -341.4667717 -0.893840E-07  0.435E-04    0.44      16.6  T
     SCC iter.                  ...        0 min,  0.305 sec
     gradient                   ...        0 min,  0.129 sec
 * total energy  :  -336.2691899 Eh     change       -0.1410289E-02 Eh
   gradient norm :     0.0115225 Eh/α   predicted    -0.1327301E-02 (  -5.88%)
   displ. norm   :     0.8106011 α      lambda       -0.1633938E-02
   maximum displ.:     0.3026692 α      in ANC's #10, #20, #33, ...

........................................................................
.............................. CYCLE   17 ..............................
........................................................................
   1   -341.4718964 -0.341472E+03  0.106E-01    0.44       0.0  T
   2   -341.4719197 -0.232962E-04  0.569E-02    0.44       1.0  T
   3   -341.4717721  0.147572E-03  0.261E-02    0.44       1.0  T
   4   -341.4719088 -0.136640E-03  0.113E-02    0.44       1.0  T
   5   -341.4719175 -0.868356E-05  0.879E-03    0.44       1.0  T
   6   -341.4719384 -0.209377E-04  0.262E-03    0.44       2.8  T
   7   -341.4719401 -0.166547E-05  0.876E-04    0.44       8.2  T
   8   -341.4719402 -0.101585E-06  0.473E-04    0.44      15.3  T
   9   -341.4719402 -0.546606E-08  0.358E-04    0.44      20.2  T
     SCC iter.                  ...        0 min,  0.346 sec
     gradient                   ...        0 min,  0.126 sec
 * total energy  :  -336.2705567 Eh     change       -0.1366754E-02 Eh
   gradient norm :     0.0117021 Eh/α   predicted    -0.1353783E-02 (  -0.95%)
   displ. norm   :     0.8201120 α      lambda       -0.1478968E-02
   maximum displ.:     0.3075327 α      in ANC's #10, #20, #33, ...

........................................................................
.............................. CYCLE   18 ..............................
........................................................................
   1   -341.4624810 -0.341462E+03  0.108E-01    0.44       0.0  T
   2   -341.4624772  0.379307E-05  0.593E-02    0.44       1.0  T
   3   -341.4616650  0.812166E-03  0.505E-02    0.44       1.0  T
   4   -341.4624707 -0.805663E-03  0.146E-02    0.45       1.0  T
   5   -341.4625210 -0.502908E-04  0.674E-03    0.44       1.1  T
   6   -341.4625276 -0.667285E-05  0.248E-03    0.44       2.9  T
   7   -341.4625288 -0.115095E-05  0.788E-04    0.44       9.2  T
   8   -341.4625289 -0.667741E-07  0.466E-04    0.44      15.5  T
   9   -341.4625289 -0.847632E-08  0.352E-04    0.44      20.5  T
     SCC iter.                  ...        0 min,  0.341 sec
     gradient                   ...        0 min,  0.126 sec
 * total energy  :  -336.2717490 Eh     change       -0.1192386E-02 Eh
   gradient norm :     0.0122874 Eh/α   predicted    -0.1236856E-02 (   3.73%)
   displ. norm   :     0.7722013 α      lambda       -0.1337933E-02
   maximum displ.:     0.3026504 α      in ANC's #10, #20, #33, ...

........................................................................
.............................. CYCLE   19 ..............................
........................................................................
   1   -341.4635432 -0.341464E+03  0.100E-01    0.45       0.0  T
   2   -341.4635562 -0.129738E-04  0.534E-02    0.44       1.0  T
   3   -341.4632321  0.324098E-03  0.329E-02    0.44       1.0  T
   4   -341.4635335 -0.301492E-03  0.130E-02    0.45       1.0  T
   5   -341.4635723 -0.387465E-04  0.656E-03    0.44       1.1  T
   6   -341.4635800 -0.769206E-05  0.230E-03    0.44       3.1  T
   7   -341.4635810 -0.104011E-05  0.755E-04    0.44       9.6  T
   8   -341.4635811 -0.657325E-07  0.410E-04    0.44      17.6  T
   9   -341.4635811 -0.393271E-08  0.294E-04    0.44      24.6  T
     SCC iter.                  ...        0 min,  0.344 sec
     gradient                   ...        0 min,  0.126 sec
 * total energy  :  -336.2728701 Eh     change       -0.1121089E-02 Eh
   gradient norm :     0.0122421 Eh/α   predicted    -0.1067871E-02 (  -4.75%)
   displ. norm   :     0.7740088 α      lambda       -0.1338508E-02
   maximum displ.:     0.3158289 α      in ANC's #10, #20, #33, ...

........................................................................
.............................. CYCLE   20 ..............................
........................................................................
   1   -341.4656261 -0.341466E+03  0.983E-02    0.45       0.0  T
   2   -341.4656372 -0.110649E-04  0.529E-02    0.45       1.0  T
   3   -341.4652730  0.364174E-03  0.344E-02    0.45       1.0  T
   4   -341.4656148 -0.341762E-03  0.129E-02    0.45       1.0  T
   5   -341.4656557 -0.409947E-04  0.610E-03    0.44       1.2  T
   6   -341.4656621 -0.637670E-05  0.212E-03    0.45       3.4  T
   7   -341.4656629 -0.812848E-06  0.740E-04    0.45       9.7  T
   8   -341.4656630 -0.748636E-07  0.369E-04    0.45      19.5  T
     SCC iter.                  ...        0 min,  0.306 sec
     gradient                   ...        0 min,  0.127 sec
 * total energy  :  -336.2740398 Eh     change       -0.1169669E-02 Eh
   gradient norm :     0.0100469 Eh/α   predicted    -0.1070201E-02 (  -8.50%)
   displ. norm   :     0.7865684 α      lambda       -0.1419658E-02
   maximum displ.:     0.3245758 α      in ANC's #10, #20, #33, ...
 * RMSD in coord.:     0.7418583 α      energy gain  -0.1838714E+00 Eh

generating ANC from model Hessian ...
Using Lindh-Hessian (1995)
 Shifting diagonal of input Hessian by   1.000702978305372E-002
 Lowest  eigenvalues of input Hessian
    0.010000    0.000000    0.000000    0.000000    0.000000    0.000000
    0.000000    0.010009    0.010010    0.010023    0.010038    0.010050
    0.010062    0.010072    0.010078    0.010130    0.010152    0.010181
 Highest eigenvalues
    2.283143    2.298396    2.591484    2.605975    2.654401    2.655335
 

........................................................................
.............................. CYCLE   21 ..............................
........................................................................
   1   -341.4742238 -0.341474E+03  0.985E-02    0.45       0.0  T
   2   -341.4742419 -0.181535E-04  0.526E-02    0.45       1.0  T
   3   -341.4740888  0.153185E-03  0.247E-02    0.45       1.0  T
   4   -341.4742124 -0.123604E-03  0.124E-02    0.45       1.0  T
   5   -341.4742455 -0.331609E-04  0.702E-03    0.45       1.0  T
   6   -341.4742570 -0.114961E-04  0.207E-03    0.45       3.5  T
   7   -341.4742578 -0.762713E-06  0.775E-04    0.45       9.3  T
   8   -341.4742579 -0.796655E-07  0.439E-04    0.45      16.4  T
     SCC iter.                  ...        0 min,  0.318 sec
     gradient                   ...        0 min,  0.130 sec
 * total energy  :  -336.2752642 Eh     change       -0.1224440E-02 Eh
   gradient norm :     0.0094855 Eh/α   predicted     0.0000000E+00 (-100.00%)
   displ. norm   :     0.1604324 α      lambda       -0.4448590E-03
   maximum displ.:     0.0517273 α      in ANC's #10, #20, #15, ...

........................................................................
.............................. CYCLE   22 ..............................
........................................................................
   1   -341.4734126 -0.341473E+03  0.379E-02    0.45       0.0  T
   2   -341.4734121  0.451496E-06  0.210E-02    0.45       1.0  T
   3   -341.4733008  0.111291E-03  0.184E-02    0.45       1.0  T
   4   -341.4734133 -0.112522E-03  0.426E-03    0.45       1.7  T
   5   -341.4734181 -0.474195E-05  0.168E-03    0.45       4.3  T
   6   -341.4734184 -0.296944E-06  0.678E-04    0.45      10.6  T
   7   -341.4734185 -0.749931E-07  0.251E-04    0.45      28.7  T
     SCC iter.                  ...        0 min,  0.280 sec
     gradient                   ...        0 min,  0.132 sec
 * total energy  :  -336.2756122 Eh     change       -0.3479605E-03 Eh
   gradient norm :     0.0055112 Eh/α   predicted    -0.2281560E-03 ( -34.43%)
   displ. norm   :     0.6052333 α      lambda       -0.1357997E-02
   maximum displ.:     0.2189352 α      in ANC's #18, #10, #20, ...

........................................................................
.............................. CYCLE   23 ..............................
........................................................................
   1   -341.4670608 -0.341467E+03  0.135E-01    0.45       0.0  T
   2   -341.4670681 -0.730975E-05  0.743E-02    0.46       1.0  T
   3   -341.4659866  0.108155E-02  0.581E-02    0.45       1.0  T
   4   -341.4670584 -0.107186E-02  0.156E-02    0.46       1.0  T
   5   -341.4671251 -0.666686E-04  0.649E-03    0.46       1.1  T
   6   -341.4671308 -0.568133E-05  0.245E-03    0.46       2.9  T
   7   -341.4671318 -0.102122E-05  0.838E-04    0.46       8.6  T
   8   -341.4671319 -0.574813E-07  0.517E-04    0.46      14.0  T
   9   -341.4671319 -0.118746E-07  0.355E-04    0.46      20.4  T
     SCC iter.                  ...        0 min,  0.358 sec
     gradient                   ...        0 min,  0.129 sec
 * total energy  :  -336.2759903 Eh     change       -0.3780965E-03 Eh
   gradient norm :     0.0171764 Eh/α   predicted    -0.9277213E-03 ( 145.37%)
   displ. norm   :     0.3469517 α      lambda       -0.1297326E-02
   maximum displ.:     0.1119962 α      in ANC's #10, #15, #22, ...

........................................................................
.............................. CYCLE   24 ..............................
........................................................................
   1   -341.4687804 -0.341469E+03  0.979E-02    0.45       0.0  T
   2   -341.4687736  0.679312E-05  0.541E-02    0.46       1.0  T
   3   -341.4678561  0.917507E-03  0.507E-02    0.45       1.0  T
   4   -341.4688091 -0.952933E-03  0.625E-03    0.46       1.2  T
   5   -341.4688148 -0.572365E-05  0.358E-03    0.46       2.0  T
   6   -341.4688167 -0.187758E-05  0.120E-03    0.46       6.0  T
   7   -341.4688169 -0.237037E-06  0.407E-04    0.46      17.7  T
   8   -341.4688169 -0.102361E-07  0.237E-04    0.46      30.5  T
     SCC iter.                  ...        0 min,  0.319 sec
     gradient                   ...        0 min,  0.130 sec
 * total energy  :  -336.2767967 Eh     change       -0.8064144E-03 Eh
   gradient norm :     0.0153596 Eh/α   predicted    -0.7267466E-03 (  -9.88%)
   displ. norm   :     0.4245632 α      lambda       -0.1050270E-02
   maximum displ.:     0.1418819 α      in ANC's #10, #18, #20, ...

........................................................................
.............................. CYCLE   25 ..............................
........................................................................
   1   -341.4697339 -0.341470E+03  0.909E-02    0.45       0.0  T
   2   -341.4696981  0.358063E-04  0.507E-02    0.46       1.0  T
   3   -341.4682837  0.141431E-02  0.631E-02    0.45       1.0  T
   4   -341.4697651 -0.148135E-02  0.675E-03    0.46       1.1  T
   5   -341.4697700 -0.488305E-05  0.421E-03    0.46       1.7  T
   6   -341.4697726 -0.265402E-05  0.138E-03    0.46       5.2  T
   7   -341.4697729 -0.305864E-06  0.503E-04    0.46      14.3  T
   8   -341.4697730 -0.200785E-07  0.267E-04    0.46      27.0  T
     SCC iter.                  ...        0 min,  0.320 sec
     gradient                   ...        0 min,  0.130 sec
 * total energy  :  -336.2774721 Eh     change       -0.6754198E-03 Eh
   gradient norm :     0.0123662 Eh/α   predicted    -0.6197923E-03 (  -8.24%)
   displ. norm   :     0.5999540 α      lambda       -0.1182777E-02
   maximum displ.:     0.2033792 α      in ANC's #10, #18, #20, ...

........................................................................
.............................. CYCLE   26 ..............................
........................................................................
   1   -341.4712763 -0.341471E+03  0.929E-02    0.46       0.0  T
   2   -341.4712199  0.564788E-04  0.517E-02    0.46       1.0  T
   3   -341.4695553  0.166457E-02  0.691E-02    0.46       1.0  T
   4   -341.4713095 -0.175420E-02  0.887E-03    0.47       1.0  T
   5   -341.4713197 -0.102052E-04  0.527E-03    0.46       1.4  T
   6   -341.4713236 -0.388798E-05  0.168E-03    0.46       4.3  T
   7   -341.4713241 -0.482538E-06  0.610E-04    0.46      11.8  T
   8   -341.4713241 -0.385553E-07  0.321E-04    0.46      22.5  T
     SCC iter.                  ...        0 min,  0.310 sec
     gradient                   ...        0 min,  0.127 sec
 * total energy  :  -336.2784269 Eh     change       -0.9547839E-03 Eh
   gradient norm :     0.0113216 Eh/α   predicted    -0.8042598E-03 ( -15.77%)
   displ. norm   :     0.7211970 α      lambda       -0.1406064E-02
   maximum displ.:     0.2511146 α      in ANC's #10, #18, #20, ...

........................................................................
.............................. CYCLE   27 ..............................
........................................................................
   1   -341.4741334 -0.341474E+03  0.105E-01    0.46       0.0  T
   2   -341.4740217  0.111739E-03  0.595E-02    0.47       1.0  T
   3   -341.4714585  0.256314E-02  0.861E-02    0.46       1.0  T
   4   -341.4741850 -0.272643E-02  0.107E-02    0.47       1.0  T
   5   -341.4742007 -0.157111E-04  0.607E-03    0.47       1.2  T
   6   -341.4742055 -0.478541E-05  0.206E-03    0.47       3.5  T
   7   -341.4742063 -0.798076E-06  0.682E-04    0.47      10.6  T
   8   -341.4742063 -0.446282E-07  0.358E-04    0.47      20.2  T
     SCC iter.                  ...        0 min,  0.304 sec
     gradient                   ...        0 min,  0.127 sec
 * total energy  :  -336.2795598 Eh     change       -0.1132903E-02 Eh
   gradient norm :     0.0102633 Eh/α   predicted    -0.1068703E-02 (  -5.67%)
   displ. norm   :     0.7921328 α      lambda       -0.1224567E-02
   maximum displ.:     0.2852840 α      in ANC's #10, #18, #20, ...

........................................................................
.............................. CYCLE   28 ..............................
........................................................................
   1   -341.4697833 -0.341470E+03  0.104E-01    0.46       0.0  T
   2   -341.4696293  0.154064E-03  0.593E-02    0.47       1.0  T
   3   -341.4667240  0.290527E-02  0.915E-02    0.46       1.0  T
   4   -341.4698465 -0.312254E-02  0.972E-03    0.47       1.0  T
   5   -341.4698539 -0.737594E-05  0.607E-03    0.47       1.2  T
   6   -341.4698588 -0.486489E-05  0.224E-03    0.47       3.2  T
   7   -341.4698599 -0.108341E-05  0.670E-04    0.47      10.8  T
   8   -341.4698599 -0.488835E-07  0.345E-04    0.47      20.9  T
   9   -341.4698599 -0.910421E-08  0.214E-04    0.47      33.8  T
     SCC iter.                  ...        0 min,  0.347 sec
     gradient                   ...        0 min,  0.127 sec
 * total energy  :  -336.2806654 Eh     change       -0.1105618E-02 Eh
   gradient norm :     0.0102557 Eh/α   predicted    -0.9964765E-03 (  -9.87%)
   displ. norm   :     0.7694816 α      lambda       -0.1399087E-02
   maximum displ.:     0.2972822 α      in ANC's #10, #18, #20, ...

........................................................................
.............................. CYCLE   29 ..............................
........................................................................
   1   -341.4770321 -0.341477E+03  0.967E-02    0.46       0.0  T
   2   -341.4769330  0.991134E-04  0.551E-02    0.47       1.0  T
   3   -341.4745519  0.238106E-02  0.823E-02    0.46       1.0  T
   4   -341.4770768 -0.252494E-02  0.967E-03    0.47       1.0  T
   5   -341.4770890 -0.121287E-04  0.537E-03    0.47       1.3  T
   6   -341.4770923 -0.332963E-05  0.227E-03    0.47       3.2  T
   7   -341.4770934 -0.106102E-05  0.761E-04    0.47       9.5  T
   8   -341.4770934 -0.702519E-07  0.371E-04    0.47      19.4  T
   9   -341.4770934 -0.767614E-08  0.244E-04    0.47      29.6  T
     SCC iter.                  ...        0 min,  0.356 sec
     gradient                   ...        0 min,  0.129 sec
 * total energy  :  -336.2817808 Eh     change       -0.1115391E-02 Eh
   gradient norm :     0.0105894 Eh/α   predicted    -0.1113745E-02 (  -0.15%)
   displ. norm   :     0.8565457 α      lambda       -0.1462772E-02
   maximum displ.:     0.3143342 α      in ANC's #10, #18, #20, ...

........................................................................
.............................. CYCLE   30 ..............................
........................................................................
   1   -341.4675251 -0.341468E+03  0.114E-01    0.45       0.0  T
   2   -341.4673590  0.166035E-03  0.646E-02    0.47       1.0  T
   3   -341.4636915  0.366755E-02  0.101E-01    0.45       1.0  T
   4   -341.4675994 -0.390795E-02  0.105E-02    0.47       1.0  T
   5   -341.4676067 -0.725400E-05  0.614E-03    0.46       1.2  T
   6   -341.4676105 -0.378884E-05  0.260E-03    0.46       2.8  T
   7   -341.4676120 -0.154810E-05  0.782E-04    0.46       9.2  T
   8   -341.4676121 -0.727334E-07  0.401E-04    0.46      18.0  T
   9   -341.4676121 -0.972369E-08  0.247E-04    0.46      29.3  T
     SCC iter.                  ...        0 min,  0.353 sec
     gradient                   ...        0 min,  0.129 sec
 * total energy  :  -336.2829829 Eh     change       -0.1202092E-02 Eh
   gradient norm :     0.0118511 Eh/α   predicted    -0.1267983E-02 (   5.48%)
   displ. norm   :     0.7859251 α      lambda       -0.1255050E-02
   maximum displ.:     0.3074223 α      in ANC's #10, #18, #20, ...

........................................................................
.............................. CYCLE   31 ..............................
........................................................................
   1   -341.4686487 -0.341469E+03  0.986E-02    0.45       0.0  T
   2   -341.4685585  0.902322E-04  0.552E-02    0.46       1.0  T
   3   -341.4660422  0.251628E-02  0.826E-02    0.45       1.0  T
   4   -341.4686942 -0.265198E-02  0.922E-03    0.46       1.0  T
   5   -341.4687014 -0.717966E-05  0.535E-03    0.46       1.3  T
   6   -341.4687047 -0.329819E-05  0.205E-03    0.46       3.5  T
   7   -341.4687055 -0.848208E-06  0.662E-04    0.46      10.9  T
   8   -341.4687056 -0.514576E-07  0.329E-04    0.46      21.9  T
     SCC iter.                  ...        0 min,  0.322 sec
     gradient                   ...        0 min,  0.129 sec
 * total energy  :  -336.2841043 Eh     change       -0.1121341E-02 Eh
   gradient norm :     0.0104856 Eh/α   predicted    -0.1015137E-02 (  -9.47%)
   displ. norm   :     0.7647966 α      lambda       -0.1387868E-02
   maximum displ.:     0.3163544 α      in ANC's #10, #18, #20, ...

........................................................................
.............................. CYCLE   32 ..............................
........................................................................
   1   -341.4845307 -0.341485E+03  0.919E-02    0.45       0.0  T
   2   -341.4845323 -0.157976E-05  0.502E-02    0.46       1.0  T
   3   -341.4838261  0.706191E-03  0.447E-02    0.45       1.0  T
   4   -341.4845153 -0.689199E-03  0.132E-02    0.46       1.0  T
   5   -341.4845615 -0.462325E-04  0.575E-03    0.46       1.3  T
   6   -341.4845665 -0.492088E-05  0.211E-03    0.46       3.4  T
   7   -341.4845671 -0.684260E-06  0.770E-04    0.46       9.4  T
   8   -341.4845672 -0.941257E-07  0.356E-04    0.46      20.3  T
     SCC iter.                  ...        0 min,  0.320 sec
     gradient                   ...        0 min,  0.129 sec
 * total energy  :  -336.2852089 Eh     change       -0.1104675E-02 Eh
   gradient norm :     0.0084316 Eh/α   predicted    -0.1099831E-02 (  -0.44%)
   displ. norm   :     0.8896046 α      lambda       -0.1319847E-02
   maximum displ.:     0.3514023 α      in ANC's #10, #18, #20, ...

........................................................................
.............................. CYCLE   33 ..............................
........................................................................
   1   -341.4764407 -0.341476E+03  0.110E-01    0.44       0.0  T
   2   -341.4762744  0.166290E-03  0.633E-02    0.46       1.0  T
   3   -341.4725426  0.373186E-02  0.101E-01    0.44       1.0  T
   4   -341.4765075 -0.396497E-02  0.104E-02    0.45       1.0  T
   5   -341.4765155 -0.799706E-05  0.601E-03    0.45       1.2  T
   6   -341.4765191 -0.360665E-05  0.252E-03    0.45       2.9  T
   7   -341.4765205 -0.131154E-05  0.755E-04    0.45       9.6  T
   8   -341.4765205 -0.650175E-07  0.387E-04    0.45      18.6  T
   9   -341.4765205 -0.141623E-07  0.219E-04    0.45      32.9  T
     SCC iter.                  ...        0 min,  0.356 sec
     gradient                   ...        0 min,  0.126 sec
 * total energy  :  -336.2863511 Eh     change       -0.1142159E-02 Eh
   gradient norm :     0.0082070 Eh/α   predicted    -0.1182185E-02 (   3.50%)
   displ. norm   :     0.8628154 α      lambda       -0.1164805E-02
   maximum displ.:     0.3560052 α      in ANC's #10, #18, #20, ...

........................................................................
.............................. CYCLE   34 ..............................
........................................................................
   1   -341.4734048 -0.341473E+03  0.103E-01    0.44       0.0  T
   2   -341.4733395  0.652643E-04  0.574E-02    0.45       1.0  T
   3   -341.4709530  0.238653E-02  0.795E-02    0.44       1.0  T
   4   -341.4734402 -0.248715E-02  0.106E-02    0.45       1.0  T
   5   -341.4734545 -0.142971E-04  0.577E-03    0.45       1.3  T
   6   -341.4734580 -0.355536E-05  0.244E-03    0.45       3.0  T
   7   -341.4734591 -0.111170E-05  0.794E-04    0.45       9.1  T
   8   -341.4734592 -0.970865E-07  0.378E-04    0.45      19.1  T
   9   -341.4734592 -0.109468E-07  0.232E-04    0.45      31.1  T
     SCC iter.                  ...        0 min,  0.353 sec
     gradient                   ...        0 min,  0.126 sec
 * total energy  :  -336.2873747 Eh     change       -0.1023613E-02 Eh
   gradient norm :     0.0092883 Eh/α   predicted    -0.1015977E-02 (  -0.75%)
   displ. norm   :     0.7842694 α      lambda       -0.1219758E-02
   maximum displ.:     0.3441637 α      in ANC's #10, #18, #2, ...

........................................................................
.............................. CYCLE   35 ..............................
........................................................................
   1   -341.4875552 -0.341488E+03  0.943E-02    0.44       0.0  T
   2   -341.4875773 -0.220945E-04  0.515E-02    0.44       1.0  T
   3   -341.4874939  0.834145E-04  0.196E-02    0.44       1.0  T
   4   -341.4875401 -0.461278E-04  0.121E-02    0.45       1.0  T
   5   -341.4875681 -0.280735E-04  0.797E-03    0.44       1.0  T
   6   -341.4875868 -0.186267E-04  0.259E-03    0.44       2.8  T
   7   -341.4875882 -0.143661E-05  0.902E-04    0.44       8.0  T
   8   -341.4875883 -0.145490E-06  0.421E-04    0.44      17.2  T
   9   -341.4875884 -0.140232E-07  0.271E-04    0.44      26.6  T
     SCC iter.                  ...        0 min,  0.345 sec
     gradient                   ...        0 min,  0.126 sec
 * total energy  :  -336.2882349 Eh     change       -0.8601471E-03 Eh
   gradient norm :     0.0107898 Eh/α   predicted    -0.9850013E-03 (  14.52%)
   displ. norm   :     0.8130019 α      lambda       -0.1197856E-02
   maximum displ.:     0.3398218 α      in ANC's #10, #18, #20, ...

........................................................................
.............................. CYCLE   36 ..............................
........................................................................
   1   -341.4763999 -0.341476E+03  0.949E-02    0.43       0.0  T
   2   -341.4762361  0.163777E-03  0.559E-02    0.44       1.0  T
   3   -341.4731675  0.306863E-02  0.913E-02    0.43       1.0  T
   4   -341.4764571 -0.328962E-02  0.936E-03    0.44       1.0  T
   5   -341.4764647 -0.760987E-05  0.514E-03    0.44       1.4  T
   6   -341.4764672 -0.248501E-05  0.242E-03    0.44       3.0  T
   7   -341.4764685 -0.126949E-05  0.802E-04    0.44       9.0  T
   8   -341.4764686 -0.104289E-06  0.388E-04    0.44      18.6  T
   9   -341.4764686 -0.129675E-07  0.242E-04    0.44      29.8  T
     SCC iter.                  ...        0 min,  0.348 sec
     gradient                   ...        0 min,  0.128 sec
 * total energy  :  -336.2891442 Eh     change       -0.9093913E-03 Eh
   gradient norm :     0.0088343 Eh/α   predicted    -0.9948034E-03 (   9.39%)
   displ. norm   :     0.8022428 α      lambda       -0.9853375E-03
   maximum displ.:     0.3470035 α      in ANC's #10, #18, #2, ...

........................................................................
.............................. CYCLE   37 ..............................
........................................................................
   1   -341.4725917 -0.341473E+03  0.920E-02    0.43       0.0  T
   2   -341.4725480  0.437033E-04  0.505E-02    0.44       1.0  T
   3   -341.4707809  0.176712E-02  0.679E-02    0.42       1.0  T
   4   -341.4726166 -0.183564E-02  0.103E-02    0.43       1.0  T
   5   -341.4726314 -0.148440E-04  0.552E-03    0.44       1.3  T
   6   -341.4726349 -0.350886E-05  0.250E-03    0.43       2.9  T
   7   -341.4726362 -0.130903E-05  0.787E-04    0.43       9.2  T
   8   -341.4726363 -0.105240E-06  0.375E-04    0.43      19.3  T
   9   -341.4726363 -0.104350E-07  0.238E-04    0.43      30.3  T
     SCC iter.                  ...        0 min,  0.355 sec
     gradient                   ...        0 min,  0.130 sec
 * total energy  :  -336.2899140 Eh     change       -0.7697541E-03 Eh
   gradient norm :     0.0102181 Eh/α   predicted    -0.8097458E-03 (   5.20%)
   displ. norm   :     0.7229121 α      lambda       -0.8997792E-03
   maximum displ.:     0.3324955 α      in ANC's #10, #18, #2, ...

........................................................................
.............................. CYCLE   38 ..............................
........................................................................
   1   -341.4801624 -0.341480E+03  0.773E-02    0.42       0.0  T
   2   -341.4801390  0.234326E-04  0.428E-02    0.43       1.0  T
   3   -341.4790410  0.109805E-02  0.540E-02    0.42       1.0  T
   4   -341.4801685 -0.112750E-02  0.987E-03    0.43       1.0  T
   5   -341.4801886 -0.201556E-04  0.478E-03    0.43       1.5  T
   6   -341.4801917 -0.305832E-05  0.219E-03    0.43       3.3  T
   7   -341.4801926 -0.970092E-06  0.681E-04    0.43      10.6  T
   8   -341.4801927 -0.683681E-07  0.349E-04    0.43      20.7  T
     SCC iter.                  ...        0 min,  0.314 sec
     gradient                   ...        0 min,  0.129 sec
 * total energy  :  -336.2907130 Eh     change       -0.7990292E-03 Eh
   gradient norm :     0.0071453 Eh/α   predicted    -0.6850072E-03 ( -14.27%)
   displ. norm   :     0.8090859 α      lambda       -0.9306003E-03
   maximum displ.:     0.3703143 α      in ANC's #10, #18, #2, ...

........................................................................
.............................. CYCLE   39 ..............................
........................................................................
   1   -341.4852207 -0.341485E+03  0.866E-02    0.42       0.0  T
   2   -341.4851832  0.375056E-04  0.477E-02    0.43       1.0  T
   3   -341.4836947  0.148851E-02  0.629E-02    0.42       1.0  T
   4   -341.4852302 -0.153552E-02  0.111E-02    0.43       1.0  T
   5   -341.4852544 -0.241361E-04  0.553E-03    0.43       1.3  T
   6   -341.4852586 -0.429451E-05  0.233E-03    0.43       3.1  T
   7   -341.4852597 -0.105064E-05  0.766E-04    0.43       9.4  T
   8   -341.4852598 -0.918847E-07  0.369E-04    0.43      19.5  T
   9   -341.4852598 -0.112393E-07  0.231E-04    0.43      31.2  T
     SCC iter.                  ...        0 min,  0.359 sec
     gradient                   ...        0 min,  0.129 sec
 * total energy  :  -336.2915317 Eh     change       -0.8186369E-03 Eh
   gradient norm :     0.0061288 Eh/α   predicted    -0.7698987E-03 (  -5.95%)
   displ. norm   :     0.8411441 α      lambda       -0.8811477E-03
   maximum displ.:     0.3896464 α      in ANC's #10, #18, #2, ...

........................................................................
.............................. CYCLE   40 ..............................
........................................................................
   1   -341.4920439 -0.341492E+03  0.891E-02    0.42       0.0  T
   2   -341.4920291  0.147549E-04  0.482E-02    0.43       1.0  T
   3   -341.4909721  0.105699E-02  0.532E-02    0.41       1.0  T
   4   -341.4920323 -0.106017E-02  0.133E-02    0.43       1.0  T
   5   -341.4920773 -0.450325E-04  0.584E-03    0.43       1.2  T
   6   -341.4920819 -0.457634E-05  0.251E-03    0.43       2.9  T
   7   -341.4920831 -0.120520E-05  0.840E-04    0.43       8.6  T
   8   -341.4920832 -0.120688E-06  0.387E-04    0.43      18.7  T
   9   -341.4920832 -0.135283E-07  0.234E-04    0.43      30.8  T
     SCC iter.                  ...        0 min,  0.350 sec
     gradient                   ...        0 min,  0.129 sec
 * total energy  :  -336.2923072 Eh     change       -0.7755232E-03 Eh
   gradient norm :     0.0064899 Eh/α   predicted    -0.7522925E-03 (  -3.00%)
   displ. norm   :     0.8978861 α      lambda       -0.8647061E-03
   maximum displ.:     0.4073316 α      in ANC's #10, #18, #2, ...

........................................................................
.............................. CYCLE   41 ..............................
........................................................................
   1   -341.4810079 -0.341481E+03  0.945E-02    0.42       0.0  T
   2   -341.4809062  0.101723E-03  0.536E-02    0.43       1.0  T
   3   -341.4783550  0.255121E-02  0.819E-02    0.41       1.0  T
   4   -341.4810400 -0.268499E-02  0.118E-02    0.42       1.0  T
   5   -341.4810636 -0.235625E-04  0.593E-03    0.43       1.2  T
   6   -341.4810679 -0.429849E-05  0.256E-03    0.42       2.8  T
   7   -341.4810692 -0.129828E-05  0.880E-04    0.43       8.2  T
   8   -341.4810693 -0.131708E-06  0.394E-04    0.42      18.3  T
   9   -341.4810693 -0.173004E-07  0.205E-04    0.43      35.3  T
     SCC iter.                  ...        0 min,  0.342 sec
     gradient                   ...        0 min,  0.126 sec
 * total energy  :  -336.2930464 Eh     change       -0.7392258E-03 Eh
   gradient norm :     0.0072129 Eh/α   predicted    -0.7809278E-03 (   5.64%)
   displ. norm   :     0.7944380 α      lambda       -0.8277645E-03
   maximum displ.:     0.3572778 α      in ANC's #10, #18, #2, ...

........................................................................
.............................. CYCLE   42 ..............................
........................................................................
   1   -341.4890263 -0.341489E+03  0.809E-02    0.42       0.0  T
   2   -341.4890113  0.149630E-04  0.433E-02    0.43       1.0  T
   3   -341.4880883  0.923035E-03  0.495E-02    0.42       1.0  T
   4   -341.4890121 -0.923855E-03  0.133E-02    0.43       1.0  T
   5   -341.4890594 -0.472784E-04  0.546E-03    0.43       1.3  T
   6   -341.4890632 -0.375627E-05  0.228E-03    0.43       3.2  T
   7   -341.4890641 -0.993546E-06  0.785E-04    0.43       9.2  T
   8   -341.4890642 -0.102277E-06  0.355E-04    0.43      20.3  T
     SCC iter.                  ...        0 min,  0.318 sec
     gradient                   ...        0 min,  0.126 sec
 * total energy  :  -336.2937365 Eh     change       -0.6900611E-03 Eh
   gradient norm :     0.0096622 Eh/α   predicted    -0.6750970E-03 (  -2.17%)
   displ. norm   :     0.8180371 α      lambda       -0.8534493E-03
   maximum displ.:     0.3646224 α      in ANC's #10, #18, #2, ...
 * RMSD in coord.:     1.0884265 α      energy gain  -0.1969668E-01 Eh

generating ANC from model Hessian ...
Using Lindh-Hessian (1995)
 Shifting diagonal of input Hessian by   1.002640487005260E-002
 Lowest  eigenvalues of input Hessian
    0.010000    0.010013    0.000000    0.000000    0.000000    0.000000
    0.000000    0.000000    0.010028    0.010034    0.010049    0.010054
    0.010060    0.010084    0.010091    0.010148    0.010168    0.010189
 Highest eigenvalues
    2.274343    2.296513    2.592253    2.610682    2.647281    2.654972
 

........................................................................
.............................. CYCLE   43 ..............................
........................................................................
   1   -341.4873294 -0.341487E+03  0.885E-02    0.42       0.0  T
   2   -341.4873466 -0.171978E-04  0.461E-02    0.43       1.0  T
   3   -341.4870483  0.298226E-03  0.299E-02    0.42       1.0  T
   4   -341.4872745 -0.226128E-03  0.163E-02    0.43       1.0  T
   5   -341.4873596 -0.851128E-04  0.634E-03    0.43       1.1  T
   6   -341.4873665 -0.692227E-05  0.236E-03    0.43       3.1  T
   7   -341.4873675 -0.982993E-06  0.900E-04    0.43       8.0  T
   8   -341.4873676 -0.156758E-06  0.387E-04    0.43      18.7  T
     SCC iter.                  ...        0 min,  0.312 sec
     gradient                   ...        0 min,  0.126 sec
 * total energy  :  -336.2944146 Eh     change       -0.6781137E-03 Eh
   gradient norm :     0.0087868 Eh/α   predicted     0.0000000E+00 (-100.00%)
   displ. norm   :     0.1262596 α      lambda       -0.3234498E-03
   maximum displ.:     0.0600454 α      in ANC's #50, #12, #3, ...

........................................................................
.............................. CYCLE   44 ..............................
........................................................................
   1   -341.4891941 -0.341489E+03  0.247E-02    0.42       0.0  T
   2   -341.4891957 -0.159723E-05  0.135E-02    0.43       1.0  T
   3   -341.4891868  0.889347E-05  0.610E-03    0.43       1.2  T
   4   -341.4891929 -0.611883E-05  0.342E-03    0.43       2.1  T
   5   -341.4891954 -0.251735E-05  0.210E-03    0.43       3.4  T
   6   -341.4891967 -0.131247E-05  0.697E-04    0.43      10.4  T
   7   -341.4891968 -0.789774E-07  0.232E-04    0.43      31.2  T
   8   -341.4891968 -0.634157E-08  0.123E-04    0.43      58.9  T
     SCC iter.                  ...        0 min,  0.317 sec
     gradient                   ...        0 min,  0.129 sec
 * total energy  :  -336.2946808 Eh     change       -0.2662262E-03 Eh
   gradient norm :     0.0040827 Eh/α   predicted    -0.1643035E-03 ( -38.28%)
   displ. norm   :     0.4193060 α      lambda       -0.7040308E-03
   maximum displ.:     0.1930021 α      in ANC's #50, #12, #3, ...

........................................................................
.............................. CYCLE   45 ..............................
........................................................................
   1   -341.4898633 -0.341490E+03  0.786E-02    0.42       0.0  T
   2   -341.4898767 -0.134898E-04  0.419E-02    0.43       1.0  T
   3   -341.4898196  0.571025E-04  0.158E-02    0.43       1.0  T
   4   -341.4898541 -0.344752E-04  0.962E-03    0.43       1.0  T
   5   -341.4898732 -0.191140E-04  0.614E-03    0.43       1.2  T
   6   -341.4898839 -0.107146E-04  0.176E-03    0.43       4.1  T
   7   -341.4898847 -0.711776E-06  0.590E-04    0.43      12.2  T
   8   -341.4898847 -0.370774E-07  0.333E-04    0.43      21.7  T
     SCC iter.                  ...        0 min,  0.321 sec
     gradient                   ...        0 min,  0.130 sec
 * total energy  :  -336.2950467 Eh     change       -0.3658353E-03 Eh
   gradient norm :     0.0096149 Eh/α   predicted    -0.4139062E-03 (  13.14%)
   displ. norm   :     0.5466357 α      lambda       -0.9875527E-03
   maximum displ.:     0.2417963 α      in ANC's #50, #28, #5, ...

........................................................................
.............................. CYCLE   46 ..............................
........................................................................
   1   -341.4857319 -0.341486E+03  0.128E-01    0.43       0.0  T
   2   -341.4857702 -0.383118E-04  0.687E-02    0.43       1.0  T
   3   -341.4857211  0.491439E-04  0.181E-02    0.43       1.0  T
   4   -341.4857717 -0.506265E-04  0.848E-03    0.43       1.0  T
   5   -341.4857568  0.148842E-04  0.915E-03    0.43       1.0  T
   6   -341.4857860 -0.291785E-04  0.245E-03    0.43       2.9  T
   7   -341.4857878 -0.181327E-05  0.775E-04    0.43       9.3  T
   8   -341.4857879 -0.610140E-07  0.448E-04    0.43      16.1  T
   9   -341.4857879 -0.757473E-08  0.292E-04    0.43      24.7  T
     SCC iter.                  ...        0 min,  0.355 sec
     gradient                   ...        0 min,  0.129 sec
 * total energy  :  -336.2952672 Eh     change       -0.2205564E-03 Eh
   gradient norm :     0.0176482 Eh/α   predicted    -0.6413220E-03 ( 190.77%)
   displ. norm   :     0.1325629 α      lambda       -0.6714752E-03
   maximum displ.:     0.0343344 α      in ANC's #18, #16, #12, ...

........................................................................
.............................. CYCLE   47 ..............................
........................................................................
   1   -341.4893191 -0.341489E+03  0.509E-02    0.43       0.0  T
   2   -341.4893237 -0.450596E-05  0.280E-02    0.43       1.0  T
   3   -341.4892189  0.104738E-03  0.165E-02    0.43       1.0  T
   4   -341.4893212 -0.102307E-03  0.495E-03    0.43       1.5  T
   5   -341.4893286 -0.740230E-05  0.158E-03    0.43       4.6  T
   6   -341.4893288 -0.182362E-06  0.835E-04    0.43       8.6  T
   7   -341.4893289 -0.114729E-06  0.273E-04    0.43      26.4  T
     SCC iter.                  ...        0 min,  0.277 sec
     gradient                   ...        0 min,  0.130 sec
 * total energy  :  -336.2957518 Eh     change       -0.4845875E-03 Eh
   gradient norm :     0.0107607 Eh/α   predicted    -0.3416375E-03 ( -29.50%)
   displ. norm   :     0.4103562 α      lambda       -0.7270994E-03
   maximum displ.:     0.1104476 α      in ANC's #12, #28, #3, ...

........................................................................
.............................. CYCLE   48 ..............................
........................................................................
   1   -341.4897247 -0.341490E+03  0.734E-02    0.43       0.0  T
   2   -341.4897398 -0.150968E-04  0.383E-02    0.43       1.0  T
   3   -341.4896948  0.449438E-04  0.137E-02    0.43       1.0  T
   4   -341.4897135 -0.186288E-04  0.989E-03    0.43       1.0  T
   5   -341.4897397 -0.262078E-04  0.506E-03    0.43       1.4  T
   6   -341.4897462 -0.651474E-05  0.150E-03    0.43       4.8  T
   7   -341.4897467 -0.500320E-06  0.519E-04    0.43      13.9  T
   8   -341.4897467 -0.315470E-07  0.254E-04    0.43      28.4  T
     SCC iter.                  ...        0 min,  0.308 sec
     gradient                   ...        0 min,  0.126 sec
 * total energy  :  -336.2962054 Eh     change       -0.4536524E-03 Eh
   gradient norm :     0.0069160 Eh/α   predicted    -0.4247690E-03 (  -6.37%)
   displ. norm   :     0.5559806 α      lambda       -0.6399066E-03
   maximum displ.:     0.1567670 α      in ANC's #50, #12, #3, ...

........................................................................
.............................. CYCLE   49 ..............................
........................................................................
   1   -341.4860121 -0.341486E+03  0.932E-02    0.44       0.0  T
   2   -341.4860320 -0.199346E-04  0.483E-02    0.44       1.0  T
   3   -341.4858563  0.175689E-03  0.233E-02    0.44       1.0  T
   4   -341.4859951 -0.138712E-03  0.125E-02    0.44       1.0  T
   5   -341.4860402 -0.451571E-04  0.541E-03    0.44       1.3  T
   6   -341.4860457 -0.543661E-05  0.156E-03    0.44       4.6  T
   7   -341.4860462 -0.550818E-06  0.598E-04    0.44      12.1  T
   8   -341.4860463 -0.448276E-07  0.292E-04    0.44      24.7  T
     SCC iter.                  ...        0 min,  0.309 sec
     gradient                   ...        0 min,  0.126 sec
 * total energy  :  -336.2965830 Eh     change       -0.3775101E-03 Eh
   gradient norm :     0.0117868 Eh/α   predicted    -0.4188559E-03 (  10.95%)
   displ. norm   :     0.4073226 α      lambda       -0.5534499E-03
   maximum displ.:     0.1251655 α      in ANC's #3, #12, #5, ...

........................................................................
.............................. CYCLE   50 ..............................
........................................................................
   1   -341.4893622 -0.341489E+03  0.547E-02    0.44       0.0  T
   2   -341.4893710 -0.879175E-05  0.278E-02    0.44       1.0  T
   3   -341.4893547  0.163056E-04  0.976E-03    0.44       1.0  T
   4   -341.4893676 -0.128786E-04  0.532E-03    0.44       1.4  T
   5   -341.4893642  0.337513E-05  0.542E-03    0.44       1.3  T
   6   -341.4893749 -0.106516E-04  0.112E-03    0.44       6.4  T
   7   -341.4893751 -0.247866E-06  0.479E-04    0.44      15.1  T
   8   -341.4893752 -0.436793E-07  0.212E-04    0.44      34.1  T
     SCC iter.                  ...        0 min,  0.308 sec
     gradient                   ...        0 min,  0.126 sec
 * total energy  :  -336.2970375 Eh     change       -0.4545189E-03 Eh
   gradient norm :     0.0102892 Eh/α   predicted    -0.3226401E-03 ( -29.02%)
   displ. norm   :     0.5984699 α      lambda       -0.8194721E-03
   maximum displ.:     0.1895754 α      in ANC's #3, #12, #5, ...

........................................................................
.............................. CYCLE   51 ..............................
........................................................................
   1   -341.4932076 -0.341493E+03  0.737E-02    0.44       0.0  T
   2   -341.4932181 -0.105263E-04  0.378E-02    0.44       1.0  T
   3   -341.4930128  0.205342E-03  0.248E-02    0.44       1.0  T
   4   -341.4931859 -0.173087E-03  0.117E-02    0.44       1.0  T
   5   -341.4932276 -0.416759E-04  0.492E-03    0.44       1.5  T
   6   -341.4932322 -0.467102E-05  0.160E-03    0.44       4.5  T
   7   -341.4932327 -0.478533E-06  0.611E-04    0.44      11.8  T
   8   -341.4932328 -0.625243E-07  0.280E-04    0.44      25.7  T
     SCC iter.                  ...        0 min,  0.300 sec
     gradient                   ...        0 min,  0.126 sec
 * total energy  :  -336.2976659 Eh     change       -0.6284101E-03 Eh
   gradient norm :     0.0070461 Eh/α   predicted    -0.5564934E-03 ( -11.44%)
   displ. norm   :     0.7675750 α      lambda       -0.7437335E-03
   maximum displ.:     0.2384125 α      in ANC's #3, #12, #5, ...

........................................................................
.............................. CYCLE   52 ..............................
........................................................................
   1   -341.4877847 -0.341488E+03  0.942E-02    0.44       0.0  T
   2   -341.4878072 -0.225163E-04  0.473E-02    0.45       1.0  T
   3   -341.4876160  0.191216E-03  0.249E-02    0.44       1.0  T
   4   -341.4877520 -0.135962E-03  0.145E-02    0.45       1.0  T
   5   -341.4878147 -0.627803E-04  0.634E-03    0.45       1.1  T
   6   -341.4878231 -0.832292E-05  0.190E-03    0.45       3.8  T
   7   -341.4878238 -0.694363E-06  0.754E-04    0.45       9.6  T
   8   -341.4878239 -0.113428E-06  0.289E-04    0.45      25.0  T
     SCC iter.                  ...        0 min,  0.315 sec
     gradient                   ...        0 min,  0.129 sec
 * total energy  :  -336.2982257 Eh     change       -0.5597998E-03 Eh
   gradient norm :     0.0101685 Eh/α   predicted    -0.5909675E-03 (   5.57%)
   displ. norm   :     0.6328082 α      lambda       -0.8826659E-03
   maximum displ.:     0.2130534 α      in ANC's #3, #12, #5, ...

........................................................................
.............................. CYCLE   53 ..............................
........................................................................
   1   -341.4955845 -0.341496E+03  0.755E-02    0.44       0.0  T
   2   -341.4955900 -0.555088E-05  0.390E-02    0.45       1.0  T
   3   -341.4951672  0.422859E-03  0.347E-02    0.44       1.0  T
   4   -341.4955624 -0.395238E-03  0.128E-02    0.45       1.0  T
   5   -341.4956116 -0.491996E-04  0.506E-03    0.44       1.4  T
   6   -341.4956152 -0.361832E-05  0.195E-03    0.44       3.7  T
   7   -341.4956159 -0.615116E-06  0.756E-04    0.44       9.5  T
   8   -341.4956159 -0.862903E-07  0.370E-04    0.44      19.5  T
     SCC iter.                  ...        0 min,  0.319 sec
     gradient                   ...        0 min,  0.129 sec
 * total energy  :  -336.2986846 Eh     change       -0.4589321E-03 Eh
   gradient norm :     0.0145684 Eh/α   predicted    -0.6180639E-03 (  34.67%)
   displ. norm   :     0.6390041 α      lambda       -0.8876526E-03
   maximum displ.:     0.2067336 α      in ANC's #3, #12, #5, ...

........................................................................
.............................. CYCLE   54 ..............................
........................................................................
   1   -341.4927917 -0.341493E+03  0.830E-02    0.44       0.0  T
   2   -341.4928127 -0.210198E-04  0.419E-02    0.45       1.0  T
   3   -341.4927815  0.312396E-04  0.139E-02    0.44       1.0  T
   4   -341.4927987 -0.172198E-04  0.875E-03    0.45       1.0  T
   5   -341.4928011 -0.239343E-05  0.742E-03    0.45       1.0  T
   6   -341.4928202 -0.191177E-04  0.177E-03    0.45       4.1  T
   7   -341.4928209 -0.676039E-06  0.673E-04    0.45      10.7  T
   8   -341.4928210 -0.870076E-07  0.276E-04    0.45      26.2  T
     SCC iter.                  ...        0 min,  0.314 sec
     gradient                   ...        0 min,  0.129 sec
 * total energy  :  -336.2993305 Eh     change       -0.6459276E-03 Eh
   gradient norm :     0.0086757 Eh/α   predicted    -0.6250578E-03 (  -3.23%)
   displ. norm   :     0.6915595 α      lambda       -0.6484588E-03
   maximum displ.:     0.2354471 α      in ANC's #3, #12, #5, ...

........................................................................
.............................. CYCLE   55 ..............................
........................................................................
   1   -341.4893770 -0.341489E+03  0.784E-02    0.44       0.0  T
   2   -341.4893956 -0.186100E-04  0.386E-02    0.45       1.0  T
   3   -341.4893451  0.505369E-04  0.149E-02    0.44       1.0  T
   4   -341.4893657 -0.205938E-04  0.107E-02    0.45       1.0  T
   5   -341.4893926 -0.269664E-04  0.616E-03    0.45       1.2  T
   6   -341.4894032 -0.105368E-04  0.173E-03    0.45       4.2  T
   7   -341.4894038 -0.598959E-06  0.687E-04    0.45      10.5  T
   8   -341.4894039 -0.975297E-07  0.269E-04    0.45      26.8  T
     SCC iter.                  ...        0 min,  0.314 sec
     gradient                   ...        0 min,  0.129 sec
[...]
   127   6 C    3.993 --   126 C    0.985   123 C    0.985   191 H    0.978
                           190 H    0.977
   128   6 C    3.985 --   112 C    0.995   122 C    0.978   192 H    0.961
                           126 C    0.947
   129   1 H    0.992 --     1 C    0.947
   130   1 H    0.996 --     6 C    0.963
   131   1 H    0.997 --     9 C    0.961
   132   1 H    0.996 --    17 C    0.960
   133   1 H    0.998 --    18 C    0.972
   134   1 H    0.999 --    19 C    0.972
   135   1 H    0.999 --    20 C    0.971
   136   1 H    0.999 --    21 C    0.972
   137   1 H    0.996 --    22 C    0.977
   138   1 H    0.998 --    22 C    0.978
   139   1 H    0.996 --    23 C    0.960
   140   1 H    0.996 --    25 C    0.959
   141   1 H    0.995 --    31 C    0.959
   142   1 H    0.995 --    31 C    0.969
   143   1 H    0.997 --    32 C    0.986
   144   1 H    0.997 --    32 C    0.984
   145   1 H    0.998 --    32 C    0.985
   146   1 H    0.998 --    41 C    0.958
   147   1 H    0.998 --    42 C    0.963
   148   1 H    0.994 --    44 C    0.952
   149   1 H    0.998 --    44 C    0.970
   150   1 H    0.998 --    45 C    0.988
   151   1 H    0.998 --    45 C    0.985
   152   1 H    0.998 --    45 C    0.985
   153   1 H    0.995 --    49 C    0.944
   154   1 H    0.998 --    56 C    0.967
   155   1 H    0.997 --    57 C    0.965
   156   1 H    0.996 --    60 C    0.981
   157   1 H    0.996 --    60 C    0.982
   158   1 H    0.995 --    60 C    0.979
   159   1 H    0.997 --    61 C    0.967
   160   1 H    0.998 --    62 C    0.967
   161   1 H    0.999 --    64 C    0.966
   162   1 H    0.998 --    65 C    0.966
   163   1 H    0.996 --    68 C    0.982
   164   1 H    0.995 --    68 C    0.979
   165   1 H    0.996 --    68 C    0.983
   166   1 H    0.997 --    69 C    0.964
   167   1 H    0.998 --    70 C    0.965
   168   1 H    0.998 --    77 C    0.966
   169   1 H    0.998 --    78 C    0.965
   170   1 H    0.995 --    81 C    0.979
   171   1 H    0.996 --    81 C    0.979
   172   1 H    0.996 --    81 C    0.983
   173   1 H    0.997 --    82 C    0.967
   174   1 H    0.997 --    83 C    0.965
   175   1 H    0.998 --    85 C    0.965
   176   1 H    0.998 --    86 C    0.965
   177   1 H    0.996 --    89 C    0.979
   178   1 H    0.995 --    89 C    0.978
   179   1 H    0.995 --    89 C    0.982
   180   1 H    0.994 --    90 C    0.958
   181   1 H    0.998 --    91 C    0.966
   182   1 H    0.991 --   106 C    0.939
   183   1 H    0.996 --   111 C    0.964
   184   1 H    0.997 --   114 C    0.958
   185   1 H    0.997 --   122 C    0.961
   186   1 H    0.999 --   123 C    0.972
   187   1 H    0.999 --   124 C    0.972
   188   1 H    0.999 --   125 C    0.971
   189   1 H    0.999 --   126 C    0.972
   190   1 H    0.997 --   127 C    0.977
   191   1 H    0.999 --   127 C    0.978
   192   1 H    0.996 --   128 C    0.961
 ---------------------------------------------------------------------------

Topologies differ in bond orders
Writing corrected topology to xtbtopo.mol

molecular dipole:
                 x           y           z       tot (Debye)
 q only:        0.762      -0.551      -0.136
   full:        1.096      -1.442       0.188       4.629
molecular quadrupole (traceless):
                xx          xy          yy          xz          yz          zz
 q only:      113.688     -44.242      50.975       7.289      43.000    -164.663
  q+dip:      107.354     -39.496      55.596      11.308      14.391    -162.950
   full:      105.784     -44.795      57.402      13.345      14.771    -163.187

           -------------------------------------------------
          |                Geometry Summary                 |
           -------------------------------------------------

      molecular mass/u    :     1917.3524358
   center of mass at/Å    :       -0.2846712       0.3997615       0.1880417
  moments of inertia/u·Å² :        0.4156812E+05   0.1218959E+06   0.1348560E+06
rotational constants/cm⁻¹ :        0.4055423E-03   0.1382953E-03   0.1250047E-03

 * 187 selected distances

     #   Z          #   Z                                           value/Å
     1   6 C        2   6 C                                       1.3568862
     3   6 C        4   8 O                                       1.2088845
     5   6 C        6   6 C                                       1.3933931
     6   6 C        7   6 C                                       1.3742045
     7   6 C        8   6 C                                       1.4020917
     8   6 C        9   6 C                                       1.3744940
     5   6 C       10   6 C                                       1.4118534
     9   6 C       10   6 C                                       1.3964188
    11   6 C       12   6 C                                       1.3688044
    13   6 C       14   7 N                                       1.1482025
    15   6 C       16   7 N                                       1.1476937
     8   6 C       17   6 C                                       1.5077888
    17   6 C       18   6 C                                       1.5490347
    19   6 C       20   6 C                                       1.3263122
    18   6 C       22   6 C                                       1.5370192
    21   6 C       22   6 C                                       1.5371116
     7   6 C       23   6 C                                       1.5084738
    17   6 C       23   6 C                                       1.5611770
    21   6 C       23   6 C                                       1.5491793
     1   6 C       24   6 C                                       1.4189725
    24   6 C       25   6 C                                       1.3722428
    25   6 C       26   6 C                                       1.4106754
    26   6 C       27   6 C                                       1.4097495
    28   6 C       29  16 S                                       1.7394118
    29  16 S       30   6 C                                       1.7275560
    30   6 C       31   6 C                                       1.4891363
    31   6 C       32   6 C                                       1.5305635
    30   6 C       33   6 C                                       1.3639079
    33   6 C       34  17 Cl                                      1.7162488
    28   6 C       35   6 C                                       1.3674227
    33   6 C       35   6 C                                       1.4202481
    35   6 C       36  17 Cl                                      1.7180310
    27   6 C       37   6 C                                       1.3852218
    37   6 C       38   6 C                                       1.4186121
    38   6 C       39   6 C                                       1.4114183
    40   6 C       41   6 C                                       1.3690048
    41   6 C       42   6 C                                       1.4069253
    42   6 C       43   6 C                                       1.3614660
    44   6 C       45   6 C                                       1.5274600
    40   6 C       46  16 S                                       1.7431709
    43   6 C       46  16 S                                       1.7319573
    26   6 C       47   6 C                                       1.4181256
    39   6 C       47   6 C                                       1.3906494
    24   6 C       48  16 S                                       1.7542993 (max)
    47   6 C       48  16 S                                       1.7376829
    38   6 C       49   6 C                                       1.4077967
    49   6 C       50   6 C                                       1.3718313
    37   6 C       51  16 S                                       1.7430370
    50   6 C       51  16 S                                       1.7518403
    50   6 C       52   6 C                                       1.4199283
    52   6 C       53   6 C                                       1.3925946
    53   6 C       54   7 N                                       1.3837323
    54   7 N       55   6 C                                       1.4137184
    55   6 C       56   6 C                                       1.3900843
    56   6 C       57   6 C                                       1.3813559
    57   6 C       58   6 C                                       1.3885256
    58   6 C       61   6 C                                       1.3926268
    55   6 C       62   6 C                                       1.3945041
    61   6 C       62   6 C                                       1.3766087
    54   7 N       63   6 C                                       1.3921059
    63   6 C       64   6 C                                       1.3936707
    64   6 C       65   6 C                                       1.3810473
    65   6 C       66   6 C                                       1.3870906
    66   6 C       69   6 C                                       1.3921868
    63   6 C       70   6 C                                       1.3973615
    69   6 C       70   6 C                                       1.3749859
    53   6 C       71   6 C                                       1.4195246
    71   6 C       72  16 S                                       1.7318878
    72  16 S       73   6 C                                       1.7501933
    73   6 C       74   6 C                                       1.4000296
    74   6 C       75   7 N                                       1.3800040
    75   7 N       76   6 C                                       1.3980108
    76   6 C       77   6 C                                       1.3932709
    77   6 C       78   6 C                                       1.3799037
    78   6 C       79   6 C                                       1.3890245
    79   6 C       82   6 C                                       1.3928134
    76   6 C       83   6 C                                       1.3960424
    82   6 C       83   6 C                                       1.3765698
    75   7 N       84   6 C                                       1.4010338
    84   6 C       85   6 C                                       1.3931497
    85   6 C       86   6 C                                       1.3807977
    86   6 C       87   6 C                                       1.3896159
    87   6 C       90   6 C                                       1.3934426
    84   6 C       91   6 C                                       1.3966380
    90   6 C       91   6 C                                       1.3760533
    71   6 C       92   6 C                                       1.3853373
    74   6 C       92   6 C                                       1.4129314
    92   6 C       93  16 S                                       1.7266274
    73   6 C       94   6 C                                       1.4180337
    94   6 C       95   6 C                                       1.4114373
    95   6 C       96   6 C                                       1.4475617
    96   6 C       97   7 N                                       1.3316042
    97   7 N       98  16 S                                       1.6010239
    95   6 C       99   7 N                                       1.3330938
    98  16 S       99   7 N                                       1.6070165
    96   6 C      100   6 C                                       1.4105361
   100   6 C      101   6 C                                       1.4140854
   101   6 C      102   7 N                                       1.3325126
   102   7 N      103  16 S                                       1.6085252
   103  16 S      104   7 N                                       1.6062323
    94   6 C      105   6 C                                       1.4118328
   101   6 C      105   6 C                                       1.4471736
   104   7 N      105   6 C                                       1.3332688
   100   6 C      106   6 C                                       1.4170893
   106   6 C      107   6 C                                       1.3654632
   108   6 C      109   8 O                                       1.2150884
   110   6 C      111   6 C                                       1.3921539
   111   6 C      112   6 C                                       1.3736870
   112   6 C      113   6 C                                       1.4011274
   113   6 C      114   6 C                                       1.3743887
   110   6 C      115   6 C                                       1.4080599
   114   6 C      115   6 C                                       1.3982653
   116   6 C      117   6 C                                       1.3717015
   118   6 C      119   7 N                                       1.1490137
   120   6 C      121   7 N                                       1.1487198
   113   6 C      122   6 C                                       1.5085122
   122   6 C      123   6 C                                       1.5488792
   124   6 C      125   6 C                                       1.3262738
   123   6 C      127   6 C                                       1.5370941
   126   6 C      127   6 C                                       1.5369209
   112   6 C      128   6 C                                       1.5081098
   122   6 C      128   6 C                                       1.5612667
   126   6 C      128   6 C                                       1.5488585
     1   6 C      129   1 H                                       1.0856021
     6   6 C      130   1 H                                       1.0787619
     9   6 C      131   1 H                                       1.0779929
    17   6 C      132   1 H                                       1.0880959
    18   6 C      133   1 H                                       1.0867761
    19   6 C      134   1 H                                       1.0743398
    20   6 C      135   1 H                                       1.0743055
    21   6 C      136   1 H                                       1.0867906
    22   6 C      137   1 H                                       1.0890285
    22   6 C      138   1 H                                       1.0890843
    23   6 C      139   1 H                                       1.0881552
    25   6 C      140   1 H                                       1.0745036
    31   6 C      141   1 H                                       1.0926644
    31   6 C      142   1 H                                       1.0909793
    32   6 C      143   1 H                                       1.0864627
    32   6 C      144   1 H                                       1.0866369
    32   6 C      145   1 H                                       1.0871806
    41   6 C      146   1 H                                       1.0752526
    42   6 C      147   1 H                                       1.0753540
    44   6 C      148   1 H                                       1.0948007
    44   6 C      149   1 H                                       1.0921866
    45   6 C      150   1 H                                       1.0877651
    45   6 C      151   1 H                                       1.0882699
    45   6 C      152   1 H                                       1.0879941
    49   6 C      153   1 H                                       1.0743778
    56   6 C      154   1 H                                       1.0798231
    57   6 C      155   1 H                                       1.0777485
    60   6 C      156   1 H                                       1.0857210
    60   6 C      157   1 H                                       1.0861578
    60   6 C      158   1 H                                       1.0855299
    61   6 C      159   1 H                                       1.0788014
    62   6 C      160   1 H                                       1.0801265
    64   6 C      161   1 H                                       1.0797963
    65   6 C      162   1 H                                       1.0781574
    68   6 C      163   1 H                                       1.0857757
    68   6 C      164   1 H                                       1.0853990
    68   6 C      165   1 H                                       1.0862208
    69   6 C      166   1 H                                       1.0785168
    70   6 C      167   1 H                                       1.0793122
    77   6 C      168   1 H                                       1.0798604
    78   6 C      169   1 H                                       1.0782137
    81   6 C      170   1 H                                       1.0854988
    81   6 C      171   1 H                                       1.0856254
    81   6 C      172   1 H                                       1.0855406
    82   6 C      173   1 H                                       1.0789440
    83   6 C      174   1 H                                       1.0792150
    85   6 C      175   1 H                                       1.0802819
    86   6 C      176   1 H                                       1.0782848
    89   6 C      177   1 H                                       1.0856620
    89   6 C      178   1 H                                       1.0863384
    89   6 C      179   1 H                                       1.0860264
    90   6 C      180   1 H                                       1.0780998
    91   6 C      181   1 H                                       1.0795690
   106   6 C      182   1 H                                       1.0830843
   111   6 C      183   1 H                                       1.0788630
   114   6 C      184   1 H                                       1.0771410
   122   6 C      185   1 H                                       1.0882667
   123   6 C      186   1 H                                       1.0867370
   124   6 C      187   1 H                                       1.0742116 (min)
   125   6 C      188   1 H                                       1.0742463
   126   6 C      189   1 H                                       1.0870166
   127   6 C      190   1 H                                       1.0890459
   127   6 C      191   1 H                                       1.0892400
   128   6 C      192   1 H                                       1.0884439

 * 7 distinct bonds (by element types)

   Z      Z             #   av. dist./Å        max./Å        min./Å
   1 H    6 C          64     1.0831860     1.0948007     1.0742116
   6 C    6 C          90     1.4186878     1.5612667     1.3262738
   6 C    7 N          14     1.3066225     1.4137184     1.1476937
   6 C    8 O           2     1.2119865     1.2150884     1.2088845
   6 C   16 S          11     1.7397876     1.7542993     1.7266274
   7 N   16 S           4     1.6056995     1.6085252     1.6010239
   6 C   17 Cl          2     1.7171399     1.7180310     1.7162488


optimized geometry written to: xtbopt.mol


           -------------------------------------------------
          | TOTAL ENERGY             -336.349874240914 Eh   |
          | GRADIENT NORM               0.000526420663 Eh/α |
          | HOMO-LUMO GAP               0.380959823082 eV   |
           -------------------------------------------------

------------------------------------------------------------------------
 * finished run on 2022/02/06 at 09:26:14.367     
------------------------------------------------------------------------
 total:
 * wall-time:     0 d,  0 h,  2 min, 24.444 sec
 *  cpu-time:     0 d,  0 h, 19 min, 15.360 sec
 * ratio c/w:     7.999 speedup
 SCF:
 * wall-time:     0 d,  0 h,  0 min,  0.833 sec
 *  cpu-time:     0 d,  0 h,  0 min,  6.642 sec
 * ratio c/w:     7.970 speedup
 ANC optimizer:
 * wall-time:     0 d,  0 h,  2 min, 23.503 sec
 *  cpu-time:     0 d,  0 h, 19 min,  7.951 sec
 * ratio c/w:     7.999 speedup

