      -----------------------------------------------------------      
     |                   =====================                   |     
     |                           x T B                           |     
     |                   =====================                   |     
     |                         S. Grimme                         |     
     |          Mulliken Center for Theoretical Chemistry        |     
     |                    University of Bonn                     |     
      -----------------------------------------------------------      

   * xtb version 6.4.1 (unknown) compiled by 'oda6@login1.crc.pitt.edu' on 2021-06-25

   xtb is free software: you can redistribute it and/or modify it under
   the terms of the GNU Lesser General Public License as published by
   the Free Software Foundation, either version 3 of the License, or
   (at your option) any later version.
   
   xtb is distributed in the hope that it will be useful,
   but WITHOUT ANY WARRANTY; without even the implied warranty of
   MERCHANTABILITY or FITNESS FOR A PARTICULAR PURPOSE.  See the
   GNU Lesser General Public License for more details.
   
   Cite this work as:
   * C. Bannwarth, E. Caldeweyher, S. Ehlert, A. Hansen, P. Pracht,
     J. Seibert, S. Spicher, S. Grimme, WIREs Comput. Mol. Sci., 2020, 11,
     e01493. DOI: 10.1002/wcms.1493
   
   for GFN2-xTB:
   * C. Bannwarth, S. Ehlert and S. Grimme., J. Chem. Theory Comput., 2019,
     15, 1652-1671. DOI: 10.1021/acs.jctc.8b01176
   for GFN1-xTB:
   * S. Grimme, C. Bannwarth, P. Shushkov, J. Chem. Theory Comput., 2017,
     13, 1989-2009. DOI: 10.1021/acs.jctc.7b00118
   for GFN0-xTB:
   * P. Pracht, E. Caldeweyher, S. Ehlert, S. Grimme, ChemRxiv, 2019, preprint.
     DOI: 10.26434/chemrxiv.8326202.v1
   for GFN-FF:
   * S. Spicher and S. Grimme, Angew. Chem. Int. Ed., 2020, 59, 15665-15673.
     DOI: 10.1002/anie.202004239
   
   for DFT-D4:
   * E. Caldeweyher, C. Bannwarth and S. Grimme, J. Chem. Phys., 2017,
     147, 034112. DOI: 10.1063/1.4993215
   * E. Caldeweyher, S. Ehlert, A. Hansen, H. Neugebauer, S. Spicher,
     C. Bannwarth and S. Grimme, J. Chem. Phys., 2019, 150, 154122.
     DOI: 10.1063/1.5090222
   * E. Caldeweyher, J.-M. Mewes, S. Ehlert and S. Grimme, Phys. Chem. Chem. Phys.
     2020, 22, 8499-8512. DOI: 10.1039/D0CP00502A
   
   for sTDA-xTB:
   * S. Grimme and C. Bannwarth, J. Chem. Phys., 2016, 145, 054103.
     DOI: 10.1063/1.4959605
   
   in the mass-spec context:
   * V. Asgeirsson, C. Bauer and S. Grimme, Chem. Sci., 2017, 8, 4879.
     DOI: 10.1039/c7sc00601b
   * J. Koopman and S. Grimme, ACS Omega 2019, 4, 12, 15120-15133.
     DOI: 10.1021/acsomega.9b02011
   
   for metadynamics refer to:
   * S. Grimme, J. Chem. Theory Comput., 2019, 155, 2847-2862
     DOI: 10.1021/acs.jctc.9b00143
   
   for SPH calculations refer to:
   * S. Spicher and S. Grimme, J. Chem. Theory Comput., 2021, 17, 1701-1714
     DOI: 10.1021/acs.jctc.0c01306
   
   with help from (in alphabetical order)
   P. Atkinson, C. Bannwarth, F. Bohle, G. Brandenburg, E. Caldeweyher
   M. Checinski, S. Dohm, S. Ehlert, S. Ehrlich, I. Gerasimov, J. Koopman
   C. Lavigne, S. Lehtola, F. März, M. Müller, F. Musil, H. Neugebauer
   J. Pisarek, C. Plett, P. Pracht, J. Seibert, P. Shushkov, S. Spicher
   M. Stahn, M. Steiner, T. Strunk, J. Stückrath, T. Rose, and J. Unsleber
   
 * started run on 2022/02/05 at 04:40:56.693     

           -------------------------------------------------
          |                Calculation Setup                |
           -------------------------------------------------

          program call               : /ihome/ghutchison/oda6/xtb/xtb-641/bin/xtb ../../FF_optimized/39_50_130_50_12.mol -opt
          hostname                   : smp-n57
          coordinate file            : ../../FF_optimized/39_50_130_50_12.mol
          omp threads                :                     8
          number of atoms            :                   153
          number of electrons        :                   486
          charge                     :                     0
          spin                       :                   0.0
          first test random number   :      0.48860028876505

   ID    Z sym.   atoms
    1    6 C      1-3, 5-13, 15, 17-26, 28-30, 32, 33, 35-38, 40-46, 48-51,
                  53, 54, 56-59, 61-67, 69-72, 74-76, 78-80, 82-84, 86-88,
                  90, 92-96, 98
    2    8 O      4, 85
    3    7 N      14, 16, 34, 55, 97, 99
    4   16 S      27, 31, 39, 47, 52, 60, 68, 73, 77, 81
    5   17 Cl     89
    6   35 Br     91
    7    1 H      100-153
########################################################################
[WARNING] Please study the warnings concerning your input carefully
-1- prog_main_parseArguments: the use of '-opt' is discouraged, please use '--opt' next time
########################################################################

           -------------------------------------------------
          |                 G F N 2 - x T B                 |
           -------------------------------------------------

        Reference                      10.1021/acs.jctc.8b01176
      * Hamiltonian:
        H0-scaling (s, p, d)           1.850000    2.230000    2.230000
        zeta-weighting                 0.500000
      * Dispersion:
        s8                             2.700000
        a1                             0.520000
        a2                             5.000000
        s9                             5.000000
      * Repulsion:
        kExp                           1.500000    1.000000
        rExp                           1.000000
      * Coulomb:
        alpha                          2.000000
        third order                    shell-resolved
        anisotropic                    true
        a3                             3.000000
        a5                             4.000000
        cn-shift                       1.200000
        cn-exp                         4.000000
        max-rad                        5.000000


          ...................................................
          :                      SETUP                      :
          :.................................................:
          :  # basis functions                 522          :
          :  # atomic orbitals                 510          :
          :  # shells                          264          :
          :  # electrons                       486          :
          :  max. iterations                   250          :
          :  Hamiltonian                  GFN2-xTB          :
          :  restarted?                      false          :
          :  GBSA solvation                  false          :
          :  PC potential                    false          :
          :  electronic temp.          300.0000000     K    :
          :  accuracy                    1.0000000          :
          :  -> integral cutoff          0.2500000E+02      :
          :  -> integral neglect         0.1000000E-07      :
          :  -> SCF convergence          0.1000000E-05 Eh   :
          :  -> wf. convergence          0.1000000E-03 e    :
          :  Broyden damping             0.4000000          :
          ...................................................

 iter      E             dE          RMSdq      gap      omega  full diag
   1   -266.5378015 -0.266538E+03  0.506E+00    1.09       0.0  T
   2   -266.6941041 -0.156303E+00  0.303E+00    0.75       1.0  T
   3   -266.2949919  0.399112E+00  0.212E+00    0.23       1.0  T
   4   -266.8174106 -0.522419E+00  0.690E-01    0.52       1.0  T
   5   -266.8635553 -0.461447E-01  0.252E-01    0.25       1.0  T
   6   -266.8638258 -0.270507E-03  0.154E-01    0.42       1.0  T
   7   -266.8662757 -0.244989E-02  0.743E-02    0.33       1.0  T
   8   -266.8666897 -0.413966E-03  0.458E-02    0.34       1.0  T
   9   -266.8667614 -0.716887E-04  0.335E-02    0.33       1.0  T
  10   -266.8668031 -0.417704E-04  0.243E-02    0.34       1.0  T
  11   -266.8668316 -0.284458E-04  0.169E-02    0.33       1.0  T
  12   -266.8668454 -0.137770E-04  0.111E-02    0.34       1.0  T
  13   -266.8668527 -0.728566E-05  0.614E-03    0.34       1.3  T
  14   -266.8668549 -0.226609E-05  0.308E-03    0.34       2.6  T
  15   -266.8668556 -0.656070E-06  0.177E-03    0.34       4.6  T
  16   -266.8668557 -0.147231E-06  0.985E-04    0.34       8.2  T
  17   -266.8668558 -0.433998E-07  0.611E-04    0.34      13.2  T

   *** convergence criteria satisfied after 17 iterations ***

         #    Occupation            Energy/Eh            Energy/eV
      -------------------------------------------------------------
         1        2.0000           -1.0892678             -29.6405
       ...           ...                  ...                  ...
       237        2.0000           -0.3791052             -10.3160
       238        2.0000           -0.3751119             -10.2073
       239        2.0000           -0.3730453             -10.1511
       240        2.0000           -0.3685893             -10.0298
       241        1.9999           -0.3674632              -9.9992
       242        1.9996           -0.3660134              -9.9597
       243        1.9973           -0.3640850              -9.9073 (HOMO)
       244        0.0032           -0.3516910              -9.5700 (LUMO)
       245        0.0000           -0.3468112              -9.4372
       246                         -0.3336870              -9.0801
       247                         -0.3277912              -8.9197
       248                         -0.2976486              -8.0994
       ...                                ...                  ...
       510                          1.0627670              28.9194
      -------------------------------------------------------------
                  HL-Gap            0.0123941 Eh            0.3373 eV
             Fermi-level           -0.3578165 Eh           -9.7367 eV

 SCC (total)                   0 d,  0 h,  0 min,  0.652 sec
 SCC setup                      ...        0 min,  0.001 sec (  0.179%)
 Dispersion                     ...        0 min,  0.008 sec (  1.218%)
 classical contributions        ...        0 min,  0.000 sec (  0.038%)
 integral evaluation            ...        0 min,  0.032 sec (  4.958%)
 iterations                     ...        0 min,  0.528 sec ( 80.899%)
 molecular gradient             ...        0 min,  0.081 sec ( 12.342%)
 printout                       ...        0 min,  0.002 sec (  0.350%)

         :::::::::::::::::::::::::::::::::::::::::::::::::::::
         ::                     SUMMARY                     ::
         :::::::::::::::::::::::::::::::::::::::::::::::::::::
         :: total energy            -263.066340748211 Eh    ::
         :: gradient norm              0.296735762753 Eh/a0 ::
         :: HOMO-LUMO gap              0.337259630480 eV    ::
         ::.................................................::
         :: SCC energy              -266.866855765887 Eh    ::
         :: -> isotropic ES            0.119044835925 Eh    ::
         :: -> anisotropic ES          0.016802514627 Eh    ::
         :: -> anisotropic XC          0.189179713002 Eh    ::
         :: -> dispersion             -0.260337657488 Eh    ::
         :: repulsion energy           3.790508346499 Eh    ::
         :: add. restraining           0.000000000000 Eh    ::
         :: total charge               0.000000000000 e     ::
         :::::::::::::::::::::::::::::::::::::::::::::::::::::

      ----------------------------------------------------------- 
     |                   =====================                   |
     |                        A N C O P T                        |
     |                   =====================                   |
     |               Approximate Normal Coordinate               |
     |                Rational Function Optimizer                |
      ----------------------------------------------------------- 

          ...................................................
          :                      SETUP                      :
          :.................................................:
          :   optimization level            normal          :
          :   max. optcycles                   459          :
          :   ANC micro-cycles                  20          :
          :   degrees of freedom               453          :
          :.................................................:
          :   RF solver                   davidson          :
          :   write xtbopt.log                true          :
          :   linear?                        false          :
          :   energy convergence         0.5000000E-05 Eh   :
          :   grad. convergence          0.1000000E-02 Eh/α :
          :   maximium RF displ.         1.0000000          :
          :   Hlow (freq-cutoff)         0.1000000E-01      :
          :   Hmax (freq-cutoff)         5.0000000          :
          :   S6 in model hess.         20.0000000          :
          ...................................................

generating ANC from model Hessian ...
Using Lindh-Hessian (1995)
 Shifting diagonal of input Hessian by   1.001618642469608E-002
 Lowest  eigenvalues of input Hessian
    0.010000    0.000000    0.000000    0.000000    0.000000    0.000000
    0.000000    0.010021    0.010030    0.010039    0.010047    0.010065
    0.010075    0.010090    0.010101    0.010145    0.010158    0.010205
 Highest eigenvalues
    2.120031    2.140572    2.487171    2.492095    2.546400    2.548351
 

........................................................................
.............................. CYCLE    1 ..............................
........................................................................
   1   -266.8668558 -0.266867E+03  0.413E-04    0.34       0.0  T
   2   -266.8668558  0.463876E-08  0.398E-04    0.34      20.3  T
   3   -266.8668558 -0.154136E-07  0.258E-04    0.34      31.3  T
     SCC iter.                  ...        0 min,  0.091 sec
     gradient                   ...        0 min,  0.079 sec
 * total energy  :  -263.0663408 Eh     change       -0.2741598E-07 Eh
   gradient norm :     0.2967360 Eh/α   predicted     0.0000000E+00 (-100.00%)
   displ. norm   :     0.4825692 α      lambda       -0.9845698E-01
   maximum displ.:     0.0919974 α      in ANC's #159, #74, #249, ...

........................................................................
.............................. CYCLE    2 ..............................
........................................................................
   1   -267.0773130 -0.267077E+03  0.280E-01    0.36       0.0  T
   2   -267.0786391 -0.132613E-02  0.173E-01    0.44       1.0  T
   3   -267.0784616  0.177530E-03  0.105E-01    0.39       1.0  T
   4   -267.0791667 -0.705129E-03  0.409E-02    0.42       1.0  T
   5   -267.0793644 -0.197686E-03  0.173E-02    0.42       1.0  T
   6   -267.0793857 -0.212813E-04  0.947E-03    0.42       1.0  T
   7   -267.0793912 -0.545579E-05  0.609E-03    0.42       1.3  T
   8   -267.0793930 -0.187549E-05  0.407E-03    0.42       2.0  T
   9   -267.0793935 -0.421899E-06  0.282E-03    0.42       2.9  T
  10   -267.0793938 -0.364880E-06  0.163E-03    0.42       5.0  T
  11   -267.0793940 -0.121196E-06  0.885E-04    0.42       9.1  T
  12   -267.0793940 -0.429705E-07  0.524E-04    0.42      15.4  T
     SCC iter.                  ...        0 min,  0.347 sec
     gradient                   ...        0 min,  0.080 sec
 * total energy  :  -263.1374976 Eh     change       -0.7115678E-01 Eh
   gradient norm :     0.1391079 Eh/α   predicted    -0.6074311E-01 ( -14.63%)
   displ. norm   :     0.4920705 α      lambda       -0.4105666E-01
   maximum displ.:     0.1412857 α      in ANC's #74, #86, #159, ...

........................................................................
.............................. CYCLE    3 ..............................
........................................................................
   1   -267.1932553 -0.267193E+03  0.245E-01    0.40       0.0  T
   2   -267.1942667 -0.101143E-02  0.148E-01    0.50       1.0  T
   3   -267.1942192  0.475058E-04  0.953E-02    0.44       1.0  T
   4   -267.1948638 -0.644652E-03  0.384E-02    0.49       1.0  T
   5   -267.1950274 -0.163553E-03  0.181E-02    0.48       1.0  T
   6   -267.1950559 -0.285157E-04  0.963E-03    0.48       1.0  T
   7   -267.1950628 -0.686319E-05  0.593E-03    0.48       1.4  T
   8   -267.1950642 -0.141679E-05  0.397E-03    0.48       2.0  T
   9   -267.1950646 -0.429693E-06  0.280E-03    0.48       2.9  T
  10   -267.1950650 -0.391367E-06  0.151E-03    0.48       5.4  T
  11   -267.1950651 -0.106485E-06  0.868E-04    0.48       9.3  T
  12   -267.1950652 -0.423026E-07  0.515E-04    0.48      15.7  T
     SCC iter.                  ...        0 min,  0.334 sec
     gradient                   ...        0 min,  0.079 sec
 * total energy  :  -263.1628449 Eh     change       -0.2534733E-01 Eh
   gradient norm :     0.0437255 Eh/α   predicted    -0.2549896E-01 (   0.60%)
   displ. norm   :     0.5698920 α      lambda       -0.1334827E-01
   maximum displ.:     0.2262612 α      in ANC's #74, #37, #89, ...

........................................................................
.............................. CYCLE    4 ..............................
........................................................................
   1   -267.2217732 -0.267222E+03  0.247E-01    0.47       0.0  T
   2   -267.2219402 -0.166971E-03  0.142E-01    0.53       1.0  T
   3   -267.2206270  0.131314E-02  0.914E-02    0.46       1.0  T
   4   -267.2221354 -0.150836E-02  0.212E-02    0.52       1.0  T
   5   -267.2221921 -0.566887E-04  0.108E-02    0.52       1.0  T
   6   -267.2222028 -0.107831E-04  0.493E-03    0.52       1.6  T
   7   -267.2222042 -0.132783E-05  0.295E-03    0.52       2.7  T
   8   -267.2222046 -0.412819E-06  0.199E-03    0.51       4.1  T
   9   -267.2222047 -0.138993E-06  0.145E-03    0.52       5.6  T
  10   -267.2222048 -0.109893E-06  0.841E-04    0.51       9.6  T
  11   -267.2222049 -0.369199E-07  0.532E-04    0.51      15.2  T
     SCC iter.                  ...        0 min,  0.299 sec
     gradient                   ...        0 min,  0.079 sec
 * total energy  :  -263.1682042 Eh     change       -0.5359270E-02 Eh
   gradient norm :     0.0395533 Eh/α   predicted    -0.8841747E-02 (  64.98%)
   displ. norm   :     0.5914002 α      lambda       -0.1220281E-01
   maximum displ.:     0.2179534 α      in ANC's #74, #52, #86, ...

........................................................................
.............................. CYCLE    5 ..............................
........................................................................
   1   -267.2455574 -0.267246E+03  0.297E-01    0.51       0.0  T
   2   -267.2457466 -0.189200E-03  0.166E-01    0.55       1.0  T
   3   -267.2446943  0.105226E-02  0.816E-02    0.49       1.0  T
   4   -267.2459009 -0.120658E-02  0.144E-02    0.54       1.0  T
   5   -267.2459197 -0.188345E-04  0.863E-03    0.53       1.0  T
   6   -267.2459265 -0.672663E-05  0.391E-03    0.54       2.1  T
   7   -267.2459277 -0.118127E-05  0.209E-03    0.53       3.9  T
   8   -267.2459279 -0.278194E-06  0.140E-03    0.53       5.8  T
   9   -267.2459280 -0.591417E-07  0.995E-04    0.53       8.1  T
  10   -267.2459280 -0.459593E-07  0.632E-04    0.53      12.8  T
     SCC iter.                  ...        0 min,  0.288 sec
     gradient                   ...        0 min,  0.079 sec
 * total energy  :  -263.1741435 Eh     change       -0.5939294E-02 Eh
   gradient norm :     0.0299388 Eh/α   predicted    -0.8235401E-02 (  38.66%)
   displ. norm   :     0.4196757 α      lambda       -0.3926405E-02
   maximum displ.:     0.1322920 α      in ANC's #37, #74, #45, ...

........................................................................
.............................. CYCLE    6 ..............................
........................................................................
   1   -267.2487110 -0.267249E+03  0.101E-01    0.53       0.0  T
   2   -267.2487299 -0.189305E-04  0.564E-02    0.54       1.0  T
   3   -267.2485752  0.154717E-03  0.310E-02    0.52       1.0  T
   4   -267.2487470 -0.171738E-03  0.756E-03    0.53       1.1  T
   5   -267.2487510 -0.403638E-05  0.393E-03    0.53       2.1  T
   6   -267.2487521 -0.113692E-05  0.163E-03    0.53       5.0  T
   7   -267.2487524 -0.283927E-06  0.920E-04    0.53       8.8  T
   8   -267.2487525 -0.440506E-07  0.643E-04    0.53      12.6  T
     SCC iter.                  ...        0 min,  0.226 sec
     gradient                   ...        0 min,  0.079 sec
 * total energy  :  -263.1772508 Eh     change       -0.3107363E-02 Eh
   gradient norm :     0.0181671 Eh/α   predicted    -0.2308977E-02 ( -25.69%)
   displ. norm   :     0.7521844 α      lambda       -0.5854838E-02
   maximum displ.:     0.2579812 α      in ANC's #37, #47, #50, ...

........................................................................
.............................. CYCLE    7 ..............................
........................................................................
   1   -267.2452616 -0.267245E+03  0.254E-01    0.51       0.0  T
   2   -267.2453903 -0.128706E-03  0.140E-01    0.52       1.0  T
   3   -267.2448076  0.582678E-03  0.620E-02    0.50       1.0  T
   4   -267.2454715 -0.663845E-03  0.137E-02    0.52       1.0  T
   5   -267.2454841 -0.126426E-04  0.717E-03    0.51       1.1  T
   6   -267.2454882 -0.408441E-05  0.312E-03    0.52       2.6  T
   7   -267.2454892 -0.964262E-06  0.175E-03    0.52       4.6  T
   8   -267.2454893 -0.150079E-06  0.118E-03    0.52       6.9  T
   9   -267.2454894 -0.423483E-07  0.838E-04    0.52       9.6  T
  10   -267.2454894 -0.211016E-07  0.586E-04    0.52      13.8  T
     SCC iter.                  ...        0 min,  0.272 sec
     gradient                   ...        0 min,  0.079 sec
 * total energy  :  -263.1789175 Eh     change       -0.1666664E-02 Eh
   gradient norm :     0.0460651 Eh/α   predicted    -0.4583701E-02 ( 175.02%)
   displ. norm   :     0.4658712 α      lambda       -0.5908255E-02
   maximum displ.:     0.1463215 α      in ANC's #37, #11, #45, ...

........................................................................
.............................. CYCLE    8 ..............................
........................................................................
   1   -267.2597843 -0.267260E+03  0.180E-01    0.52       0.0  T
   2   -267.2598543 -0.699428E-04  0.990E-02    0.54       1.0  T
   3   -267.2597111  0.143178E-03  0.305E-02    0.51       1.0  T
   4   -267.2598828 -0.171668E-03  0.846E-03    0.53       1.0  T
   5   -267.2598879 -0.517483E-05  0.453E-03    0.53       1.8  T
   6   -267.2598897 -0.173581E-05  0.196E-03    0.53       4.1  T
   7   -267.2598902 -0.485614E-06  0.818E-04    0.53       9.9  T
   8   -267.2598902 -0.529658E-07  0.462E-04    0.53      17.5  T
     SCC iter.                  ...        0 min,  0.260 sec
     gradient                   ...        0 min,  0.080 sec
 * total energy  :  -263.1824806 Eh     change       -0.3563091E-02 Eh
   gradient norm :     0.0200434 Eh/α   predicted    -0.3595280E-02 (   0.90%)
   displ. norm   :     0.5798794 α      lambda       -0.2865241E-02
   maximum displ.:     0.1890182 α      in ANC's #37, #15, #47, ...

........................................................................
.............................. CYCLE    9 ..............................
........................................................................
   1   -267.2593239 -0.267259E+03  0.132E-01    0.52       0.0  T
   2   -267.2593586 -0.346841E-04  0.714E-02    0.54       1.0  T
   3   -267.2591550  0.203552E-03  0.351E-02    0.51       1.0  T
   4   -267.2593812 -0.226220E-03  0.965E-03    0.54       1.0  T
   5   -267.2593875 -0.622584E-05  0.541E-03    0.53       1.5  T
   6   -267.2593902 -0.274536E-05  0.192E-03    0.53       4.2  T
   7   -267.2593906 -0.434896E-06  0.845E-04    0.53       9.6  T
   8   -267.2593907 -0.497095E-07  0.524E-04    0.53      15.4  T
     SCC iter.                  ...        0 min,  0.230 sec
     gradient                   ...        0 min,  0.079 sec
 * total energy  :  -263.1846492 Eh     change       -0.2168655E-02 Eh
   gradient norm :     0.0235918 Eh/α   predicted    -0.1914357E-02 ( -11.73%)
   displ. norm   :     0.7498065 α      lambda       -0.3992521E-02
   maximum displ.:     0.2465606 α      in ANC's #37, #47, #11, ...

........................................................................
.............................. CYCLE   10 ..............................
........................................................................
   1   -267.2687233 -0.267269E+03  0.189E-01    0.53       0.0  T
   2   -267.2687954 -0.720470E-04  0.103E-01    0.54       1.0  T
   3   -267.2686197  0.175621E-03  0.366E-02    0.52       1.0  T
   4   -267.2688217 -0.201955E-03  0.120E-02    0.54       1.0  T
   5   -267.2688308 -0.913098E-05  0.678E-03    0.53       1.2  T
   6   -267.2688357 -0.485711E-05  0.258E-03    0.54       3.1  T
   7   -267.2688365 -0.803552E-06  0.119E-03    0.54       6.8  T
   8   -267.2688366 -0.661456E-07  0.811E-04    0.54      10.0  T
   9   -267.2688366 -0.191154E-07  0.534E-04    0.54      15.1  T
     SCC iter.                  ...        0 min,  0.257 sec
     gradient                   ...        0 min,  0.079 sec
 * total energy  :  -263.1870623 Eh     change       -0.2413059E-02 Eh
   gradient norm :     0.0194834 Eh/α   predicted    -0.3118579E-02 (  29.24%)
   displ. norm   :     0.6555165 α      lambda       -0.3397475E-02
   maximum displ.:     0.2259008 α      in ANC's #37, #15, #47, ...

........................................................................
.............................. CYCLE   11 ..............................
........................................................................
   1   -267.2731656 -0.267273E+03  0.160E-01    0.53       0.0  T
   2   -267.2732151 -0.495205E-04  0.871E-02    0.53       1.0  T
   3   -267.2730950  0.120172E-03  0.301E-02    0.52       1.0  T
   4   -267.2732324 -0.137479E-03  0.980E-03    0.53       1.0  T
   5   -267.2732382 -0.576491E-05  0.546E-03    0.53       1.5  T
   6   -267.2732418 -0.356854E-05  0.185E-03    0.53       4.4  T
   7   -267.2732422 -0.412074E-06  0.861E-04    0.53       9.4  T
   8   -267.2732422 -0.540174E-07  0.543E-04    0.53      14.9  T
     SCC iter.                  ...        0 min,  0.227 sec
     gradient                   ...        0 min,  0.079 sec
 * total energy  :  -263.1897155 Eh     change       -0.2653186E-02 Eh
   gradient norm :     0.0170921 Eh/α   predicted    -0.2428699E-02 (  -8.46%)
   displ. norm   :     0.7372492 α      lambda       -0.3401577E-02
   maximum displ.:     0.2197232 α      in ANC's #37, #16, #21, ...

........................................................................
.............................. CYCLE   12 ..............................
........................................................................
   1   -267.2743672 -0.267274E+03  0.204E-01    0.51       0.0  T
   2   -267.2744487 -0.815457E-04  0.112E-01    0.51       1.0  T
   3   -267.2741477  0.301025E-03  0.468E-02    0.50       1.0  T
   4   -267.2744911 -0.343410E-03  0.113E-02    0.51       1.0  T
   5   -267.2744974 -0.631462E-05  0.724E-03    0.51       1.1  T
   6   -267.2745048 -0.737714E-05  0.222E-03    0.51       3.6  T
   7   -267.2745052 -0.425218E-06  0.116E-03    0.51       6.9  T
   8   -267.2745053 -0.937149E-07  0.750E-04    0.51      10.8  T
   9   -267.2745053 -0.277787E-07  0.509E-04    0.51      15.9  T
     SCC iter.                  ...        0 min,  0.255 sec
     gradient                   ...        0 min,  0.079 sec
 * total energy  :  -263.1910499 Eh     change       -0.1334447E-02 Eh
   gradient norm :     0.0315393 Eh/α   predicted    -0.2625231E-02 (  96.73%)
   displ. norm   :     0.5730434 α      lambda       -0.3555085E-02
   maximum displ.:     0.1775631 α      in ANC's #15, #37, #11, ...

........................................................................
.............................. CYCLE   13 ..............................
........................................................................
   1   -267.2682367 -0.267268E+03  0.170E-01    0.50       0.0  T
   2   -267.2682938 -0.570584E-04  0.932E-02    0.50       1.0  T
   3   -267.2682276  0.661510E-04  0.250E-02    0.50       1.0  T
   4   -267.2683145 -0.868715E-04  0.815E-03    0.50       1.0  T
   5   -267.2683175 -0.301017E-05  0.449E-03    0.50       1.8  T
   6   -267.2683201 -0.255857E-05  0.156E-03    0.50       5.2  T
   7   -267.2683203 -0.259060E-06  0.764E-04    0.50      10.6  T
   8   -267.2683203 -0.272691E-07  0.510E-04    0.50      15.9  T
     SCC iter.                  ...        0 min,  0.229 sec
     gradient                   ...        0 min,  0.079 sec
 * total energy  :  -263.1935211 Eh     change       -0.2471215E-02 Eh
   gradient norm :     0.0151175 Eh/α   predicted    -0.2361250E-02 (  -4.45%)
   displ. norm   :     0.6865568 α      lambda       -0.2216383E-02
   maximum displ.:     0.2032787 α      in ANC's #37, #11, #39, ...

........................................................................
.............................. CYCLE   14 ..............................
........................................................................
   1   -267.2739406 -0.267274E+03  0.119E-01    0.49       0.0  T
   2   -267.2739652 -0.245905E-04  0.647E-02    0.49       1.0  T
   3   -267.2738924  0.728232E-04  0.237E-02    0.48       1.0  T
   4   -267.2739700 -0.775846E-04  0.898E-03    0.49       1.0  T
   5   -267.2739754 -0.537071E-05  0.497E-03    0.49       1.6  T
   6   -267.2739785 -0.316983E-05  0.156E-03    0.49       5.2  T
   7   -267.2739788 -0.260234E-06  0.751E-04    0.49      10.8  T
   8   -267.2739788 -0.378379E-07  0.486E-04    0.49      16.6  T
     SCC iter.                  ...        0 min,  0.227 sec
     gradient                   ...        0 min,  0.079 sec
 * total energy  :  -263.1954349 Eh     change       -0.1913756E-02 Eh
   gradient norm :     0.0136610 Eh/α   predicted    -0.1630550E-02 ( -14.80%)
   displ. norm   :     0.7978040 α      lambda       -0.2540540E-02
   maximum displ.:     0.2148848 α      in ANC's #16, #11, #21, ...

........................................................................
.............................. CYCLE   15 ..............................
........................................................................
   1   -267.2842264 -0.267284E+03  0.130E-01    0.47       0.0  T
   2   -267.2842558 -0.293273E-04  0.693E-02    0.47       1.0  T
   3   -267.2841989  0.568435E-04  0.224E-02    0.47       1.0  T
   4   -267.2842565 -0.575531E-04  0.106E-02    0.47       1.0  T
   5   -267.2842648 -0.830590E-05  0.484E-03    0.47       1.7  T
   6   -267.2842677 -0.292118E-05  0.190E-03    0.47       4.3  T
   7   -267.2842682 -0.518604E-06  0.794E-04    0.47      10.2  T
   8   -267.2842683 -0.474681E-07  0.509E-04    0.47      15.9  T
     SCC iter.                  ...        0 min,  0.223 sec
     gradient                   ...        0 min,  0.079 sec
 * total energy  :  -263.1976539 Eh     change       -0.2219023E-02 Eh
   gradient norm :     0.0127022 Eh/α   predicted    -0.2078788E-02 (  -6.32%)
   displ. norm   :     0.8197105 α      lambda       -0.2612302E-02
   maximum displ.:     0.2351006 α      in ANC's #16, #39, #11, ...

........................................................................
.............................. CYCLE   16 ..............................
........................................................................
   1   -267.2985801 -0.267299E+03  0.129E-01    0.46       0.0  T
   2   -267.2986097 -0.296149E-04  0.703E-02    0.45       1.0  T
   3   -267.2985224  0.873270E-04  0.254E-02    0.45       1.0  T
   4   -267.2986164 -0.939646E-04  0.980E-03    0.45       1.0  T
   5   -267.2986242 -0.781856E-05  0.407E-03    0.45       2.0  T
   6   -267.2986253 -0.108201E-05  0.188E-03    0.45       4.3  T
   7   -267.2986257 -0.432524E-06  0.807E-04    0.45      10.0  T
   8   -267.2986258 -0.568949E-07  0.477E-04    0.45      17.0  T
     SCC iter.                  ...        0 min,  0.225 sec
     gradient                   ...        0 min,  0.079 sec
 * total energy  :  -263.1997212 Eh     change       -0.2067304E-02 Eh
   gradient norm :     0.0167808 Eh/α   predicted    -0.2183802E-02 (   5.64%)
   displ. norm   :     0.8473600 α      lambda       -0.2635115E-02
   maximum displ.:     0.2436128 α      in ANC's #16, #11, #39, ...

........................................................................
.............................. CYCLE   17 ..............................
........................................................................
   1   -267.2814639 -0.267281E+03  0.146E-01    0.43       0.0  T
   2   -267.2815005 -0.366015E-04  0.780E-02    0.43       1.0  T
   3   -267.2813956  0.104872E-03  0.287E-02    0.43       1.0  T
   4   -267.2815080 -0.112360E-03  0.115E-02    0.43       1.0  T
   5   -267.2815168 -0.881265E-05  0.505E-03    0.43       1.6  T
   6   -267.2815193 -0.253772E-05  0.211E-03    0.43       3.8  T
   7   -267.2815199 -0.608381E-06  0.784E-04    0.43      10.3  T
   8   -267.2815200 -0.380912E-07  0.483E-04    0.43      16.7  T
     SCC iter.                  ...        0 min,  0.227 sec
     gradient                   ...        0 min,  0.079 sec
 * total energy  :  -263.2017187 Eh     change       -0.1997513E-02 Eh
   gradient norm :     0.0191869 Eh/α   predicted    -0.2263605E-02 (  13.32%)
   displ. norm   :     0.7628054 α      lambda       -0.2202251E-02
   maximum displ.:     0.2203612 α      in ANC's #16, #11, #15, ...

........................................................................
.............................. CYCLE   18 ..............................
........................................................................
   1   -267.2813471 -0.267281E+03  0.131E-01    0.42       0.0  T
   2   -267.2813779 -0.307273E-04  0.714E-02    0.42       1.0  T
   3   -267.2812499  0.127951E-03  0.303E-02    0.41       1.0  T
   4   -267.2813947 -0.144822E-03  0.881E-03    0.42       1.0  T
   5   -267.2813984 -0.362884E-05  0.412E-03    0.41       2.0  T
   6   -267.2813998 -0.138182E-05  0.167E-03    0.42       4.8  T
   7   -267.2814000 -0.290708E-06  0.714E-04    0.42      11.3  T
   8   -267.2814001 -0.277935E-07  0.474E-04    0.42      17.0  T
     SCC iter.                  ...        0 min,  0.244 sec
     gradient                   ...        0 min,  0.080 sec
 * total energy  :  -263.2034101 Eh     change       -0.1691369E-02 Eh
   gradient norm :     0.0177499 Eh/α   predicted    -0.1741837E-02 (   2.98%)
   displ. norm   :     0.7637258 α      lambda       -0.2294626E-02
   maximum displ.:     0.2433147 α      in ANC's #16, #11, #13, ...

........................................................................
.............................. CYCLE   19 ..............................
........................................................................
   1   -267.2823964 -0.267282E+03  0.116E-01    0.41       0.0  T
   2   -267.2824218 -0.253872E-04  0.635E-02    0.41       1.0  T
   3   -267.2822666  0.155272E-03  0.329E-02    0.40       1.0  T
   4   -267.2824401 -0.173593E-03  0.885E-03    0.41       1.0  T
   5   -267.2824446 -0.442681E-05  0.440E-03    0.40       1.8  T
   6   -267.2824458 -0.127757E-05  0.208E-03    0.41       3.9  T
   7   -267.2824464 -0.557074E-06  0.841E-04    0.41       9.6  T
   8   -267.2824465 -0.695144E-07  0.526E-04    0.41      15.4  T
     SCC iter.                  ...        0 min,  0.229 sec
     gradient                   ...        0 min,  0.079 sec
 * total energy  :  -263.2051132 Eh     change       -0.1703143E-02 Eh
   gradient norm :     0.0190458 Eh/α   predicted    -0.1816513E-02 (   6.66%)
   displ. norm   :     0.7238780 α      lambda       -0.2281540E-02
   maximum displ.:     0.2654729 α      in ANC's #16, #1, #11, ...

........................................................................
.............................. CYCLE   20 ..............................
........................................................................
   1   -267.3032334 -0.267303E+03  0.129E-01    0.41       0.0  T
   2   -267.3032657 -0.322688E-04  0.716E-02    0.41       1.0  T
   3   -267.3030758  0.189909E-03  0.372E-02    0.40       1.0  T
   4   -267.3032930 -0.217217E-03  0.805E-03    0.41       1.0  T
   5   -267.3032949 -0.192809E-05  0.463E-03    0.40       1.7  T
   6   -267.3032971 -0.220015E-05  0.183E-03    0.41       4.4  T
   7   -267.3032975 -0.351052E-06  0.761E-04    0.40      10.6  T
   8   -267.3032975 -0.451155E-07  0.467E-04    0.40      17.3  T
     SCC iter.                  ...        0 min,  0.231 sec
     gradient                   ...        0 min,  0.079 sec
 * total energy  :  -263.2065611 Eh     change       -0.1447814E-02 Eh
   gradient norm :     0.0276602 Eh/α   predicted    -0.1738546E-02 (  20.08%)
   displ. norm   :     0.7683500 α      lambda       -0.2077616E-02
   maximum displ.:     0.2275227 α      in ANC's #15, #16, #11, ...
 * RMSD in coord.:     0.8509422 α      energy gain  -0.1402203E+00 Eh

generating ANC from model Hessian ...
Using Lindh-Hessian (1995)
 Shifting diagonal of input Hessian by   1.002948849133137E-002
 Lowest  eigenvalues of input Hessian
    0.010000    0.010015    0.010027    0.000000    0.000000    0.000000
    0.000000    0.000000    0.000000    0.010037    0.010049    0.010067
    0.010081    0.010103    0.010118    0.010134    0.010138    0.010177
 Highest eigenvalues
    2.277291    2.279363    2.599240    2.601780    2.652237    2.662677
 

........................................................................
.............................. CYCLE   21 ..............................
........................................................................
   1   -267.2851140 -0.267285E+03  0.128E-01    0.39       0.0  T
   2   -267.2851428 -0.288161E-04  0.703E-02    0.39       1.0  T
   3   -267.2850012  0.141650E-03  0.315E-02    0.38       1.0  T
   4   -267.2851561 -0.154972E-03  0.930E-03    0.39       1.0  T
   5   -267.2851618 -0.564192E-05  0.472E-03    0.39       1.7  T
   6   -267.2851639 -0.217163E-05  0.177E-03    0.39       4.6  T
   7   -267.2851643 -0.379225E-06  0.718E-04    0.39      11.3  T
   8   -267.2851644 -0.453530E-07  0.419E-04    0.39      19.3  T
     SCC iter.                  ...        0 min,  0.227 sec
     gradient                   ...        0 min,  0.079 sec
 * total energy  :  -263.2081975 Eh     change       -0.1636443E-02 Eh
   gradient norm :     0.0162553 Eh/α   predicted     0.0000000E+00 (-100.00%)
   displ. norm   :     0.2144062 α      lambda       -0.9357994E-03
   maximum displ.:     0.0629030 α      in ANC's #7, #15, #25, ...

........................................................................
.............................. CYCLE   22 ..............................
........................................................................
   1   -267.2960673 -0.267296E+03  0.574E-02    0.39       0.0  T
   2   -267.2960725 -0.529521E-05  0.322E-02    0.39       1.0  T
   3   -267.2960515  0.210905E-04  0.127E-02    0.39       1.0  T
   4   -267.2960752 -0.237739E-04  0.325E-03    0.39       2.5  T
   5   -267.2960758 -0.568014E-06  0.216E-03    0.39       3.7  T
   6   -267.2960763 -0.542134E-06  0.776E-04    0.39      10.4  T
   7   -267.2960764 -0.522124E-07  0.421E-04    0.39      19.2  T
     SCC iter.                  ...        0 min,  0.200 sec
     gradient                   ...        0 min,  0.079 sec
 * total energy  :  -263.2088834 Eh     change       -0.6859386E-03 Eh
   gradient norm :     0.0069447 Eh/α   predicted    -0.4894613E-03 ( -28.64%)
   displ. norm   :     0.6109873 α      lambda       -0.2057022E-02
   maximum displ.:     0.1787515 α      in ANC's #25, #15, #7, ...

........................................................................
.............................. CYCLE   23 ..............................
........................................................................
   1   -267.3152518 -0.267315E+03  0.173E-01    0.39       0.0  T
   2   -267.3153021 -0.503288E-04  0.963E-02    0.39       1.0  T
   3   -267.3151683  0.133859E-03  0.321E-02    0.39       1.0  T
   4   -267.3153247 -0.156471E-03  0.845E-03    0.39       1.0  T
   5   -267.3153277 -0.292054E-05  0.581E-03    0.39       1.4  T
   6   -267.3153320 -0.433817E-05  0.195E-03    0.39       4.1  T
   7   -267.3153323 -0.339734E-06  0.102E-03    0.39       7.9  T
   8   -267.3153324 -0.417122E-07  0.724E-04    0.39      11.2  T
   9   -267.3153324 -0.172673E-07  0.529E-04    0.39      15.3  T
     SCC iter.                  ...        0 min,  0.261 sec
     gradient                   ...        0 min,  0.079 sec
 * total energy  :  -263.2092333 Eh     change       -0.3498920E-03 Eh
   gradient norm :     0.0299500 Eh/α   predicted    -0.1412460E-02 ( 303.68%)
   displ. norm   :     0.3074455 α      lambda       -0.2013903E-02
   maximum displ.:     0.0961712 α      in ANC's #25, #7, #15, ...

........................................................................
.............................. CYCLE   24 ..............................
........................................................................
   1   -267.3121831 -0.267312E+03  0.100E-01    0.38       0.0  T
   2   -267.3122000 -0.168785E-04  0.557E-02    0.38       1.0  T
   3   -267.3121792  0.208009E-04  0.131E-02    0.38       1.0  T
   4   -267.3122061 -0.269272E-04  0.377E-03    0.38       2.1  T
   5   -267.3122070 -0.894762E-06  0.221E-03    0.38       3.7  T
   6   -267.3122075 -0.521908E-06  0.997E-04    0.38       8.1  T
   7   -267.3122076 -0.107745E-06  0.441E-04    0.38      18.3  T
     SCC iter.                  ...        0 min,  0.203 sec
     gradient                   ...        0 min,  0.079 sec
 * total energy  :  -263.2106579 Eh     change       -0.1424591E-02 Eh
   gradient norm :     0.0188385 Eh/α   predicted    -0.1102141E-02 ( -22.63%)
   displ. norm   :     0.5453059 α      lambda       -0.1583679E-02
   maximum displ.:     0.1846104 α      in ANC's #25, #7, #15, ...

........................................................................
.............................. CYCLE   25 ..............................
........................................................................
   1   -267.2991801 -0.267299E+03  0.118E-01    0.37       0.0  T
   2   -267.2992035 -0.234155E-04  0.660E-02    0.37       1.0  T
   3   -267.2991444  0.590848E-04  0.205E-02    0.36       1.0  T
   4   -267.2992100 -0.656161E-04  0.651E-03    0.37       1.2  T
   5   -267.2992143 -0.425241E-05  0.313E-03    0.37       2.6  T
   6   -267.2992152 -0.909593E-06  0.136E-03    0.37       5.9  T
   7   -267.2992154 -0.193116E-06  0.616E-04    0.37      13.1  T
   8   -267.2992154 -0.326623E-07  0.357E-04    0.37      22.6  T
     SCC iter.                  ...        0 min,  0.237 sec
     gradient                   ...        0 min,  0.079 sec
 * total energy  :  -263.2117013 Eh     change       -0.1043390E-02 Eh
   gradient norm :     0.0120643 Eh/α   predicted    -0.1027304E-02 (  -1.54%)
   displ. norm   :     0.6823930 α      lambda       -0.1999559E-02
   maximum displ.:     0.2374629 α      in ANC's #25, #7, #15, ...

........................................................................
.............................. CYCLE   26 ..............................
........................................................................
   1   -267.2832205 -0.267283E+03  0.160E-01    0.35       0.0  T
   2   -267.2832649 -0.444076E-04  0.892E-02    0.35       1.0  T
   3   -267.2831741  0.907949E-04  0.261E-02    0.34       1.0  T
   4   -267.2832785 -0.104336E-03  0.797E-03    0.35       1.0  T
   5   -267.2832840 -0.555927E-05  0.419E-03    0.35       1.9  T
   6   -267.2832858 -0.174885E-05  0.188E-03    0.35       4.3  T
   7   -267.2832862 -0.408938E-06  0.819E-04    0.35       9.9  T
   8   -267.2832863 -0.741767E-07  0.410E-04    0.35      19.7  T
     SCC iter.                  ...        0 min,  0.233 sec
     gradient                   ...        0 min,  0.079 sec
 * total energy  :  -263.2126085 Eh     change       -0.9072214E-03 Eh
   gradient norm :     0.0234504 Eh/α   predicted    -0.1465339E-02 (  61.52%)
   displ. norm   :     0.4932576 α      lambda       -0.1667283E-02
   maximum displ.:     0.1658443 α      in ANC's #25, #7, #15, ...

........................................................................
.............................. CYCLE   27 ..............................
........................................................................
   1   -267.2880424 -0.267288E+03  0.102E-01    0.34       0.0  T
   2   -267.2880588 -0.164151E-04  0.565E-02    0.34       1.0  T
   3   -267.2880402  0.186700E-04  0.130E-02    0.34       1.0  T
   4   -267.2880631 -0.229028E-04  0.500E-03    0.34       1.6  T
   5   -267.2880649 -0.183603E-05  0.242E-03    0.34       3.3  T
   6   -267.2880655 -0.587357E-06  0.110E-03    0.34       7.3  T
   7   -267.2880656 -0.152839E-06  0.460E-04    0.34      17.6  T
   8   -267.2880656 -0.148058E-07  0.288E-04    0.34      28.1  T
     SCC iter.                  ...        0 min,  0.239 sec
     gradient                   ...        0 min,  0.079 sec
 * total energy  :  -263.2139169 Eh     change       -0.1308407E-02 Eh
   gradient norm :     0.0168402 Eh/α   predicted    -0.1036470E-02 ( -20.78%)
   displ. norm   :     0.5778333 α      lambda       -0.2159314E-02
   maximum displ.:     0.1985221 α      in ANC's #7, #25, #15, ...

........................................................................
.............................. CYCLE   28 ..............................
........................................................................
   1   -267.3052123 -0.267305E+03  0.145E-01    0.34       0.0  T
   2   -267.3052454 -0.331834E-04  0.805E-02    0.34       1.0  T
   3   -267.3051794  0.660422E-04  0.238E-02    0.33       1.0  T
   4   -267.3052601 -0.807384E-04  0.612E-03    0.34       1.3  T
   5   -267.3052608 -0.696414E-06  0.407E-03    0.34       2.0  T
   6   -267.3052629 -0.205258E-05  0.140E-03    0.34       5.8  T
   7   -267.3052631 -0.178803E-06  0.695E-04    0.34      11.6  T
   8   -267.3052631 -0.414786E-07  0.404E-04    0.34      20.0  T
     SCC iter.                  ...        0 min,  0.249 sec
     gradient                   ...        0 min,  0.079 sec
 * total energy  :  -263.2149262 Eh     change       -0.1009293E-02 Eh
   gradient norm :     0.0178715 Eh/α   predicted    -0.1440156E-02 (  42.69%)
   displ. norm   :     0.6260094 α      lambda       -0.2164242E-02
   maximum displ.:     0.2098871 α      in ANC's #7, #25, #1, ...

........................................................................
.............................. CYCLE   29 ..............................
........................................................................
   1   -267.3029211 -0.267303E+03  0.173E-01    0.32       0.0  T
   2   -267.3029756 -0.544742E-04  0.957E-02    0.33       1.0  T
   3   -267.3029105  0.650696E-04  0.231E-02    0.32       1.0  T
   4   -267.3029973 -0.867621E-04  0.671E-03    0.33       1.2  T
   5   -267.3030001 -0.281879E-05  0.322E-03    0.32       2.5  T
   6   -267.3030008 -0.698549E-06  0.163E-03    0.33       5.0  T
   7   -267.3030011 -0.288927E-06  0.743E-04    0.32      10.9  T
   8   -267.3030011 -0.389677E-07  0.462E-04    0.32      17.5  T
     SCC iter.                  ...        0 min,  0.216 sec
     gradient                   ...        0 min,  0.079 sec
 * total energy  :  -263.2160841 Eh     change       -0.1157852E-02 Eh
   gradient norm :     0.0152159 Eh/α   predicted    -0.1506194E-02 (  30.09%)
   displ. norm   :     0.6525193 α      lambda       -0.2265074E-02
   maximum displ.:     0.2431788 α      in ANC's #25, #7, #15, ...

........................................................................
.............................. CYCLE   30 ..............................
........................................................................
   1   -267.2896728 -0.267290E+03  0.144E-01    0.31       0.0  T
   2   -267.2897134 -0.405684E-04  0.801E-02    0.32       1.0  T
   3   -267.2896564  0.569270E-04  0.216E-02    0.31       1.0  T
   4   -267.2897206 -0.641279E-04  0.818E-03    0.32       1.0  T
   5   -267.2897281 -0.754402E-05  0.347E-03    0.31       2.3  T
   6   -267.2897290 -0.854264E-06  0.168E-03    0.31       4.8  T
   7   -267.2897293 -0.332259E-06  0.625E-04    0.31      12.9  T
   8   -267.2897293 -0.304050E-07  0.351E-04    0.31      23.0  T
     SCC iter.                  ...        0 min,  0.218 sec
     gradient                   ...        0 min,  0.079 sec
 * total energy  :  -263.2172887 Eh     change       -0.1204654E-02 Eh
   gradient norm :     0.0189125 Eh/α   predicted    -0.1614751E-02 (  34.04%)
   displ. norm   :     0.6131674 α      lambda       -0.1680747E-02
   maximum displ.:     0.2196283 α      in ANC's #7, #25, #15, ...

........................................................................
.............................. CYCLE   31 ..............................
........................................................................
   1   -267.2922184 -0.267292E+03  0.112E-01    0.30       0.0  T
   2   -267.2922390 -0.206445E-04  0.626E-02    0.31       1.0  T
   3   -267.2921883  0.506942E-04  0.190E-02    0.30       1.0  T
   4   -267.2922441 -0.557219E-04  0.650E-03    0.31       1.2  T
   5   -267.2922480 -0.395662E-05  0.288E-03    0.30       2.8  T
   6   -267.2922486 -0.608259E-06  0.132E-03    0.30       6.1  T
   7   -267.2922488 -0.202944E-06  0.516E-04    0.30      15.7  T
   8   -267.2922489 -0.259669E-07  0.288E-04    0.30      28.1  T
     SCC iter.                  ...        0 min,  0.223 sec
     gradient                   ...        0 min,  0.079 sec
 * total energy  :  -263.2186318 Eh     change       -0.1343046E-02 Eh
   gradient norm :     0.0168221 Eh/α   predicted    -0.1156334E-02 ( -13.90%)
   displ. norm   :     0.5903448 α      lambda       -0.2494542E-02
   maximum displ.:     0.2214059 α      in ANC's #7, #1, #15, ...

........................................................................
.............................. CYCLE   32 ..............................
........................................................................
   1   -267.3351766 -0.267335E+03  0.116E-01    0.30       0.0  T
   2   -267.3352106 -0.340503E-04  0.645E-02    0.30       1.0  T
   3   -267.3351182  0.924331E-04  0.272E-02    0.30       1.0  T
   4   -267.3352198 -0.101625E-03  0.900E-03    0.31       1.0  T
   5   -267.3352262 -0.638001E-05  0.452E-03    0.30       1.8  T
   6   -267.3352275 -0.133530E-05  0.221E-03    0.30       3.7  T
   7   -267.3352281 -0.601755E-06  0.976E-04    0.30       8.3  T
   8   -267.3352282 -0.103024E-06  0.498E-04    0.30      16.2  T
     SCC iter.                  ...        0 min,  0.224 sec
     gradient                   ...        0 min,  0.079 sec
 * total energy  :  -263.2191870 Eh     change       -0.5551851E-03 Eh
   gradient norm :     0.0272832 Eh/α   predicted    -0.1681967E-02 ( 202.96%)
   displ. norm   :     0.6187184 α      lambda       -0.2599035E-02
   maximum displ.:     0.2198438 α      in ANC's #25, #7, #15, ...

........................................................................
.............................. CYCLE   33 ..............................
........................................................................
   1   -267.3078262 -0.267308E+03  0.108E-01    0.29       0.0  T
   2   -267.3078544 -0.281748E-04  0.602E-02    0.30       1.0  T
   3   -267.3078056  0.487924E-04  0.201E-02    0.29       1.0  T
   4   -267.3078553 -0.497584E-04  0.833E-03    0.30       1.0  T
   5   -267.3078636 -0.829897E-05  0.354E-03    0.29       2.3  T
   6   -267.3078643 -0.713095E-06  0.187E-03    0.29       4.3  T
   7   -267.3078648 -0.484731E-06  0.640E-04    0.29      12.6  T
   8   -267.3078648 -0.317809E-07  0.376E-04    0.29      21.5  T
     SCC iter.                  ...        0 min,  0.225 sec
     gradient                   ...        0 min,  0.079 sec
 * total energy  :  -263.2210534 Eh     change       -0.1866394E-02 Eh
   gradient norm :     0.0089504 Eh/α   predicted    -0.1796994E-02 (  -3.72%)
   displ. norm   :     0.8701572 α      lambda       -0.1650700E-02
   maximum displ.:     0.3189295 α      in ANC's #7, #25, #15, ...

........................................................................
.............................. CYCLE   34 ..............................
........................................................................
   1   -267.2958260 -0.267296E+03  0.134E-01    0.28       0.0  T
   2   -267.2958538 -0.277620E-04  0.750E-02    0.28       1.0  T
   3   -267.2957365  0.117302E-03  0.278E-02    0.27       1.0  T
   4   -267.2958548 -0.118258E-03  0.103E-02    0.29       1.0  T
   5   -267.2958669 -0.121639E-04  0.442E-03    0.28       1.8  T
   6   -267.2958685 -0.156718E-05  0.203E-03    0.28       4.0  T
   7   -267.2958691 -0.564794E-06  0.706E-04    0.28      11.4  T
   8   -267.2958691 -0.556937E-07  0.381E-04    0.28      21.2  T
     SCC iter.                  ...        0 min,  0.229 sec
     gradient                   ...        0 min,  0.079 sec
 * total energy  :  -263.2224627 Eh     change       -0.1409311E-02 Eh
   gradient norm :     0.0122696 Eh/α   predicted    -0.1450290E-02 (   2.91%)
   displ. norm   :     0.7927260 α      lambda       -0.1539988E-02
   maximum displ.:     0.3103674 α      in ANC's #7, #25, #1, ...

........................................................................
.............................. CYCLE   35 ..............................
........................................................................
   1   -267.2969333 -0.267297E+03  0.122E-01    0.27       0.0  T
   2   -267.2969545 -0.211506E-04  0.680E-02    0.28       1.0  T
   3   -267.2968663  0.881743E-04  0.246E-02    0.27       1.0  T
   4   -267.2969565 -0.901753E-04  0.925E-03    0.28       1.0  T
   5   -267.2969650 -0.848223E-05  0.415E-03    0.27       1.9  T
   6   -267.2969664 -0.145625E-05  0.189E-03    0.28       4.3  T
   7   -267.2969670 -0.543356E-06  0.655E-04    0.28      12.3  T
   8   -267.2969670 -0.461404E-07  0.380E-04    0.28      21.3  T
     SCC iter.                  ...        0 min,  0.248 sec
     gradient                   ...        0 min,  0.079 sec
 * total energy  :  -263.2237828 Eh     change       -0.1320152E-02 Eh
   gradient norm :     0.0139841 Eh/α   predicted    -0.1253875E-02 (  -5.02%)
   displ. norm   :     0.7300422 α      lambda       -0.1776592E-02
   maximum displ.:     0.2978517 α      in ANC's #7, #25, #1, ...

........................................................................
.............................. CYCLE   36 ..............................
........................................................................
   1   -267.3122795 -0.267312E+03  0.118E-01    0.27       0.0  T
   2   -267.3123011 -0.216285E-04  0.658E-02    0.28       1.0  T
   3   -267.3122233  0.778650E-04  0.234E-02    0.27       1.0  T
   4   -267.3123040 -0.807455E-04  0.875E-03    0.28       1.0  T
   5   -267.3123107 -0.670145E-05  0.417E-03    0.27       1.9  T
   6   -267.3123125 -0.183281E-05  0.187E-03    0.27       4.3  T
   7   -267.3123131 -0.540469E-06  0.763E-04    0.27      10.6  T
   8   -267.3123131 -0.593993E-07  0.460E-04    0.27      17.6  T
     SCC iter.                  ...        0 min,  0.228 sec
     gradient                   ...        0 min,  0.079 sec
 * total energy  :  -263.2251878 Eh     change       -0.1405019E-02 Eh
   gradient norm :     0.0093533 Eh/α   predicted    -0.1361723E-02 (  -3.08%)
   displ. norm   :     0.8387027 α      lambda       -0.1601010E-02
   maximum displ.:     0.3381884 α      in ANC's #7, #1, #25, ...

........................................................................
.............................. CYCLE   37 ..............................
........................................................................
   1   -267.3096037 -0.267310E+03  0.137E-01    0.26       0.0  T
   2   -267.3096319 -0.281183E-04  0.766E-02    0.27       1.0  T
   3   -267.3095143  0.117556E-03  0.274E-02    0.25       1.0  T
   4   -267.3096308 -0.116457E-03  0.106E-02    0.27       1.0  T
   5   -267.3096441 -0.133358E-04  0.465E-03    0.27       1.7  T
   6   -267.3096462 -0.215591E-05  0.197E-03    0.27       4.1  T
   7   -267.3096468 -0.531147E-06  0.705E-04    0.27      11.5  T
   8   -267.3096468 -0.542224E-07  0.378E-04    0.27      21.4  T
     SCC iter.                  ...        0 min,  0.237 sec
     gradient                   ...        0 min,  0.079 sec
 * total energy  :  -263.2263771 Eh     change       -0.1189288E-02 Eh
   gradient norm :     0.0137627 Eh/α   predicted    -0.1363597E-02 (  14.66%)
   displ. norm   :     0.7773665 α      lambda       -0.1442588E-02
   maximum displ.:     0.3259680 α      in ANC's #7, #25, #1, ...

........................................................................
.............................. CYCLE   38 ..............................
........................................................................
   1   -267.3069134 -0.267307E+03  0.121E-01    0.26       0.0  T
   2   -267.3069334 -0.199298E-04  0.671E-02    0.27       1.0  T
   3   -267.3068281  0.105273E-03  0.254E-02    0.25       1.0  T
   4   -267.3069331 -0.105019E-03  0.959E-03    0.27       1.0  T
   5   -267.3069433 -0.101892E-04  0.446E-03    0.26       1.8  T
   6   -267.3069455 -0.223411E-05  0.181E-03    0.26       4.5  T
   7   -267.3069460 -0.462762E-06  0.624E-04    0.26      13.0  T
   8   -267.3069461 -0.442097E-07  0.333E-04    0.26      24.3  T
     SCC iter.                  ...        0 min,  0.236 sec
     gradient                   ...        0 min,  0.079 sec
 * total energy  :  -263.2275110 Eh     change       -0.1133868E-02 Eh
   gradient norm :     0.0120171 Eh/α   predicted    -0.1157175E-02 (   2.06%)
   displ. norm   :     0.7156384 α      lambda       -0.1274220E-02
   maximum displ.:     0.3267713 α      in ANC's #7, #16, #25, ...

........................................................................
.............................. CYCLE   39 ..............................
........................................................................
   1   -267.3229874 -0.267323E+03  0.111E-01    0.26       0.0  T
   2   -267.3230034 -0.159730E-04  0.617E-02    0.27       1.0  T
   3   -267.3229404  0.630576E-04  0.210E-02    0.26       1.0  T
   4   -267.3230041 -0.636977E-04  0.841E-03    0.27       1.0  T
   5   -267.3230104 -0.636390E-05  0.411E-03    0.26       2.0  T
   6   -267.3230123 -0.185756E-05  0.165E-03    0.27       4.9  T
   7   -267.3230127 -0.413154E-06  0.619E-04    0.26      13.1  T
   8   -267.3230127 -0.401340E-07  0.348E-04    0.26      23.2  T
     SCC iter.                  ...        0 min,  0.230 sec
     gradient                   ...        0 min,  0.079 sec
 * total energy  :  -263.2283795 Eh     change       -0.8684976E-03 Eh
   gradient norm :     0.0136325 Eh/α   predicted    -0.9633963E-03 (  10.93%)
   displ. norm   :     0.7975305 α      lambda       -0.1216011E-02
   maximum displ.:     0.3410783 α      in ANC's #7, #1, #25, ...

........................................................................
.............................. CYCLE   40 ..............................
........................................................................
   1   -267.3083570 -0.267308E+03  0.126E-01    0.25       0.0  T
   2   -267.3083771 -0.201077E-04  0.709E-02    0.27       1.0  T
   3   -267.3082083  0.168770E-03  0.306E-02    0.24       1.0  T
   4   -267.3083792 -0.170876E-03  0.100E-02    0.27       1.0  T
   5   -267.3083919 -0.126497E-04  0.451E-03    0.26       1.8  T
   6   -267.3083938 -0.194998E-05  0.193E-03    0.26       4.2  T
   7   -267.3083943 -0.489359E-06  0.700E-04    0.26      11.5  T
   8   -267.3083943 -0.440149E-07  0.396E-04    0.26      20.4  T
     SCC iter.                  ...        0 min,  0.232 sec
     gradient                   ...        0 min,  0.079 sec
 * total energy  :  -263.2290909 Eh     change       -0.7114042E-03 Eh
   gradient norm :     0.0140921 Eh/α   predicted    -0.9947337E-03 (  39.83%)
   displ. norm   :     0.5474814 α      lambda       -0.1318706E-02
   maximum displ.:     0.2541452 α      in ANC's #7, #1, #12, ...

........................................................................
.............................. CYCLE   41 ..............................
........................................................................
   1   -267.3193653 -0.267319E+03  0.106E-01    0.25       0.0  T
   2   -267.3193929 -0.276109E-04  0.591E-02    0.26       1.0  T
   3   -267.3193069  0.860055E-04  0.233E-02    0.24       1.0  T
   4   -267.3193901 -0.832215E-04  0.942E-03    0.26       1.0  T
   5   -267.3194045 -0.143596E-04  0.343E-03    0.25       2.4  T
   6   -267.3194051 -0.637626E-06  0.177E-03    0.26       4.6  T
   7   -267.3194055 -0.358719E-06  0.590E-04    0.26      13.7  T
   8   -267.3194055 -0.153422E-07  0.384E-04    0.26      21.1  T
     SCC iter.                  ...        0 min,  0.235 sec
     gradient                   ...        0 min,  0.079 sec
 * total energy  :  -263.2288565 Eh     change        0.2344202E-03 Eh
   gradient norm :     0.0326338 Eh/α   predicted    -0.8569758E-03 (-465.57%)
   displ. norm   :     0.3003304 α      lambda       -0.2135569E-02
   maximum displ.:     0.1246283 α      in ANC's #7, #25, #16, ...

........................................................................
.............................. CYCLE   42 ..............................
........................................................................
   1   -267.3132340 -0.267313E+03  0.635E-02    0.26       0.0  T
   2   -267.3132502 -0.161854E-04  0.343E-02    0.26       1.0  T
   3   -267.3132421  0.807084E-05  0.117E-02    0.26       1.0  T
   4   -267.3132511 -0.900353E-05  0.540E-03    0.26       1.5  T
   5   -267.3132533 -0.216693E-05  0.297E-03    0.26       2.7  T
   6   -267.3132541 -0.832199E-06  0.140E-03    0.26       5.8  T
   7   -267.3132544 -0.310973E-06  0.454E-04    0.26      17.8  T
   8   -267.3132544 -0.979281E-08  0.276E-04    0.26      29.3  T
     SCC iter.                  ...        0 min,  0.247 sec
     gradient                   ...        0 min,  0.079 sec
 * total energy  :  -263.2298618 Eh     change       -0.1005331E-02 Eh
   gradient norm :     0.0182323 Eh/α   predicted    -0.1164092E-02 (  15.79%)
   displ. norm   :     0.4084313 α      lambda       -0.9879788E-03
   maximum displ.:     0.1975387 α      in ANC's #7, #16, #25, ...
 * RMSD in coord.:     1.0091603 α      energy gain  -0.2330076E-01 Eh

generating ANC from model Hessian ...
Using Lindh-Hessian (1995)
 Shifting diagonal of input Hessian by   1.043397050875612E-002
 Lowest  eigenvalues of input Hessian
    0.010000    0.010410    0.010431    0.000000    0.000000    0.000000
    0.000000    0.000000    0.000000    0.010446    0.010457    0.010463
    0.010479    0.010489    0.010517    0.010532    0.010552    0.010605
 Highest eigenvalues
    2.274978    2.282876    2.604021    2.626005    2.666363    2.666835
 

........................................................................
.............................. CYCLE   43 ..............................
........................................................................
   1   -267.3212532 -0.267321E+03  0.883E-02    0.26       0.0  T
   2   -267.3212699 -0.166947E-04  0.495E-02    0.27       1.0  T
   3   -267.3212259  0.440273E-04  0.175E-02    0.25       1.0  T
   4   -267.3212751 -0.492197E-04  0.564E-03    0.26       1.4  T
   5   -267.3212777 -0.261555E-05  0.288E-03    0.26       2.8  T
   6   -267.3212783 -0.570105E-06  0.146E-03    0.26       5.5  T
   7   -267.3212786 -0.296138E-06  0.551E-04    0.26      14.7  T
   8   -267.3212786 -0.264225E-07  0.316E-04    0.26      25.6  T
     SCC iter.                  ...        0 min,  0.242 sec
     gradient                   ...        0 min,  0.079 sec
 * total energy  :  -263.2299011 Eh     change       -0.3929064E-04 Eh
   gradient norm :     0.0241920 Eh/α   predicted     0.0000000E+00 (-100.00%)
   displ. norm   :     0.1575984 α      lambda       -0.9746929E-03
   maximum displ.:     0.0625722 α      in ANC's #45, #23, #22, ...

........................................................................
.............................. CYCLE   44 ..............................
........................................................................
   1   -267.3165498 -0.267317E+03  0.876E-02    0.26       0.0  T
   2   -267.3165673 -0.174837E-04  0.485E-02    0.26       1.0  T
   3   -267.3165313  0.359173E-04  0.146E-02    0.25       1.0  T
   4   -267.3165742 -0.428160E-04  0.357E-03    0.26       2.3  T
   5   -267.3165756 -0.147598E-05  0.178E-03    0.26       4.6  T
   6   -267.3165759 -0.235182E-06  0.868E-04    0.26       9.3  T
   7   -267.3165760 -0.916332E-07  0.334E-04    0.26      24.2  T
     SCC iter.                  ...        0 min,  0.212 sec
     gradient                   ...        0 min,  0.079 sec
 * total energy  :  -263.2303178 Eh     change       -0.4166737E-03 Eh
   gradient norm :     0.0111402 Eh/α   predicted    -0.4995107E-03 (  19.88%)
   displ. norm   :     0.2334783 α      lambda       -0.9849455E-03
   maximum displ.:     0.0785879 α      in ANC's #46, #11, #47, ...

........................................................................
.............................. CYCLE   45 ..............................
........................................................................
   1   -267.3163178 -0.267316E+03  0.102E-01    0.26       0.0  T
   2   -267.3163379 -0.200679E-04  0.566E-02    0.26       1.0  T
   3   -267.3163261  0.118138E-04  0.107E-02    0.26       1.0  T
   4   -267.3163452 -0.191234E-04  0.381E-03    0.26       2.1  T
   5   -267.3163462 -0.101899E-05  0.194E-03    0.26       4.2  T
   6   -267.3163464 -0.177998E-06  0.110E-03    0.26       7.3  T
   7   -267.3163465 -0.176459E-06  0.411E-04    0.26      19.7  T
   8   -267.3163466 -0.837042E-08  0.263E-04    0.26      30.7  T
     SCC iter.                  ...        0 min,  0.219 sec
     gradient                   ...        0 min,  0.079 sec
 * total energy  :  -263.2302807 Eh     change        0.3706059E-04 Eh
   gradient norm :     0.0209053 Eh/α   predicted    -0.5193187E-03 (*******%)
   displ. norm   :     0.0968560 α      lambda       -0.8505343E-03
   maximum displ.:     0.0275253 α      in ANC's #45, #24, #22, ...

........................................................................
.............................. CYCLE   46 ..............................
........................................................................
   1   -267.3203332 -0.267320E+03  0.632E-02    0.26       0.0  T
   2   -267.3203418 -0.856059E-05  0.351E-02    0.26       1.0  T
   3   -267.3203290  0.128056E-04  0.958E-03    0.26       1.0  T
   4   -267.3203456 -0.166658E-04  0.202E-03    0.26       4.0  T
   5   -267.3203459 -0.238118E-06  0.104E-03    0.26       7.8  T
   6   -267.3203459 -0.143583E-07  0.708E-04    0.26      11.4  T
   7   -267.3203460 -0.100422E-06  0.232E-04    0.26      34.8  T
     SCC iter.                  ...        0 min,  0.194 sec
     gradient                   ...        0 min,  0.079 sec
 * total energy  :  -263.2307545 Eh     change       -0.4737455E-03 Eh
   gradient norm :     0.0052613 Eh/α   predicted    -0.4292570E-03 (  -9.39%)
   displ. norm   :     0.1786737 α      lambda       -0.3664067E-03
   maximum displ.:     0.0551397 α      in ANC's #11, #5, #7, ...

........................................................................
.............................. CYCLE   47 ..............................
........................................................................
   1   -267.3201398 -0.267320E+03  0.623E-02    0.26       0.0  T
   2   -267.3201471 -0.733797E-05  0.345E-02    0.26       1.0  T
   3   -267.3201269  0.202016E-04  0.105E-02    0.25       1.0  T
   4   -267.3201507 -0.238175E-04  0.241E-03    0.26       3.3  T
   5   -267.3201511 -0.402825E-06  0.145E-03    0.26       5.6  T
   6   -267.3201514 -0.243271E-06  0.538E-04    0.26      15.0  T
   7   -267.3201514 -0.359395E-07  0.210E-04    0.26      38.5  T
     SCC iter.                  ...        0 min,  0.190 sec
     gradient                   ...        0 min,  0.079 sec
 * total energy  :  -263.2309126 Eh     change       -0.1581016E-03 Eh
   gradient norm :     0.0063178 Eh/α   predicted    -0.1890523E-03 (  19.58%)
   displ. norm   :     0.3370028 α      lambda       -0.4824945E-03
   maximum displ.:     0.1114820 α      in ANC's #11, #5, #7, ...

........................................................................
.............................. CYCLE   48 ..............................
........................................................................
   1   -267.3177003 -0.267318E+03  0.730E-02    0.26       0.0  T
   2   -267.3177093 -0.906920E-05  0.402E-02    0.27       1.0  T
   3   -267.3176776  0.317003E-04  0.143E-02    0.26       1.0  T
   4   -267.3177143 -0.366773E-04  0.351E-03    0.27       2.3  T
   5   -267.3177148 -0.507168E-06  0.211E-03    0.26       3.8  T
   6   -267.3177153 -0.528304E-06  0.644E-04    0.26      12.5  T
   7   -267.3177154 -0.489005E-07  0.286E-04    0.26      28.3  T
     SCC iter.                  ...        0 min,  0.192 sec
     gradient                   ...        0 min,  0.079 sec
 * total energy  :  -263.2311769 Eh     change       -0.2643425E-03 Eh
   gradient norm :     0.0082056 Eh/α   predicted    -0.2686479E-03 (   1.63%)
   displ. norm   :     0.5090855 α      lambda       -0.7774103E-03
   maximum displ.:     0.1718496 α      in ANC's #11, #5, #7, ...

........................................................................
.............................. CYCLE   49 ..............................
........................................................................
   1   -267.3149054 -0.267315E+03  0.837E-02    0.26       0.0  T
   2   -267.3149172 -0.118166E-04  0.460E-02    0.27       1.0  T
   3   -267.3148842  0.330129E-04  0.149E-02    0.26       1.0  T
   4   -267.3149203 -0.361286E-04  0.541E-03    0.27       1.5  T
   5   -267.3149227 -0.240131E-05  0.247E-03    0.26       3.3  T
   6   -267.3149234 -0.667274E-06  0.834E-04    0.27       9.7  T
   7   -267.3149234 -0.796324E-07  0.335E-04    0.27      24.1  T
     SCC iter.                  ...        0 min,  0.192 sec
     gradient                   ...        0 min,  0.079 sec
 * total energy  :  -263.2316326 Eh     change       -0.4557399E-03 Eh
   gradient norm :     0.0120636 Eh/α   predicted    -0.4894441E-03 (   7.40%)
   displ. norm   :     0.4123625 α      lambda       -0.6116329E-03
   maximum displ.:     0.1531046 α      in ANC's #11, #5, #7, ...

........................................................................
.............................. CYCLE   50 ..............................
........................................................................
   1   -267.3179523 -0.267318E+03  0.560E-02    0.27       0.0  T
   2   -267.3179569 -0.459076E-05  0.307E-02    0.27       1.0  T
   3   -267.3179282  0.286994E-04  0.135E-02    0.26       1.0  T
   4   -267.3179587 -0.305641E-04  0.434E-03    0.27       1.9  T
   5   -267.3179601 -0.133432E-05  0.214E-03    0.27       3.8  T
   6   -267.3179605 -0.425481E-06  0.799E-04    0.27      10.1  T
   7   -267.3179606 -0.830171E-07  0.267E-04    0.27      30.2  T
     SCC iter.                  ...        0 min,  0.189 sec
     gradient                   ...        0 min,  0.079 sec
 * total energy  :  -263.2321246 Eh     change       -0.4919152E-03 Eh
   gradient norm :     0.0054105 Eh/α   predicted    -0.3578337E-03 ( -27.26%)
   displ. norm   :     0.7237722 α      lambda       -0.7367102E-03
   maximum displ.:     0.2713722 α      in ANC's #11, #5, #7, ...

........................................................................
.............................. CYCLE   51 ..............................
........................................................................
   1   -267.3171080 -0.267317E+03  0.986E-02    0.27       0.0  T
   2   -267.3171193 -0.112984E-04  0.543E-02    0.28       1.0  T
   3   -267.3170155  0.103801E-03  0.244E-02    0.26       1.0  T
   4   -267.3171272 -0.111743E-03  0.686E-03    0.27       1.2  T
   5   -267.3171299 -0.265700E-05  0.363E-03    0.27       2.2  T
   6   -267.3171314 -0.152631E-05  0.994E-04    0.27       8.1  T
   7   -267.3171315 -0.110108E-06  0.457E-04    0.27      17.7  T
   8   -267.3171315 -0.135144E-07  0.266E-04    0.27      30.4  T
     SCC iter.                  ...        0 min,  0.224 sec
     gradient                   ...        0 min,  0.079 sec
 * total energy  :  -263.2327541 Eh     change       -0.6295108E-03 Eh
   gradient norm :     0.0056027 Eh/α   predicted    -0.5613147E-03 ( -10.83%)
   displ. norm   :     0.7738793 α      lambda       -0.7233444E-03
   maximum displ.:     0.3035308 α      in ANC's #11, #5, #7, ...

........................................................................
.............................. CYCLE   52 ..............................
........................................................................
   1   -267.3177612 -0.267318E+03  0.108E-01    0.27       0.0  T
   2   -267.3177754 -0.142576E-04  0.598E-02    0.28       1.0  T
   3   -267.3176733  0.102161E-03  0.245E-02    0.26       1.0  T
   4   -267.3177832 -0.109902E-03  0.720E-03    0.28       1.1  T
   5   -267.3177867 -0.354786E-05  0.380E-03    0.27       2.1  T
   6   -267.3177883 -0.158796E-05  0.105E-03    0.27       7.7  T
   7   -267.3177884 -0.108174E-06  0.486E-04    0.27      16.6  T
   8   -267.3177884 -0.130296E-07  0.289E-04    0.27      27.9  T
     SCC iter.                  ...        0 min,  0.228 sec
     gradient                   ...        0 min,  0.079 sec
 * total energy  :  -263.2333403 Eh     change       -0.5862592E-03 Eh
   gradient norm :     0.0079744 Eh/α   predicted    -0.5782785E-03 (  -1.36%)
   displ. norm   :     0.7876362 α      lambda       -0.8278473E-03
   maximum displ.:     0.3180130 α      in ANC's #11, #5, #7, ...

........................................................................
.............................. CYCLE   53 ..............................
........................................................................
   1   -267.3221004 -0.267322E+03  0.103E-01    0.27       0.0  T
   2   -267.3221113 -0.108552E-04  0.572E-02    0.28       1.0  T
   3   -267.3219992  0.112115E-03  0.256E-02    0.26       1.0  T
   4   -267.3221195 -0.120366E-03  0.704E-03    0.28       1.1  T
   5   -267.3221227 -0.312160E-05  0.362E-03    0.28       2.2  T
   6   -267.3221239 -0.125081E-05  0.106E-03    0.28       7.6  T
   7   -267.3221240 -0.123004E-06  0.483E-04    0.28      16.7  T
   8   -267.3221240 -0.153490E-07  0.290E-04    0.28      27.8  T
     SCC iter.                  ...        0 min,  0.225 sec
     gradient                   ...        0 min,  0.079 sec
 * total energy  :  -263.2339363 Eh     change       -0.5959623E-03 Eh
   gradient norm :     0.0101215 Eh/α   predicted    -0.6707140E-03 (  12.54%)
   displ. norm   :     0.7755671 α      lambda       -0.7866116E-03
   maximum displ.:     0.3091512 α      in ANC's #11, #5, #7, ...

........................................................................
.............................. CYCLE   54 ..............................
........................................................................
   1   -267.3151144 -0.267315E+03  0.953E-02    0.28       0.0  T
   2   -267.3151270 -0.126646E-04  0.523E-02    0.29       1.0  T
   3   -267.3150568  0.702485E-04  0.215E-02    0.27       1.0  T
   4   -267.3151305 -0.737641E-04  0.761E-03    0.29       1.1  T
   5   -267.3151353 -0.477905E-05  0.351E-03    0.28       2.3  T
   6   -267.3151363 -0.968933E-06  0.132E-03    0.28       6.1  T
   7   -267.3151365 -0.225318E-06  0.449E-04    0.28      18.0  T
   8   -267.3151365 -0.750543E-08  0.307E-04    0.28      26.3  T
     SCC iter.                  ...        0 min,  0.226 sec
     gradient                   ...        0 min,  0.079 sec
 * total energy  :  -263.2344943 Eh     change       -0.5579886E-03 Eh
   gradient norm :     0.0085093 Eh/α   predicted    -0.6298819E-03 (  12.88%)
   displ. norm   :     0.5984466 α      lambda       -0.7799800E-03
   maximum displ.:     0.2651029 α      in ANC's #11, #5, #7, ...

........................................................................
.............................. CYCLE   55 ..............................
........................................................................
   1   -267.3234651 -0.267323E+03  0.792E-02    0.29       0.0  T
   2   -267.3234747 -0.954549E-05  0.439E-02    0.29       1.0  T
   3   -267.3234547  0.199464E-04  0.128E-02    0.28       1.0  T
   4   -267.3234772 -0.224608E-04  0.482E-03    0.29       1.7  T
   5   -267.3234787 -0.150571E-05  0.259E-03    0.29       3.1  T
   6   -267.3234794 -0.729239E-06  0.880E-04    0.29       9.2  T
   7   -267.3234795 -0.931378E-07  0.381E-04    0.29      21.2  T
     SCC iter.                  ...        0 min,  0.199 sec
     gradient                   ...        0 min,  0.079 sec
 * total energy  :  -263.2351012 Eh     change       -0.6069610E-03 Eh
   gradient norm :     0.0062257 Eh/α   predicted    -0.5296611E-03 ( -12.74%)
   displ. norm   :     0.8327315 α      lambda       -0.7157278E-03
   maximum displ.:     0.3598869 α      in ANC's #11, #5, #7, ...

........................................................................
.............................. CYCLE   56 ..............................
........................................................................
   1   -267.3210218 -0.267321E+03  0.966E-02    0.28       0.0  T
   2   -267.3210319 -0.100898E-04  0.536E-02    0.29       1.0  T
   3   -267.3209456  0.863358E-04  0.227E-02    0.28       1.0  T
   4   -267.3210378 -0.922151E-04  0.686E-03    0.29       1.2  T
   5   -267.3210408 -0.300730E-05  0.340E-03    0.29       2.4  T
   6   -267.3210420 -0.119047E-05  0.953E-04    0.29       8.5  T
   7   -267.3210421 -0.948354E-07  0.435E-04    0.29      18.6  T
   8   -267.3210421 -0.105676E-07  0.266E-04    0.29      30.4  T
     SCC iter.                  ...        0 min,  0.227 sec
     gradient                   ...        0 min,  0.079 sec
 * total energy  :  -263.2357469 Eh     change       -0.6456275E-03 Eh
   gradient norm :     0.0058710 Eh/α   predicted    -0.6060253E-03 (  -6.13%)
   displ. norm   :     0.8262790 α      lambda       -0.7220980E-03
   maximum displ.:     0.3804857 α      in ANC's #11, #5, #7, ...

........................................................................
.............................. CYCLE   57 ..............................
........................................................................
[...]
    45   6 C    3.989 --    44 C    1.449    46 C    1.387   125 H    0.966
    46   6 C    3.963 --    45 C    1.387    49 C    1.368    47 S    1.057
    47  16 S    2.250 --    46 C    1.057    48 C    1.005
    48   6 C    3.977 --    47 S    1.005   127 H    0.984   126 H    0.984
                           128 H    0.976
    49   6 C    3.989 --    50 C    1.475    46 C    1.368   129 H    0.967
                            44 C    0.100
    50   6 C    3.987 --    49 C    1.475    43 C    1.362   130 H    0.967
    51   6 C    3.928 --    72 C    1.375    33 C    1.211    52 S    1.114
    52  16 S    2.535 --    51 C    1.114    53 C    1.077
    53   6 C    3.914 --    54 C    1.366    74 C    1.215    52 S    1.077
    54   6 C    3.941 --    53 C    1.366    72 C    1.224    55 N    1.116
    55   7 N    3.511 --    54 C    1.116    64 C    1.053    56 C    1.044
    56   6 C    3.960 --    57 C    1.371    63 C    1.347    55 N    1.044
    57   6 C    3.979 --    58 C    1.453    56 C    1.371   131 H    0.966
                            62 C    0.100
    58   6 C    3.988 --    57 C    1.453    59 C    1.384   132 H    0.965
    59   6 C    3.950 --    58 C    1.384    62 C    1.364    60 S    1.058
    60  16 S    2.262 --    59 C    1.058    61 C    1.010
    61   6 C    3.978 --    60 S    1.010   134 H    0.982   133 H    0.982
                           135 H    0.978
    62   6 C    3.988 --    63 C    1.479    59 C    1.364   136 H    0.967
                            57 C    0.100
    63   6 C    3.983 --    62 C    1.479    56 C    1.347   137 H    0.966
    64   6 C    3.961 --    71 C    1.367    65 C    1.341    55 N    1.053
    65   6 C    3.981 --    66 C    1.479    64 C    1.341   138 H    0.964
    66   6 C    3.989 --    65 C    1.479    67 C    1.365   139 H    0.967
    67   6 C    3.956 --    70 C    1.382    66 C    1.365    68 S    1.054
    68  16 S    2.254 --    67 C    1.054    69 C    1.009
    69   6 C    3.977 --    68 S    1.009   140 H    0.982   141 H    0.981
                           142 H    0.978
    70   6 C    3.987 --    71 C    1.456    67 C    1.382   143 H    0.965
    71   6 C    3.983 --    70 C    1.456    64 C    1.367   144 H    0.967
    72   6 C    3.934 --    51 C    1.375    54 C    1.224    73 S    1.112
    73  16 S    2.543 --    72 C    1.112    32 C    1.087
    74   6 C    3.943 --    75 C    1.384    53 C    1.215    81 S    1.157
    75   6 C    3.960 --    76 C    1.407    74 C    1.384   145 H    0.960
    76   6 C    3.946 --    75 C    1.407    80 C    1.276    77 S    1.061
    77  16 S    2.244 --    76 C    1.061    78 C    0.959
    78   6 C    3.966 --    79 C    1.029   147 H    0.968   146 H    0.961
                            77 S    0.959
    79   6 C    3.994 --    78 C    1.029   149 H    0.986   148 H    0.983
                           150 H    0.977
    80   6 C    3.933 --    82 C    1.360    76 C    1.276    81 S    1.094
    81  16 S    2.773 --    74 C    1.157    80 C    1.094    85 O    0.139
    82   6 C    3.947 --    83 C    1.430    80 C    1.360   151 H    0.937
    83   6 C    3.952 --    82 C    1.430    94 C    1.162    84 C    1.086
    84   6 C    3.915 --    85 O    1.695    83 C    1.086    86 C    1.015
    85   8 O    2.115 --    84 C    1.695    81 S    0.139
    86   6 C    3.975 --    87 C    1.426    93 C    1.291    84 C    1.015
    87   6 C    3.975 --    86 C    1.426    88 C    1.379   152 H    0.960
    88   6 C    3.912 --    87 C    1.379    90 C    1.358    89 Cl   1.011
    89  17 Cl   1.173 --    88 C    1.011
    90   6 C    3.939 --    92 C    1.394    88 C    1.358    91 Br   1.013
    91  35 Br   1.166 --    90 C    1.013
    92   6 C    3.969 --    93 C    1.407    90 C    1.394   153 H    0.955
    93   6 C    3.981 --    92 C    1.407    86 C    1.291    94 C    1.076
    94   6 C    3.961 --    95 C    1.466    83 C    1.162    93 C    1.076
    95   6 C    3.934 --    94 C    1.466    96 C    1.106    98 C    1.097
    96   6 C    3.945 --    97 N    2.737    95 C    1.106
    97   7 N    2.964 --    96 C    2.737
    98   6 C    3.944 --    99 N    2.762    95 C    1.097
    99   7 N    2.964 --    98 C    2.762
   100   1 H    0.994 --     1 C    0.949
   101   1 H    0.996 --     6 C    0.964
   102   1 H    0.996 --     9 C    0.959
   103   1 H    0.996 --    17 C    0.960
   104   1 H    0.998 --    18 C    0.972
   105   1 H    0.999 --    19 C    0.971
   106   1 H    0.999 --    20 C    0.971
   107   1 H    0.998 --    21 C    0.972
   108   1 H    0.998 --    22 C    0.978
   109   1 H    0.996 --    22 C    0.976
   110   1 H    0.996 --    23 C    0.960
   111   1 H    0.994 --    25 C    0.956
   112   1 H    0.995 --    28 C    0.970
   113   1 H    0.996 --    28 C    0.972
   114   1 H    0.998 --    29 C    0.985
   115   1 H    0.998 --    29 C    0.987
   116   1 H    0.997 --    29 C    0.978
   117   1 H    0.998 --    36 C    0.965
   118   1 H    0.998 --    37 C    0.965
   119   1 H    0.996 --    40 C    0.982
   120   1 H    0.995 --    40 C    0.979
   121   1 H    0.996 --    40 C    0.982
   122   1 H    0.997 --    41 C    0.967
   123   1 H    0.998 --    42 C    0.966
   124   1 H    0.998 --    44 C    0.964
   125   1 H    0.998 --    45 C    0.966
   126   1 H    0.998 --    48 C    0.984
   127   1 H    0.997 --    48 C    0.984
   128   1 H    0.994 --    48 C    0.976
   129   1 H    0.997 --    49 C    0.967
   130   1 H    0.998 --    50 C    0.967
   131   1 H    0.998 --    57 C    0.966
   132   1 H    0.998 --    58 C    0.965
   133   1 H    0.996 --    61 C    0.982
   134   1 H    0.996 --    61 C    0.982
   135   1 H    0.995 --    61 C    0.978
   136   1 H    0.997 --    62 C    0.967
   137   1 H    0.998 --    63 C    0.966
   138   1 H    0.996 --    65 C    0.964
   139   1 H    0.997 --    66 C    0.967
   140   1 H    0.996 --    69 C    0.982
   141   1 H    0.996 --    69 C    0.981
   142   1 H    0.995 --    69 C    0.978
   143   1 H    0.998 --    70 C    0.965
   144   1 H    0.999 --    71 C    0.967
   145   1 H    0.995 --    75 C    0.960
   146   1 H    0.995 --    78 C    0.961
   147   1 H    0.994 --    78 C    0.968
   148   1 H    0.999 --    79 C    0.983
   149   1 H    0.998 --    79 C    0.986
   150   1 H    0.997 --    79 C    0.977
   151   1 H    0.994 --    82 C    0.937
   152   1 H    0.993 --    87 C    0.960
   153   1 H    0.993 --    92 C    0.955
 ---------------------------------------------------------------------------

Topologies differ in bond orders
Writing corrected topology to xtbtopo.mol

molecular dipole:
                 x           y           z       tot (Debye)
 q only:        0.981       0.098       2.485
   full:        1.779      -0.682       2.972       8.972
molecular quadrupole (traceless):
                xx          xy          yy          xz          yz          zz
 q only:      120.533      12.491       9.942      20.184     -89.594    -130.475
  q+dip:      145.306      20.716      15.412      15.852    -105.927    -160.719
   full:      146.425      27.343      20.177      14.387    -106.724    -166.601

           -------------------------------------------------
          |                Geometry Summary                 |
           -------------------------------------------------

      molecular mass/u    :     1555.3203052
   center of mass at/Å    :       -0.0993506      -0.7945826      -0.9092180
  moments of inertia/u·Å² :        0.2737161E+05   0.8526328E+05   0.9830349E+05
rotational constants/cm⁻¹ :        0.6158801E-03   0.1977127E-03   0.1714856E-03

 * 140 selected distances

     #   Z          #   Z                                           value/Å
     1   6 C        2   6 C                                       1.3641319
     3   6 C        4   8 O                                       1.2134918
     5   6 C        6   6 C                                       1.3932297
     6   6 C        7   6 C                                       1.3738068
     7   6 C        8   6 C                                       1.4020667
     8   6 C        9   6 C                                       1.3747579
     5   6 C       10   6 C                                       1.4098798
     9   6 C       10   6 C                                       1.3975584
    11   6 C       12   6 C                                       1.3689957
    13   6 C       14   7 N                                       1.1479680
    15   6 C       16   7 N                                       1.1479562
     8   6 C       17   6 C                                       1.5079056
    17   6 C       18   6 C                                       1.5488087
    19   6 C       20   6 C                                       1.3263257
    18   6 C       22   6 C                                       1.5371446
    21   6 C       22   6 C                                       1.5369520
     7   6 C       23   6 C                                       1.5076092
    17   6 C       23   6 C                                       1.5613724
    21   6 C       23   6 C                                       1.5489280
     1   6 C       24   6 C                                       1.4167736
    24   6 C       25   6 C                                       1.3762926
    25   6 C       26   6 C                                       1.3956144
    28   6 C       29   6 C                                       1.5158769
    26   6 C       30   6 C                                       1.3838253
    24   6 C       31  16 S                                       1.7515215
    30   6 C       31  16 S                                       1.7329874
    30   6 C       32   6 C                                       1.4286568
    32   6 C       33   6 C                                       1.3905833
    33   6 C       34   7 N                                       1.3750645
    34   7 N       35   6 C                                       1.3971371
    35   6 C       36   6 C                                       1.3915999
    36   6 C       37   6 C                                       1.3814203
    37   6 C       38   6 C                                       1.3876046
    38   6 C       41   6 C                                       1.3943911
    35   6 C       42   6 C                                       1.3955919
    41   6 C       42   6 C                                       1.3756585
    34   7 N       43   6 C                                       1.4103019
    43   6 C       44   6 C                                       1.3900358
    44   6 C       45   6 C                                       1.3817820
    45   6 C       46   6 C                                       1.3895531
    46   6 C       49   6 C                                       1.3932337
    43   6 C       50   6 C                                       1.3942443
    49   6 C       50   6 C                                       1.3760204
    33   6 C       51   6 C                                       1.4173500
    51   6 C       52  16 S                                       1.7287470
    53   6 C       54   6 C                                       1.3956901
    54   6 C       55   7 N                                       1.3779682
    55   7 N       56   6 C                                       1.4024980
    56   6 C       57   6 C                                       1.3910126
    57   6 C       58   6 C                                       1.3809313
    58   6 C       59   6 C                                       1.3889923
    59   6 C       62   6 C                                       1.3942864
    56   6 C       63   6 C                                       1.3955684
    62   6 C       63   6 C                                       1.3757470
    55   7 N       64   6 C                                       1.4000790
    64   6 C       65   6 C                                       1.3967500
    65   6 C       66   6 C                                       1.3756708
    66   6 C       67   6 C                                       1.3941755
    67   6 C       70   6 C                                       1.3889556
    64   6 C       71   6 C                                       1.3924649
    70   6 C       71   6 C                                       1.3803634
    51   6 C       72   6 C                                       1.3870085
    54   6 C       72   6 C                                       1.4151668
    32   6 C       73  16 S                                       1.7550405
    72   6 C       73  16 S                                       1.7286147
    53   6 C       74   6 C                                       1.4142707
    74   6 C       75   6 C                                       1.3858367
    75   6 C       76   6 C                                       1.3856851
    78   6 C       79   6 C                                       1.5137790
    76   6 C       80   6 C                                       1.4125204
    74   6 C       81  16 S                                       1.7363737
    80   6 C       81  16 S                                       1.7510099
    80   6 C       82   6 C                                       1.3911826
    82   6 C       83   6 C                                       1.3826476
    84   6 C       85   8 O                                       1.2199674
    86   6 C       87   6 C                                       1.3783308
    87   6 C       88   6 C                                       1.3906611
    88   6 C       89  17 Cl                                      1.7192376
    88   6 C       90   6 C                                       1.3957199
    90   6 C       91  35 Br                                      1.8917398 (max)
    90   6 C       92   6 C                                       1.3907665
    86   6 C       93   6 C                                       1.4044045
    92   6 C       93   6 C                                       1.3840955
    94   6 C       95   6 C                                       1.3737840
    96   6 C       97   7 N                                       1.1498308
    98   6 C       99   7 N                                       1.1481019
     1   6 C      100   1 H                                       1.0840979
     6   6 C      101   1 H                                       1.0788407
     9   6 C      102   1 H                                       1.0775538
    17   6 C      103   1 H                                       1.0881002
    18   6 C      104   1 H                                       1.0865183
    19   6 C      105   1 H                                       1.0742474
    20   6 C      106   1 H                                       1.0743353
    21   6 C      107   1 H                                       1.0868427
    22   6 C      108   1 H                                       1.0891216
    22   6 C      109   1 H                                       1.0888126
    23   6 C      110   1 H                                       1.0882956
    25   6 C      111   1 H                                       1.0734680 (min)
    28   6 C      112   1 H                                       1.0890410
    28   6 C      113   1 H                                       1.0892139
    29   6 C      114   1 H                                       1.0887218
    29   6 C      115   1 H                                       1.0883572
    29   6 C      116   1 H                                       1.0879315
    36   6 C      117   1 H                                       1.0788611
    37   6 C      118   1 H                                       1.0778605
    40   6 C      119   1 H                                       1.0862213
    40   6 C      120   1 H                                       1.0855711
    40   6 C      121   1 H                                       1.0859352
    41   6 C      122   1 H                                       1.0791216
    42   6 C      123   1 H                                       1.0796701
    44   6 C      124   1 H                                       1.0794340
    45   6 C      125   1 H                                       1.0783610
    48   6 C      126   1 H                                       1.0860795
    48   6 C      127   1 H                                       1.0863912
    48   6 C      128   1 H                                       1.0856126
    49   6 C      129   1 H                                       1.0787492
    50   6 C      130   1 H                                       1.0801959
    57   6 C      131   1 H                                       1.0798457
    58   6 C      132   1 H                                       1.0777658
    61   6 C      133   1 H                                       1.0860308
    61   6 C      134   1 H                                       1.0860945
    61   6 C      135   1 H                                       1.0855981
    62   6 C      136   1 H                                       1.0790664
    63   6 C      137   1 H                                       1.0796921
    65   6 C      138   1 H                                       1.0779587
    66   6 C      139   1 H                                       1.0788567
    69   6 C      140   1 H                                       1.0858096
    69   6 C      141   1 H                                       1.0859612
    69   6 C      142   1 H                                       1.0855273
    70   6 C      143   1 H                                       1.0779320
    71   6 C      144   1 H                                       1.0800357
    75   6 C      145   1 H                                       1.0756292
    78   6 C      146   1 H                                       1.0887696
    78   6 C      147   1 H                                       1.0900157
    79   6 C      148   1 H                                       1.0888002
    79   6 C      149   1 H                                       1.0889591
    79   6 C      150   1 H                                       1.0883936
    82   6 C      151   1 H                                       1.0826373
    87   6 C      152   1 H                                       1.0784088
    92   6 C      153   1 H                                       1.0778330

 * 7 distinct bonds (by element types)

   Z      Z             #   av. dist./Å        max./Å        min./Å
   1 H    6 C          54     1.0830960     1.0900157     1.0734680
   6 C    6 C          65     1.4091085     1.5613724     1.3263257
   6 C    7 N          10     1.2956905     1.4103019     1.1479562
   6 C    8 O           2     1.2167296     1.2199674     1.2134918
   6 C   16 S           7     1.7406135     1.7550405     1.7286147
   6 C   17 Cl          1     1.7192376     1.7192376     1.7192376
   6 C   35 Br          1     1.8917398     1.8917398     1.8917398


optimized geometry written to: xtbopt.mol


           -------------------------------------------------
          | TOTAL ENERGY             -263.296263372553 Eh   |
          | GRADIENT NORM               0.000392747280 Eh/α |
          | HOMO-LUMO GAP               0.456626166703 eV   |
           -------------------------------------------------

------------------------------------------------------------------------
 * finished run on 2022/02/05 at 04:42:49.351     
------------------------------------------------------------------------
 total:
 * wall-time:     0 d,  0 h,  1 min, 52.658 sec
 *  cpu-time:     0 d,  0 h, 15 min,  1.081 sec
 * ratio c/w:     7.998 speedup
 SCF:
 * wall-time:     0 d,  0 h,  0 min,  0.656 sec
 *  cpu-time:     0 d,  0 h,  0 min,  5.243 sec
 * ratio c/w:     7.994 speedup
 ANC optimizer:
 * wall-time:     0 d,  0 h,  1 min, 51.903 sec
 *  cpu-time:     0 d,  0 h, 14 min, 55.140 sec
 * ratio c/w:     7.999 speedup

