      -----------------------------------------------------------      
     |                   =====================                   |     
     |                           x T B                           |     
     |                   =====================                   |     
     |                         S. Grimme                         |     
     |          Mulliken Center for Theoretical Chemistry        |     
     |                    University of Bonn                     |     
      -----------------------------------------------------------      

   * xtb version 6.4.1 (unknown) compiled by 'oda6@login1.crc.pitt.edu' on 2021-06-25

   xtb is free software: you can redistribute it and/or modify it under
   the terms of the GNU Lesser General Public License as published by
   the Free Software Foundation, either version 3 of the License, or
   (at your option) any later version.
   
   xtb is distributed in the hope that it will be useful,
   but WITHOUT ANY WARRANTY; without even the implied warranty of
   MERCHANTABILITY or FITNESS FOR A PARTICULAR PURPOSE.  See the
   GNU Lesser General Public License for more details.
   
   Cite this work as:
   * C. Bannwarth, E. Caldeweyher, S. Ehlert, A. Hansen, P. Pracht,
     J. Seibert, S. Spicher, S. Grimme, WIREs Comput. Mol. Sci., 2020, 11,
     e01493. DOI: 10.1002/wcms.1493
   
   for GFN2-xTB:
   * C. Bannwarth, S. Ehlert and S. Grimme., J. Chem. Theory Comput., 2019,
     15, 1652-1671. DOI: 10.1021/acs.jctc.8b01176
   for GFN1-xTB:
   * S. Grimme, C. Bannwarth, P. Shushkov, J. Chem. Theory Comput., 2017,
     13, 1989-2009. DOI: 10.1021/acs.jctc.7b00118
   for GFN0-xTB:
   * P. Pracht, E. Caldeweyher, S. Ehlert, S. Grimme, ChemRxiv, 2019, preprint.
     DOI: 10.26434/chemrxiv.8326202.v1
   for GFN-FF:
   * S. Spicher and S. Grimme, Angew. Chem. Int. Ed., 2020, 59, 15665-15673.
     DOI: 10.1002/anie.202004239
   
   for DFT-D4:
   * E. Caldeweyher, C. Bannwarth and S. Grimme, J. Chem. Phys., 2017,
     147, 034112. DOI: 10.1063/1.4993215
   * E. Caldeweyher, S. Ehlert, A. Hansen, H. Neugebauer, S. Spicher,
     C. Bannwarth and S. Grimme, J. Chem. Phys., 2019, 150, 154122.
     DOI: 10.1063/1.5090222
   * E. Caldeweyher, J.-M. Mewes, S. Ehlert and S. Grimme, Phys. Chem. Chem. Phys.
     2020, 22, 8499-8512. DOI: 10.1039/D0CP00502A
   
   for sTDA-xTB:
   * S. Grimme and C. Bannwarth, J. Chem. Phys., 2016, 145, 054103.
     DOI: 10.1063/1.4959605
   
   in the mass-spec context:
   * V. Asgeirsson, C. Bauer and S. Grimme, Chem. Sci., 2017, 8, 4879.
     DOI: 10.1039/c7sc00601b
   * J. Koopman and S. Grimme, ACS Omega 2019, 4, 12, 15120-15133.
     DOI: 10.1021/acsomega.9b02011
   
   for metadynamics refer to:
   * S. Grimme, J. Chem. Theory Comput., 2019, 155, 2847-2862
     DOI: 10.1021/acs.jctc.9b00143
   
   for SPH calculations refer to:
   * S. Spicher and S. Grimme, J. Chem. Theory Comput., 2021, 17, 1701-1714
     DOI: 10.1021/acs.jctc.0c01306
   
   with help from (in alphabetical order)
   P. Atkinson, C. Bannwarth, F. Bohle, G. Brandenburg, E. Caldeweyher
   M. Checinski, S. Dohm, S. Ehlert, S. Ehrlich, I. Gerasimov, J. Koopman
   C. Lavigne, S. Lehtola, F. März, M. Müller, F. Musil, H. Neugebauer
   J. Pisarek, C. Plett, P. Pracht, J. Seibert, P. Shushkov, S. Spicher
   M. Stahn, M. Steiner, T. Strunk, J. Stückrath, T. Rose, and J. Unsleber
   
 * started run on 2022/02/04 at 12:15:40.675     

           -------------------------------------------------
          |                Calculation Setup                |
           -------------------------------------------------

          program call               : /ihome/ghutchison/oda6/xtb/xtb-641/bin/xtb ../../FF_optimized/39_71_130_71_4.mol -opt
          hostname                   : smp-n57
          coordinate file            : ../../FF_optimized/39_71_130_71_4.mol
          omp threads                :                     8
          number of atoms            :                   222
          number of electrons        :                   688
          charge                     :                     0
          spin                       :                   0.0
          first test random number   :      0.22608026546278

   ID    Z sym.   atoms
    1    6 C      1-3, 5-13, 15, 17-32, 34-44, 46-49, 51, 52, 54, 55, 57-60,
                  62-68, 70-73, 75, 76, 78-81, 83-89, 91-94, 96-104, 106-116,
                  118-121, 123, 124, 126-128, 130-132, 135-138, 140
    2    8 O      4, 129
    3    7 N      14, 16, 56, 77, 139, 141
    4   16 S      33, 45, 50, 53, 61, 69, 74, 82, 90, 95, 105, 117, 122, 125,
                  134
    5   17 Cl     133
    6    1 H      142-222
########################################################################
[WARNING] Please study the warnings concerning your input carefully
-1- prog_main_parseArguments: the use of '-opt' is discouraged, please use '--opt' next time
########################################################################

           -------------------------------------------------
          |                 G F N 2 - x T B                 |
           -------------------------------------------------

        Reference                      10.1021/acs.jctc.8b01176
      * Hamiltonian:
        H0-scaling (s, p, d)           1.850000    2.230000    2.230000
        zeta-weighting                 0.500000
      * Dispersion:
        s8                             2.700000
        a1                             0.520000
        a2                             5.000000
        s9                             5.000000
      * Repulsion:
        kExp                           1.500000    1.000000
        rExp                           1.000000
      * Coulomb:
        alpha                          2.000000
        third order                    shell-resolved
        anisotropic                    true
        a3                             3.000000
        a5                             4.000000
        cn-shift                       1.200000
        cn-exp                         4.000000
        max-rad                        5.000000


          ...................................................
          :                      SETUP                      :
          :.................................................:
          :  # basis functions                 741          :
          :  # atomic orbitals                 725          :
          :  # shells                          379          :
          :  # electrons                       688          :
          :  max. iterations                   250          :
          :  Hamiltonian                  GFN2-xTB          :
          :  restarted?                      false          :
          :  GBSA solvation                  false          :
          :  PC potential                    false          :
          :  electronic temp.          300.0000000     K    :
          :  accuracy                    1.0000000          :
          :  -> integral cutoff          0.2500000E+02      :
          :  -> integral neglect         0.1000000E-07      :
          :  -> SCF convergence          0.1000000E-05 Eh   :
          :  -> wf. convergence          0.1000000E-03 e    :
          :  Broyden damping             0.4000000          :
          ...................................................

 iter      E             dE          RMSdq      gap      omega  full diag
   1   -375.5786219 -0.375579E+03  0.486E+00    1.27       0.0  T
   2   -375.7978615 -0.219240E+00  0.292E+00    1.10       1.0  T
   3   -375.2619844  0.535877E+00  0.198E+00    0.30       1.0  T
   4   -375.9326563 -0.670672E+00  0.647E-01    0.37       1.0  T
   5   -375.9853314 -0.526751E-01  0.282E-01    0.14       1.0  T
   6   -375.9905371 -0.520565E-02  0.163E-01    0.47       1.0  T
   7   -375.9945626 -0.402557E-02  0.880E-02    0.44       1.0  T
   8   -375.9951846 -0.621978E-03  0.552E-02    0.42       1.0  T
   9   -375.9953078 -0.123230E-03  0.395E-02    0.36       1.0  T
  10   -375.9954325 -0.124703E-03  0.247E-02    0.32       1.0  T
  11   -375.9954626 -0.300888E-04  0.191E-02    0.30       1.0  T
  12   -375.9954935 -0.308595E-04  0.135E-02    0.31       1.0  T
  13   -375.9955073 -0.138341E-04  0.967E-03    0.32       1.0  T
  14   -375.9955163 -0.897061E-05  0.562E-03    0.32       1.2  T
  15   -375.9955197 -0.337791E-05  0.319E-03    0.32       2.1  T
  16   -375.9955207 -0.106123E-05  0.148E-03    0.32       4.5  T
  17   -375.9955209 -0.188865E-06  0.723E-04    0.32       9.3  T
  18   -375.9955210 -0.535483E-07  0.358E-04    0.32      18.7  T

   *** convergence criteria satisfied after 18 iterations ***

         #    Occupation            Energy/Eh            Energy/eV
      -------------------------------------------------------------
         1        2.0000           -1.0888886             -29.6302
       ...           ...                  ...                  ...
       338        2.0000           -0.3642449              -9.9116
       339        2.0000           -0.3636325              -9.8949
       340        2.0000           -0.3622666              -9.8578
       341        2.0000           -0.3607273              -9.8159
       342        1.9999           -0.3595347              -9.7834
       343        1.9985           -0.3566360              -9.7046
       344        1.9966           -0.3558512              -9.6832 (HOMO)
       345        0.0050           -0.3440989              -9.3634 (LUMO)
       346        0.0000           -0.3394665              -9.2374
       347                         -0.3325027              -9.0479
       348                         -0.3296800              -8.9710
       349                         -0.2983935              -8.1197
       ...                                ...                  ...
       725                          1.0703951              29.1269
      -------------------------------------------------------------
                  HL-Gap            0.0117524 Eh            0.3198 eV
             Fermi-level           -0.3497964 Eh           -9.5184 eV

 SCC (total)                   0 d,  0 h,  0 min,  1.193 sec
 SCC setup                      ...        0 min,  0.002 sec (  0.172%)
 Dispersion                     ...        0 min,  0.017 sec (  1.437%)
 classical contributions        ...        0 min,  0.000 sec (  0.038%)
 integral evaluation            ...        0 min,  0.063 sec (  5.258%)
 iterations                     ...        0 min,  0.926 sec ( 77.601%)
 molecular gradient             ...        0 min,  0.179 sec ( 15.019%)
 printout                       ...        0 min,  0.006 sec (  0.467%)

         :::::::::::::::::::::::::::::::::::::::::::::::::::::
         ::                     SUMMARY                     ::
         :::::::::::::::::::::::::::::::::::::::::::::::::::::
         :: total energy            -370.401449878029 Eh    ::
         :: gradient norm              0.335809858450 Eh/a0 ::
         :: HOMO-LUMO gap              0.319798330688 eV    ::
         ::.................................................::
         :: SCC energy              -375.995520981771 Eh    ::
         :: -> isotropic ES            0.123555361363 Eh    ::
         :: -> anisotropic ES          0.021943703908 Eh    ::
         :: -> anisotropic XC          0.249823418318 Eh    ::
         :: -> dispersion             -0.389275662182 Eh    ::
         :: repulsion energy           5.574280895062 Eh    ::
         :: add. restraining           0.000000000000 Eh    ::
         :: total charge               0.000000000076 e     ::
         :::::::::::::::::::::::::::::::::::::::::::::::::::::

      ----------------------------------------------------------- 
     |                   =====================                   |
     |                        A N C O P T                        |
     |                   =====================                   |
     |               Approximate Normal Coordinate               |
     |                Rational Function Optimizer                |
      ----------------------------------------------------------- 

          ...................................................
          :                      SETUP                      :
          :.................................................:
          :   optimization level            normal          :
          :   max. optcycles                   666          :
          :   ANC micro-cycles                  20          :
          :   degrees of freedom               660          :
          :.................................................:
          :   RF solver                   davidson          :
          :   write xtbopt.log                true          :
          :   linear?                        false          :
          :   energy convergence         0.5000000E-05 Eh   :
          :   grad. convergence          0.1000000E-02 Eh/α :
          :   maximium RF displ.         1.0000000          :
          :   Hlow (freq-cutoff)         0.1000000E-01      :
          :   Hmax (freq-cutoff)         5.0000000          :
          :   S6 in model hess.         20.0000000          :
          ...................................................

generating ANC from model Hessian ...
Using Lindh-Hessian (1995)
 Shifting diagonal of input Hessian by   1.012219906550834E-002
 Lowest  eigenvalues of input Hessian
    0.010000    0.010071    0.010116    0.000000    0.000000    0.000000
    0.000000    0.000000    0.000000    0.010132    0.010141    0.010143
    0.010159    0.010166    0.010185    0.010193    0.010197    0.010209
 Highest eigenvalues
    2.130866    2.153281    2.504287    2.508491    2.556286    2.562576
 

........................................................................
.............................. CYCLE    1 ..............................
........................................................................
   1   -375.9955210 -0.375996E+03  0.185E-04    0.32       0.0  T
   2   -375.9955210  0.363400E-09  0.146E-04    0.32      46.0  T
   3   -375.9955210 -0.297428E-08  0.924E-05    0.32      72.6  T
     SCC iter.                  ...        0 min,  0.161 sec
     gradient                   ...        0 min,  0.175 sec
 * total energy  :  -370.4014499 Eh     change       -0.1204097E-07 Eh
   gradient norm :     0.3358089 Eh/α   predicted     0.0000000E+00 (-100.00%)
   displ. norm   :     0.4803785 α      lambda       -0.1178141E+00
   maximum displ.:     0.0763481 α      in ANC's #407, #241, #189, ...

........................................................................
.............................. CYCLE    2 ..............................
........................................................................
   1   -376.2365245 -0.376237E+03  0.246E-01    0.29       0.0  T
   2   -376.2377830 -0.125848E-02  0.155E-01    0.33       1.0  T
   3   -376.2373189  0.464055E-03  0.889E-02    0.29       1.0  T
   4   -376.2382557 -0.936792E-03  0.356E-02    0.32       1.0  T
   5   -376.2384404 -0.184656E-03  0.159E-02    0.31       1.0  T
   6   -376.2384691 -0.286765E-04  0.796E-03    0.32       1.0  T
   7   -376.2384749 -0.583928E-05  0.489E-03    0.31       1.4  T
   8   -376.2384768 -0.187820E-05  0.363E-03    0.31       1.9  T
   9   -376.2384774 -0.619162E-06  0.278E-03    0.31       2.4  T
  10   -376.2384782 -0.808997E-06  0.168E-03    0.31       4.0  T
  11   -376.2384785 -0.294951E-06  0.103E-03    0.31       6.5  T
  12   -376.2384786 -0.877569E-07  0.573E-04    0.31      11.7  T
  13   -376.2384786 -0.413021E-07  0.269E-04    0.31      25.0  T
     SCC iter.                  ...        0 min,  0.658 sec
     gradient                   ...        0 min,  0.175 sec
 * total energy  :  -370.4878338 Eh     change       -0.8638392E-01 Eh
   gradient norm :     0.1622782 Eh/α   predicted    -0.7253563E-01 ( -16.03%)
   displ. norm   :     0.4741144 α      lambda       -0.5049708E-01
   maximum displ.:     0.0786303 α      in ANC's #241, #189, #110, ...

........................................................................
.............................. CYCLE    3 ..............................
........................................................................
   1   -376.3863829 -0.376386E+03  0.202E-01    0.27       0.0  T
   2   -376.3873591 -0.976196E-03  0.126E-01    0.31       1.0  T
   3   -376.3871834  0.175690E-03  0.757E-02    0.28       1.0  T
   4   -376.3877860 -0.602536E-03  0.338E-02    0.31       1.0  T
   5   -376.3879567 -0.170750E-03  0.149E-02    0.29       1.0  T
   6   -376.3879821 -0.253929E-04  0.761E-03    0.30       1.0  T
   7   -376.3879874 -0.525919E-05  0.488E-03    0.29       1.4  T
   8   -376.3879893 -0.188833E-05  0.366E-03    0.30       1.8  T
   9   -376.3879899 -0.685394E-06  0.279E-03    0.30       2.4  T
  10   -376.3879908 -0.874455E-06  0.158E-03    0.30       4.2  T
  11   -376.3879911 -0.267661E-06  0.918E-04    0.30       7.3  T
  12   -376.3879911 -0.604149E-07  0.549E-04    0.30      12.2  T
     SCC iter.                  ...        0 min,  0.594 sec
     gradient                   ...        0 min,  0.175 sec
 * total energy  :  -370.5198949 Eh     change       -0.3206113E-01 Eh
   gradient norm :     0.0479388 Eh/α   predicted    -0.3092403E-01 (  -3.55%)
   displ. norm   :     0.5042573 α      lambda       -0.1255256E-01
   maximum displ.:     0.1145865 α      in ANC's #110, #106, #105, ...

........................................................................
.............................. CYCLE    4 ..............................
........................................................................
   1   -376.4373040 -0.376437E+03  0.122E-01    0.28       0.0  T
   2   -376.4374350 -0.131042E-03  0.738E-02    0.29       1.0  T
   3   -376.4371481  0.286924E-03  0.447E-02    0.28       1.0  T
   4   -376.4375336 -0.385481E-03  0.132E-02    0.29       1.0  T
   5   -376.4375597 -0.261300E-04  0.658E-03    0.29       1.0  T
   6   -376.4375650 -0.529098E-05  0.351E-03    0.29       1.9  T
   7   -376.4375662 -0.124410E-05  0.227E-03    0.29       3.0  T
   8   -376.4375667 -0.420749E-06  0.170E-03    0.29       3.9  T
   9   -376.4375668 -0.162083E-06  0.125E-03    0.29       5.4  T
  10   -376.4375670 -0.177162E-06  0.721E-04    0.29       9.3  T
  11   -376.4375670 -0.476613E-07  0.441E-04    0.29      15.2  T
     SCC iter.                  ...        0 min,  0.581 sec
     gradient                   ...        0 min,  0.176 sec
 * total energy  :  -370.5286716 Eh     change       -0.8776684E-02 Eh
   gradient norm :     0.0238630 Eh/α   predicted    -0.7872258E-02 ( -10.30%)
   displ. norm   :     0.6480967 α      lambda       -0.8460059E-02
   maximum displ.:     0.1728839 α      in ANC's #2, #110, #105, ...

........................................................................
.............................. CYCLE    5 ..............................
........................................................................
   1   -376.4558787 -0.376456E+03  0.254E-01    0.27       0.0  T
   2   -376.4560990 -0.220332E-03  0.143E-01    0.29       1.0  T
   3   -376.4553983  0.700671E-03  0.535E-02    0.26       1.0  T
   4   -376.4562118 -0.813487E-03  0.129E-02    0.29       1.0  T
   5   -376.4562348 -0.229684E-04  0.743E-03    0.28       1.0  T
   6   -376.4562421 -0.726823E-05  0.348E-03    0.29       1.9  T
   7   -376.4562434 -0.133574E-05  0.195E-03    0.28       3.4  T
   8   -376.4562437 -0.301162E-06  0.142E-03    0.28       4.7  T
   9   -376.4562438 -0.996613E-07  0.107E-03    0.28       6.3  T
  10   -376.4562439 -0.996947E-07  0.714E-04    0.28       9.4  T
  11   -376.4562439 -0.462164E-07  0.438E-04    0.28      15.3  T
     SCC iter.                  ...        0 min,  0.543 sec
     gradient                   ...        0 min,  0.175 sec
 * total energy  :  -370.5302186 Eh     change       -0.1547009E-02 Eh
   gradient norm :     0.0478674 Eh/α   predicted    -0.6006766E-02 ( 288.28%)
   displ. norm   :     0.4423974 α      lambda       -0.9408538E-02
   maximum displ.:     0.1420489 α      in ANC's #76, #35, #2, ...

........................................................................
.............................. CYCLE    6 ..............................
........................................................................
   1   -376.4772223 -0.376477E+03  0.208E-01    0.28       0.0  T
   2   -376.4773414 -0.119102E-03  0.116E-01    0.29       1.0  T
   3   -376.4772091  0.132248E-03  0.257E-02    0.27       1.0  T
   4   -376.4773902 -0.181013E-03  0.642E-03    0.29       1.0  T
   5   -376.4773934 -0.328032E-05  0.392E-03    0.28       1.7  T
   6   -376.4773955 -0.204819E-05  0.166E-03    0.29       4.1  T
   7   -376.4773959 -0.409719E-06  0.757E-04    0.28       8.9  T
   8   -376.4773960 -0.682634E-07  0.450E-04    0.29      14.9  T
     SCC iter.                  ...        0 min,  0.416 sec
     gradient                   ...        0 min,  0.175 sec
 * total energy  :  -370.5344986 Eh     change       -0.4279960E-02 Eh
   gradient norm :     0.0323114 Eh/α   predicted    -0.5624982E-02 (  31.43%)
   displ. norm   :     0.3595539 α      lambda       -0.2795019E-02
   maximum displ.:     0.0921580 α      in ANC's #45, #135, #56, ...

........................................................................
.............................. CYCLE    7 ..............................
........................................................................
   1   -376.4748289 -0.376475E+03  0.149E-01    0.29       0.0  T
   2   -376.4748916 -0.627104E-04  0.828E-02    0.29       1.0  T
   3   -376.4748276  0.640772E-04  0.209E-02    0.28       1.0  T
   4   -376.4749179 -0.902993E-04  0.448E-03    0.29       1.5  T
   5   -376.4749187 -0.801208E-06  0.262E-03    0.29       2.6  T
   6   -376.4749197 -0.102466E-05  0.119E-03    0.29       5.6  T
   7   -376.4749199 -0.182637E-06  0.552E-04    0.29      12.2  T
   8   -376.4749199 -0.330228E-07  0.325E-04    0.29      20.7  T
     SCC iter.                  ...        0 min,  0.407 sec
     gradient                   ...        0 min,  0.175 sec
 * total energy  :  -370.5348697 Eh     change       -0.3710900E-03 Eh
   gradient norm :     0.0248598 Eh/α   predicted    -0.1578177E-02 ( 325.28%)
   displ. norm   :     0.3737185 α      lambda       -0.3627142E-02
   maximum displ.:     0.0766908 α      in ANC's #29, #56, #43, ...

........................................................................
.............................. CYCLE    8 ..............................
........................................................................
   1   -376.4778080 -0.376478E+03  0.134E-01    0.29       0.0  T
   2   -376.4778625 -0.545367E-04  0.744E-02    0.29       1.0  T
   3   -376.4778241  0.384568E-04  0.163E-02    0.29       1.0  T
   4   -376.4778833 -0.592884E-04  0.447E-03    0.29       1.5  T
   5   -376.4778852 -0.188296E-05  0.226E-03    0.29       3.0  T
   6   -376.4778857 -0.511271E-06  0.101E-03    0.29       6.7  T
   7   -376.4778859 -0.142892E-06  0.443E-04    0.29      15.2  T
   8   -376.4778859 -0.160805E-07  0.284E-04    0.29      23.6  T
     SCC iter.                  ...        0 min,  0.406 sec
     gradient                   ...        0 min,  0.175 sec
 * total energy  :  -370.5369161 Eh     change       -0.2046384E-02 Eh
   gradient norm :     0.0277279 Eh/α   predicted    -0.2066869E-02 (   1.00%)
   displ. norm   :     0.4785264 α      lambda       -0.2698703E-02
   maximum displ.:     0.1208311 α      in ANC's #80, #56, #38, ...

........................................................................
.............................. CYCLE    9 ..............................
........................................................................
   1   -376.4707797 -0.376471E+03  0.187E-01    0.26       0.0  T
   2   -376.4708876 -0.107892E-03  0.103E-01    0.30       1.0  T
   3   -376.4704698  0.417711E-03  0.409E-02    0.24       1.0  T
   4   -376.4709447 -0.474822E-03  0.729E-03    0.29       1.0  T
   5   -376.4709502 -0.549505E-05  0.444E-03    0.28       1.5  T
   6   -376.4709533 -0.317841E-05  0.147E-03    0.28       4.6  T
   7   -376.4709535 -0.157057E-06  0.675E-04    0.28       9.9  T
   8   -376.4709536 -0.619966E-07  0.334E-04    0.28      20.1  T
     SCC iter.                  ...        0 min,  0.426 sec
     gradient                   ...        0 min,  0.176 sec
 * total energy  :  -370.5367305 Eh     change        0.1855345E-03 Eh
   gradient norm :     0.0549602 Eh/α   predicted    -0.1658337E-02 (-993.82%)
   displ. norm   :     0.3136441 α      lambda       -0.4368762E-02
   maximum displ.:     0.1120333 α      in ANC's #80, #45, #29, ...

........................................................................
.............................. CYCLE   10 ..............................
........................................................................
   1   -376.4864685 -0.376486E+03  0.150E-01    0.30       0.0  T
   2   -376.4865434 -0.749009E-04  0.829E-02    0.29       1.0  T
   3   -376.4864870  0.563130E-04  0.198E-02    0.30       1.0  T
   4   -376.4865704 -0.833643E-04  0.424E-03    0.29       1.6  T
   5   -376.4865709 -0.506575E-06  0.300E-03    0.29       2.2  T
   6   -376.4865728 -0.192856E-05  0.101E-03    0.29       6.6  T
   7   -376.4865729 -0.896081E-07  0.444E-04    0.29      15.1  T
   8   -376.4865730 -0.254900E-07  0.227E-04    0.29      29.6  T
     SCC iter.                  ...        0 min,  0.410 sec
     gradient                   ...        0 min,  0.175 sec
 * total energy  :  -370.5388509 Eh     change       -0.2120394E-02 Eh
   gradient norm :     0.0118054 Eh/α   predicted    -0.2399263E-02 (  13.15%)
   displ. norm   :     0.4550583 α      lambda       -0.1435691E-02
   maximum displ.:     0.1237588 α      in ANC's #29, #56, #2, ...

........................................................................
.............................. CYCLE   11 ..............................
........................................................................
   1   -376.4832325 -0.376483E+03  0.683E-02    0.29       0.0  T
   2   -376.4832423 -0.983948E-05  0.387E-02    0.29       1.0  T
   3   -376.4831978  0.445258E-04  0.157E-02    0.29       1.0  T
   4   -376.4832479 -0.501543E-04  0.393E-03    0.29       1.7  T
   5   -376.4832488 -0.868681E-06  0.198E-03    0.29       3.4  T
   6   -376.4832494 -0.557698E-06  0.730E-04    0.29       9.2  T
   7   -376.4832494 -0.814699E-07  0.272E-04    0.29      24.7  T
     SCC iter.                  ...        0 min,  0.350 sec
     gradient                   ...        0 min,  0.175 sec
 * total energy  :  -370.5399692 Eh     change       -0.1118299E-02 Eh
   gradient norm :     0.0118153 Eh/α   predicted    -0.8664959E-03 ( -22.52%)
   displ. norm   :     0.7220126 α      lambda       -0.1821855E-02
   maximum displ.:     0.1958088 α      in ANC's #29, #56, #26, ...

........................................................................
.............................. CYCLE   12 ..............................
........................................................................
   1   -376.4793731 -0.376479E+03  0.116E-01    0.28       0.0  T
   2   -376.4794059 -0.328213E-04  0.645E-02    0.29       1.0  T
   3   -376.4793515  0.543926E-04  0.174E-02    0.28       1.0  T
   4   -376.4794154 -0.639233E-04  0.657E-03    0.29       1.0  T
   5   -376.4794198 -0.436654E-05  0.309E-03    0.29       2.2  T
   6   -376.4794210 -0.124899E-05  0.121E-03    0.29       5.5  T
   7   -376.4794213 -0.252688E-06  0.505E-04    0.29      13.3  T
   8   -376.4794213 -0.285910E-07  0.293E-04    0.29      22.9  T
     SCC iter.                  ...        0 min,  0.418 sec
     gradient                   ...        0 min,  0.175 sec
 * total energy  :  -370.5413720 Eh     change       -0.1402820E-02 Eh
   gradient norm :     0.0168741 Eh/α   predicted    -0.1385802E-02 (  -1.21%)
   displ. norm   :     0.7591626 α      lambda       -0.2319517E-02
   maximum displ.:     0.2167910 α      in ANC's #29, #56, #5, ...

........................................................................
.............................. CYCLE   13 ..............................
........................................................................
   1   -376.4864205 -0.376486E+03  0.111E-01    0.28       0.0  T
   2   -376.4864479 -0.273545E-04  0.616E-02    0.29       1.0  T
   3   -376.4863693  0.785875E-04  0.204E-02    0.29       1.0  T
   4   -376.4864564 -0.871760E-04  0.671E-03    0.28       1.0  T
   5   -376.4864605 -0.403634E-05  0.325E-03    0.29       2.1  T
   6   -376.4864620 -0.148746E-05  0.143E-03    0.28       4.7  T
   7   -376.4864624 -0.459054E-06  0.577E-04    0.29      11.6  T
   8   -376.4864625 -0.426149E-07  0.302E-04    0.29      22.3  T
     SCC iter.                  ...        0 min,  0.413 sec
     gradient                   ...        0 min,  0.175 sec
 * total energy  :  -370.5427501 Eh     change       -0.1378028E-02 Eh
   gradient norm :     0.0203294 Eh/α   predicted    -0.1828163E-02 (  32.67%)
   displ. norm   :     0.6615430 α      lambda       -0.1621371E-02
   maximum displ.:     0.1864523 α      in ANC's #29, #56, #5, ...

........................................................................
.............................. CYCLE   14 ..............................
........................................................................
   1   -376.4804994 -0.376480E+03  0.109E-01    0.27       0.0  T
   2   -376.4805306 -0.311982E-04  0.603E-02    0.29       1.0  T
   3   -376.4804863  0.442365E-04  0.160E-02    0.27       1.0  T
   4   -376.4805396 -0.532382E-04  0.593E-03    0.28       1.1  T
   5   -376.4805431 -0.353898E-05  0.293E-03    0.28       2.3  T
   6   -376.4805443 -0.113872E-05  0.110E-03    0.28       6.1  T
   7   -376.4805445 -0.204776E-06  0.438E-04    0.28      15.3  T
   8   -376.4805445 -0.210682E-07  0.252E-04    0.28      26.6  T
     SCC iter.                  ...        0 min,  0.409 sec
     gradient                   ...        0 min,  0.175 sec
 * total energy  :  -370.5440978 Eh     change       -0.1347761E-02 Eh
   gradient norm :     0.0111418 Eh/α   predicted    -0.1165476E-02 ( -13.53%)
   displ. norm   :     0.6933242 α      lambda       -0.1554054E-02
   maximum displ.:     0.1910909 α      in ANC's #29, #5, #6, ...

........................................................................
.............................. CYCLE   15 ..............................
........................................................................
   1   -376.4882458 -0.376488E+03  0.107E-01    0.27       0.0  T
   2   -376.4882733 -0.275003E-04  0.590E-02    0.28       1.0  T
   3   -376.4882030  0.702632E-04  0.197E-02    0.28       1.0  T
   4   -376.4882847 -0.816689E-04  0.618E-03    0.28       1.1  T
   5   -376.4882874 -0.270919E-05  0.324E-03    0.28       2.1  T
   6   -376.4882891 -0.170765E-05  0.100E-03    0.28       6.7  T
   7   -376.4882893 -0.169113E-06  0.443E-04    0.28      15.2  T
   8   -376.4882893 -0.198562E-07  0.246E-04    0.28      27.3  T
     SCC iter.                  ...        0 min,  0.408 sec
     gradient                   ...        0 min,  0.176 sec
 * total energy  :  -370.5453409 Eh     change       -0.1243033E-02 Eh
   gradient norm :     0.0158718 Eh/α   predicted    -0.1150544E-02 (  -7.44%)
   displ. norm   :     0.7855149 α      lambda       -0.1385427E-02
   maximum displ.:     0.2127700 α      in ANC's #29, #5, #6, ...

........................................................................
.............................. CYCLE   16 ..............................
........................................................................
   1   -376.4856010 -0.376486E+03  0.103E-01    0.27       0.0  T
   2   -376.4856232 -0.222145E-04  0.564E-02    0.28       1.0  T
   3   -376.4855475  0.757019E-04  0.203E-02    0.27       1.0  T
   4   -376.4856310 -0.834570E-04  0.705E-03    0.28       1.0  T
   5   -376.4856351 -0.408768E-05  0.327E-03    0.28       2.1  T
   6   -376.4856367 -0.158622E-05  0.107E-03    0.28       6.3  T
   7   -376.4856369 -0.204038E-06  0.418E-04    0.28      16.0  T
   8   -376.4856369 -0.183255E-07  0.237E-04    0.28      28.3  T
     SCC iter.                  ...        0 min,  0.409 sec
     gradient                   ...        0 min,  0.175 sec
 * total energy  :  -370.5465716 Eh     change       -0.1230760E-02 Eh
   gradient norm :     0.0111278 Eh/α   predicted    -0.1120142E-02 (  -8.99%)
   displ. norm   :     0.7661814 α      lambda       -0.1519671E-02
   maximum displ.:     0.2198962 α      in ANC's #5, #6, #29, ...

........................................................................
.............................. CYCLE   17 ..............................
........................................................................
   1   -376.4990133 -0.376499E+03  0.102E-01    0.27       0.0  T
   2   -376.4990370 -0.236819E-04  0.551E-02    0.28       1.0  T
   3   -376.4989322  0.104715E-03  0.234E-02    0.27       1.0  T
   4   -376.4990497 -0.117435E-03  0.735E-03    0.27       1.0  T
   5   -376.4990524 -0.272960E-05  0.396E-03    0.28       1.7  T
   6   -376.4990552 -0.282150E-05  0.115E-03    0.27       5.8  T
   7   -376.4990555 -0.245633E-06  0.540E-04    0.28      12.4  T
   8   -376.4990555 -0.504560E-07  0.281E-04    0.27      23.8  T
     SCC iter.                  ...        0 min,  0.406 sec
     gradient                   ...        0 min,  0.176 sec
 * total energy  :  -370.5478255 Eh     change       -0.1253889E-02 Eh
   gradient norm :     0.0131775 Eh/α   predicted    -0.1205889E-02 (  -3.83%)
   displ. norm   :     0.8250342 α      lambda       -0.1379168E-02
   maximum displ.:     0.2320873 α      in ANC's #5, #6, #29, ...

........................................................................
.............................. CYCLE   18 ..............................
........................................................................
   1   -376.4876180 -0.376488E+03  0.114E-01    0.26       0.0  T
   2   -376.4876459 -0.278779E-04  0.619E-02    0.28       1.0  T
   3   -376.4874780  0.167921E-03  0.284E-02    0.26       1.0  T
   4   -376.4876661 -0.188170E-03  0.808E-03    0.27       1.0  T
   5   -376.4876703 -0.422314E-05  0.393E-03    0.27       1.7  T
   6   -376.4876725 -0.216898E-05  0.131E-03    0.27       5.1  T
   7   -376.4876728 -0.286017E-06  0.565E-04    0.27      11.9  T
   8   -376.4876729 -0.481159E-07  0.324E-04    0.27      20.7  T
     SCC iter.                  ...        0 min,  0.407 sec
     gradient                   ...        0 min,  0.176 sec
 * total energy  :  -370.5490230 Eh     change       -0.1197518E-02 Eh
   gradient norm :     0.0111144 Eh/α   predicted    -0.1158975E-02 (  -3.22%)
   displ. norm   :     0.7887474 α      lambda       -0.1408099E-02
   maximum displ.:     0.2383650 α      in ANC's #6, #5, #40, ...

........................................................................
.............................. CYCLE   19 ..............................
........................................................................
   1   -376.4879887 -0.376488E+03  0.109E-01    0.26       0.0  T
   2   -376.4880169 -0.281765E-04  0.586E-02    0.28       1.0  T
   3   -376.4878559  0.160933E-03  0.277E-02    0.26       1.0  T
   4   -376.4880375 -0.181587E-03  0.812E-03    0.27       1.0  T
   5   -376.4880412 -0.366243E-05  0.452E-03    0.27       1.5  T
   6   -376.4880443 -0.314969E-05  0.146E-03    0.27       4.6  T
   7   -376.4880447 -0.412803E-06  0.630E-04    0.27      10.7  T
   8   -376.4880448 -0.672619E-07  0.345E-04    0.27      19.4  T
     SCC iter.                  ...        0 min,  0.407 sec
     gradient                   ...        0 min,  0.175 sec
 * total energy  :  -370.5502925 Eh     change       -0.1269420E-02 Eh
   gradient norm :     0.0106103 Eh/α   predicted    -0.1142056E-02 ( -10.03%)
   displ. norm   :     0.8040087 α      lambda       -0.1560434E-02
   maximum displ.:     0.2542248 α      in ANC's #6, #5, #40, ...

........................................................................
.............................. CYCLE   20 ..............................
........................................................................
   1   -376.4939879 -0.376494E+03  0.107E-01    0.26       0.0  T
   2   -376.4940193 -0.314259E-04  0.573E-02    0.28       1.0  T
   3   -376.4938303  0.188984E-03  0.303E-02    0.25       1.0  T
   4   -376.4940445 -0.214209E-03  0.866E-03    0.27       1.0  T
   5   -376.4940486 -0.410798E-05  0.534E-03    0.27       1.3  T
   6   -376.4940531 -0.447947E-05  0.178E-03    0.27       3.8  T
   7   -376.4940538 -0.705763E-06  0.693E-04    0.27       9.7  T
   8   -376.4940539 -0.841181E-07  0.372E-04    0.27      18.0  T
     SCC iter.                  ...        0 min,  0.400 sec
     gradient                   ...        0 min,  0.175 sec
 * total energy  :  -370.5516201 Eh     change       -0.1327629E-02 Eh
   gradient norm :     0.0180991 Eh/α   predicted    -0.1284572E-02 (  -3.24%)
   displ. norm   :     0.8224480 α      lambda       -0.1666684E-02
   maximum displ.:     0.2480038 α      in ANC's #6, #5, #40, ...
 * RMSD in coord.:     0.6198537 α      energy gain  -0.1501702E+00 Eh

generating ANC from model Hessian ...
Using Lindh-Hessian (1995)
 Shifting diagonal of input Hessian by   1.001201516373126E-002
 Lowest  eigenvalues of input Hessian
    0.010000    0.000000    0.000000    0.000000    0.000000    0.000000
    0.000000    0.010015    0.010023    0.010027    0.010041    0.010064
    0.010067    0.010072    0.010088    0.010098    0.010099    0.010128
 Highest eigenvalues
    2.273241    2.290703    2.599020    2.605721    2.648592    2.665257
 

........................................................................
.............................. CYCLE   21 ..............................
........................................................................
   1   -376.4942457 -0.376494E+03  0.122E-01    0.25       0.0  T
   2   -376.4942870 -0.413218E-04  0.659E-02    0.28       1.0  T
   3   -376.4940247  0.262312E-03  0.350E-02    0.25       1.0  T
   4   -376.4943222 -0.297469E-03  0.903E-03    0.27       1.0  T
   5   -376.4943269 -0.468503E-05  0.568E-03    0.27       1.2  T
   6   -376.4943319 -0.504957E-05  0.199E-03    0.27       3.4  T
   7   -376.4943328 -0.898804E-06  0.762E-04    0.27       8.8  T
   8   -376.4943329 -0.969649E-07  0.391E-04    0.27      17.2  T
     SCC iter.                  ...        0 min,  0.424 sec
     gradient                   ...        0 min,  0.175 sec
 * total energy  :  -370.5529986 Eh     change       -0.1378497E-02 Eh
   gradient norm :     0.0161542 Eh/α   predicted     0.0000000E+00 (-100.00%)
   displ. norm   :     0.2042370 α      lambda       -0.7925016E-03
   maximum displ.:     0.0581456 α      in ANC's #23, #46, #31, ...

........................................................................
.............................. CYCLE   22 ..............................
........................................................................
   1   -376.4976378 -0.376498E+03  0.873E-02    0.27       0.0  T
   2   -376.4976601 -0.222966E-04  0.481E-02    0.27       1.0  T
   3   -376.4976189  0.411208E-04  0.149E-02    0.27       1.0  T
   4   -376.4976719 -0.529348E-04  0.278E-03    0.27       2.4  T
   5   -376.4976721 -0.224053E-06  0.170E-03    0.27       3.9  T
   6   -376.4976726 -0.460655E-06  0.534E-04    0.27      12.6  T
   7   -376.4976726 -0.387204E-07  0.246E-04    0.27      27.2  T
     SCC iter.                  ...        0 min,  0.364 sec
     gradient                   ...        0 min,  0.175 sec
 * total energy  :  -370.5532968 Eh     change       -0.2982407E-03 Eh
   gradient norm :     0.0117709 Eh/α   predicted    -0.4128462E-03 (  38.43%)
   displ. norm   :     0.3886749 α      lambda       -0.1481297E-02
   maximum displ.:     0.0960696 α      in ANC's #4, #31, #14, ...

........................................................................
.............................. CYCLE   23 ..............................
........................................................................
   1   -376.5097797 -0.376510E+03  0.768E-02    0.26       0.0  T
   2   -376.5097985 -0.187866E-04  0.425E-02    0.27       1.0  T
   3   -376.5097034  0.950939E-04  0.218E-02    0.27       1.0  T
   4   -376.5098124 -0.109017E-03  0.522E-03    0.27       1.3  T
   5   -376.5098144 -0.196634E-05  0.303E-03    0.27       2.2  T
   6   -376.5098157 -0.133131E-05  0.108E-03    0.27       6.2  T
   7   -376.5098159 -0.207303E-06  0.499E-04    0.27      13.5  T
   8   -376.5098160 -0.390160E-07  0.277E-04    0.27      24.2  T
     SCC iter.                  ...        0 min,  0.411 sec
     gradient                   ...        0 min,  0.175 sec
 * total energy  :  -370.5540543 Eh     change       -0.7574667E-03 Eh
   gradient norm :     0.0277569 Eh/α   predicted    -0.8525386E-03 (  12.55%)
   displ. norm   :     0.3528908 α      lambda       -0.9215730E-03
   maximum displ.:     0.0958643 α      in ANC's #31, #4, #14, ...

........................................................................
.............................. CYCLE   24 ..............................
........................................................................
   1   -376.5062077 -0.376506E+03  0.601E-02    0.26       0.0  T
   2   -376.5062188 -0.111389E-04  0.323E-02    0.27       1.0  T
   3   -376.5061357  0.831376E-04  0.201E-02    0.26       1.0  T
   4   -376.5062328 -0.971223E-04  0.425E-03    0.27       1.6  T
   5   -376.5062336 -0.751083E-06  0.259E-03    0.27       2.6  T
   6   -376.5062346 -0.999303E-06  0.960E-04    0.27       7.0  T
   7   -376.5062347 -0.177179E-06  0.415E-04    0.27      16.2  T
     SCC iter.                  ...        0 min,  0.360 sec
     gradient                   ...        0 min,  0.175 sec
 * total energy  :  -370.5548182 Eh     change       -0.7639546E-03 Eh
   gradient norm :     0.0144083 Eh/α   predicted    -0.5181704E-03 ( -32.17%)
   displ. norm   :     0.7163496 α      lambda       -0.1724190E-02
   maximum displ.:     0.1934929 α      in ANC's #31, #4, #14, ...

........................................................................
.............................. CYCLE   25 ..............................
........................................................................
   1   -376.4946310 -0.376495E+03  0.114E-01    0.24       0.0  T
   2   -376.4946660 -0.349264E-04  0.610E-02    0.28       1.0  T
   3   -376.4943024  0.363599E-03  0.416E-02    0.24       1.0  T
   4   -376.4947285 -0.426116E-03  0.931E-03    0.27       1.0  T
   5   -376.4947331 -0.460614E-05  0.605E-03    0.26       1.1  T
   6   -376.4947391 -0.599682E-05  0.229E-03    0.26       2.9  T
   7   -376.4947403 -0.118068E-05  0.839E-04    0.26       8.0  T
   8   -376.4947404 -0.120192E-06  0.406E-04    0.26      16.6  T
   9   -376.4947404 -0.137052E-07  0.219E-04    0.26      30.7  T
     SCC iter.                  ...        0 min,  0.454 sec
     gradient                   ...        0 min,  0.175 sec
 * total energy  :  -370.5560861 Eh     change       -0.1267815E-02 Eh
   gradient norm :     0.0219159 Eh/α   predicted    -0.1304499E-02 (   2.89%)
   displ. norm   :     0.7241342 α      lambda       -0.1432888E-02
   maximum displ.:     0.1992686 α      in ANC's #31, #4, #14, ...

........................................................................
.............................. CYCLE   26 ..............................
........................................................................
   1   -376.4897023 -0.376490E+03  0.107E-01    0.24       0.0  T
   2   -376.4897286 -0.262957E-04  0.575E-02    0.27       1.0  T
   3   -376.4893687  0.359880E-03  0.415E-02    0.23       1.0  T
   4   -376.4897955 -0.426816E-03  0.925E-03    0.26       1.0  T
   5   -376.4898011 -0.560055E-05  0.601E-03    0.25       1.1  T
   6   -376.4898071 -0.599464E-05  0.233E-03    0.26       2.9  T
   7   -376.4898084 -0.131557E-05  0.771E-04    0.26       8.7  T
   8   -376.4898085 -0.953479E-07  0.385E-04    0.26      17.4  T
   9   -376.4898085 -0.130902E-07  0.213E-04    0.26      31.5  T
     SCC iter.                  ...        0 min,  0.457 sec
     gradient                   ...        0 min,  0.175 sec
 * total energy  :  -370.5572743 Eh     change       -0.1188202E-02 Eh
   gradient norm :     0.0240806 Eh/α   predicted    -0.1092127E-02 (  -8.09%)
   displ. norm   :     0.6970966 α      lambda       -0.1622182E-02
   maximum displ.:     0.1906299 α      in ANC's #4, #31, #14, ...

........................................................................
.............................. CYCLE   27 ..............................
........................................................................
   1   -376.4937064 -0.376494E+03  0.105E-01    0.24       0.0  T
   2   -376.4937267 -0.203339E-04  0.580E-02    0.27       1.0  T
   3   -376.4933133  0.413467E-03  0.431E-02    0.22       1.0  T
   4   -376.4937930 -0.479692E-03  0.961E-03    0.26       1.0  T
   5   -376.4938054 -0.123888E-04  0.574E-03    0.25       1.2  T
   6   -376.4938110 -0.560131E-05  0.224E-03    0.25       3.0  T
   7   -376.4938121 -0.116088E-05  0.709E-04    0.25       9.5  T
   8   -376.4938122 -0.635143E-07  0.380E-04    0.25      17.7  T
   9   -376.4938122 -0.133950E-07  0.203E-04    0.25      33.0  T
     SCC iter.                  ...        0 min,  0.453 sec
     gradient                   ...        0 min,  0.175 sec
 * total energy  :  -370.5585195 Eh     change       -0.1245197E-02 Eh
   gradient norm :     0.0169489 Eh/α   predicted    -0.1205236E-02 (  -3.21%)
   displ. norm   :     0.6625684 α      lambda       -0.2165784E-02
   maximum displ.:     0.1822225 α      in ANC's #10, #4, #14, ...

........................................................................
.............................. CYCLE   28 ..............................
........................................................................
   1   -376.5114520 -0.376511E+03  0.122E-01    0.23       0.0  T
   2   -376.5114923 -0.403295E-04  0.686E-02    0.27       1.0  T
   3   -376.5109809  0.511464E-03  0.460E-02    0.21       1.0  T
   4   -376.5115497 -0.568837E-03  0.104E-02    0.26       1.0  T
   5   -376.5115706 -0.208774E-04  0.564E-03    0.25       1.2  T
   6   -376.5115759 -0.531828E-05  0.224E-03    0.25       3.0  T
   7   -376.5115769 -0.101597E-05  0.825E-04    0.25       8.1  T
   8   -376.5115770 -0.797709E-07  0.421E-04    0.25      15.9  T
   9   -376.5115770 -0.131603E-07  0.233E-04    0.25      28.8  T
     SCC iter.                  ...        0 min,  0.447 sec
     gradient                   ...        0 min,  0.175 sec
 * total energy  :  -370.5594971 Eh     change       -0.9776933E-03 Eh
   gradient norm :     0.0228987 Eh/α   predicted    -0.1558280E-02 (  59.38%)
   displ. norm   :     0.6558282 α      lambda       -0.1887555E-02
   maximum displ.:     0.1789606 α      in ANC's #31, #4, #14, ...

........................................................................
.............................. CYCLE   29 ..............................
........................................................................
   1   -376.5001671 -0.376500E+03  0.103E-01    0.23       0.0  T
   2   -376.5001914 -0.242216E-04  0.552E-02    0.26       1.0  T
   3   -376.4999029  0.288429E-03  0.339E-02    0.22       1.0  T
   4   -376.5002200 -0.317106E-03  0.917E-03    0.26       1.0  T
   5   -376.5002259 -0.589237E-05  0.615E-03    0.24       1.1  T
   6   -376.5002342 -0.821826E-05  0.209E-03    0.25       3.2  T
   7   -376.5002351 -0.935354E-06  0.743E-04    0.25       9.0  T
   8   -376.5002352 -0.711275E-07  0.372E-04    0.25      18.0  T
     SCC iter.                  ...        0 min,  0.411 sec
     gradient                   ...        0 min,  0.175 sec
 * total energy  :  -370.5608361 Eh     change       -0.1338925E-02 Eh
   gradient norm :     0.0152975 Eh/α   predicted    -0.1349712E-02 (   0.81%)
   displ. norm   :     0.6121148 α      lambda       -0.1301471E-02
   maximum displ.:     0.1809147 α      in ANC's #4, #14, #10, ...

........................................................................
.............................. CYCLE   30 ..............................
........................................................................
   1   -376.5038367 -0.376504E+03  0.802E-02    0.23       0.0  T
   2   -376.5038528 -0.160990E-04  0.441E-02    0.26       1.0  T
   3   -376.5036395  0.213274E-03  0.277E-02    0.22       1.0  T
   4   -376.5038686 -0.229042E-03  0.756E-03    0.25       1.0  T
   5   -376.5038764 -0.788100E-05  0.462E-03    0.24       1.5  T
   6   -376.5038811 -0.466087E-05  0.151E-03    0.25       4.4  T
   7   -376.5038815 -0.424450E-06  0.567E-04    0.24      11.8  T
   8   -376.5038816 -0.466118E-07  0.280E-04    0.25      23.9  T
     SCC iter.                  ...        0 min,  0.408 sec
     gradient                   ...        0 min,  0.175 sec
 * total energy  :  -370.5618877 Eh     change       -0.1051676E-02 Eh
   gradient norm :     0.0090125 Eh/α   predicted    -0.8945580E-03 ( -14.94%)
   displ. norm   :     0.8044126 α      lambda       -0.1312112E-02
   maximum displ.:     0.2347460 α      in ANC's #4, #14, #10, ...

........................................................................
.............................. CYCLE   31 ..............................
........................................................................
   1   -376.5021870 -0.376502E+03  0.971E-02    0.22       0.0  T
   2   -376.5022025 -0.154161E-04  0.526E-02    0.26       1.0  T
   3   -376.5017683  0.434211E-03  0.366E-02    0.19       1.0  T
   4   -376.5022047 -0.436461E-03  0.118E-02    0.26       1.0  T
   5   -376.5022355 -0.307635E-04  0.602E-03    0.24       1.1  T
   6   -376.5022413 -0.587140E-05  0.178E-03    0.24       3.8  T
   7   -376.5022419 -0.507422E-06  0.691E-04    0.24       9.7  T
   8   -376.5022419 -0.499351E-07  0.373E-04    0.24      18.0  T
     SCC iter.                  ...        0 min,  0.405 sec
     gradient                   ...        0 min,  0.175 sec
 * total energy  :  -370.5630498 Eh     change       -0.1162034E-02 Eh
   gradient norm :     0.0100768 Eh/α   predicted    -0.1080576E-02 (  -7.01%)
   displ. norm   :     0.7311073 α      lambda       -0.1583028E-02
   maximum displ.:     0.2232179 α      in ANC's #10, #14, #4, ...

........................................................................
.............................. CYCLE   32 ..............................
........................................................................
   1   -376.5253983 -0.376525E+03  0.869E-02    0.23       0.0  T
   2   -376.5254341 -0.357798E-04  0.482E-02    0.24       1.0  T
   3   -376.5252724  0.161700E-03  0.268E-02    0.23       1.0  T
   4   -376.5254567 -0.184317E-03  0.703E-03    0.24       1.0  T
   5   -376.5254591 -0.236875E-05  0.464E-03    0.24       1.4  T
   6   -376.5254634 -0.433225E-05  0.208E-03    0.24       3.2  T
   7   -376.5254644 -0.972052E-06  0.797E-04    0.24       8.4  T
   8   -376.5254645 -0.119840E-06  0.374E-04    0.24      17.9  T
     SCC iter.                  ...        0 min,  0.406 sec
     gradient                   ...        0 min,  0.175 sec
 * total energy  :  -370.5639553 Eh     change       -0.9055120E-03 Eh
   gradient norm :     0.0177147 Eh/α   predicted    -0.1214599E-02 (  34.13%)
   displ. norm   :     0.7710674 α      lambda       -0.1408368E-02
   maximum displ.:     0.2192320 α      in ANC's #4, #10, #14, ...

........................................................................
.............................. CYCLE   33 ..............................
........................................................................
   1   -376.5099088 -0.376510E+03  0.966E-02    0.22       0.0  T
   2   -376.5099267 -0.178575E-04  0.510E-02    0.25       1.0  T
   3   -376.5094961  0.430606E-03  0.358E-02    0.19       1.0  T
   4   -376.5099205 -0.424404E-03  0.123E-02    0.26       1.0  T
   5   -376.5099547 -0.342019E-04  0.625E-03    0.24       1.1  T
   6   -376.5099603 -0.565503E-05  0.198E-03    0.24       3.4  T
   7   -376.5099610 -0.660331E-06  0.743E-04    0.23       9.0  T
   8   -376.5099611 -0.527003E-07  0.402E-04    0.23      16.7  T
     SCC iter.                  ...        0 min,  0.420 sec
     gradient                   ...        0 min,  0.176 sec
 * total energy  :  -370.5650587 Eh     change       -0.1103428E-02 Eh
   gradient norm :     0.0107860 Eh/α   predicted    -0.1122857E-02 (   1.76%)
   displ. norm   :     0.7604865 α      lambda       -0.1110956E-02
   maximum displ.:     0.2353979 α      in ANC's #10, #14, #4, ...

........................................................................
.............................. CYCLE   34 ..............................
........................................................................
   1   -376.5021114 -0.376502E+03  0.901E-02    0.22       0.0  T
   2   -376.5021276 -0.161610E-04  0.484E-02    0.25       1.0  T
   3   -376.5016239  0.503684E-03  0.378E-02    0.18       1.0  T
   4   -376.5021255 -0.501628E-03  0.117E-02    0.25       1.0  T
   5   -376.5021591 -0.336105E-04  0.570E-03    0.24       1.2  T
   6   -376.5021643 -0.515607E-05  0.213E-03    0.23       3.1  T
   7   -376.5021651 -0.800114E-06  0.753E-04    0.23       8.9  T
   8   -376.5021651 -0.533562E-07  0.405E-04    0.23      16.6  T
     SCC iter.                  ...        0 min,  0.413 sec
     gradient                   ...        0 min,  0.175 sec
 * total energy  :  -370.5659281 Eh     change       -0.8693366E-03 Eh
   gradient norm :     0.0148641 Eh/α   predicted    -0.8767353E-03 (   0.85%)
   displ. norm   :     0.7395908 α      lambda       -0.1168286E-02
   maximum displ.:     0.2384921 α      in ANC's #10, #14, #4, ...

........................................................................
.............................. CYCLE   35 ..............................
........................................................................
   1   -376.5040541 -0.376504E+03  0.781E-02    0.22       0.0  T
   2   -376.5040702 -0.160975E-04  0.415E-02    0.23       1.0  T
   3   -376.5039712  0.990248E-04  0.202E-02    0.22       1.0  T
   4   -376.5040800 -0.108787E-03  0.638E-03    0.24       1.1  T
   5   -376.5040793  0.642770E-06  0.476E-03    0.23       1.4  T
   6   -376.5040856 -0.629982E-05  0.150E-03    0.23       4.5  T
   7   -376.5040862 -0.577545E-06  0.570E-04    0.23      11.8  T
   8   -376.5040863 -0.615256E-07  0.251E-04    0.23      26.7  T
     SCC iter.                  ...        0 min,  0.413 sec
     gradient                   ...        0 min,  0.175 sec
 * total energy  :  -370.5669559 Eh     change       -0.1027840E-02 Eh
   gradient norm :     0.0117420 Eh/α   predicted    -0.9036709E-03 ( -12.08%)
   displ. norm   :     0.7180587 α      lambda       -0.1577278E-02
   maximum displ.:     0.2353357 α      in ANC's #10, #14, #4, ...

........................................................................
.............................. CYCLE   36 ..............................
........................................................................
   1   -376.5203831 -0.376520E+03  0.780E-02    0.23       0.0  T
   2   -376.5204202 -0.371555E-04  0.424E-02    0.23       1.0  T
   3   -376.5203025  0.117704E-03  0.238E-02    0.24       1.0  T
   4   -376.5204394 -0.136837E-03  0.643E-03    0.23       1.0  T
   5   -376.5204416 -0.219373E-05  0.389E-03    0.23       1.7  T
   6   -376.5204439 -0.229599E-05  0.208E-03    0.23       3.2  T
   7   -376.5204450 -0.117404E-05  0.772E-04    0.23       8.7  T
   8   -376.5204452 -0.147607E-06  0.336E-04    0.23      20.0  T
   9   -376.5204452 -0.122954E-07  0.217E-04    0.23      30.9  T
     SCC iter.                  ...        0 min,  0.455 sec
     gradient                   ...        0 min,  0.175 sec
 * total energy  :  -370.5680743 Eh     change       -0.1118353E-02 Eh
   gradient norm :     0.0173482 Eh/α   predicted    -0.1195266E-02 (   6.88%)
   displ. norm   :     0.8127973 α      lambda       -0.1295573E-02
   maximum displ.:     0.2666270 α      in ANC's #10, #14, #4, ...

........................................................................
.............................. CYCLE   37 ..............................
........................................................................
   1   -376.5171815 -0.376517E+03  0.830E-02    0.23       0.0  T
   2   -376.5172068 -0.253511E-04  0.439E-02    0.23       1.0  T
   3   -376.5171293  0.775113E-04  0.187E-02    0.23       1.0  T
   4   -376.5172169 -0.875437E-04  0.666E-03    0.23       1.0  T
   5   -376.5172211 -0.427248E-05  0.328E-03    0.23       2.0  T
   6   -376.5172222 -0.101524E-05  0.136E-03    0.23       4.9  T
   7   -376.5172225 -0.374426E-06  0.581E-04    0.23      11.6  T
   8   -376.5172226 -0.851002E-07  0.290E-04    0.23      23.1  T
     SCC iter.                  ...        0 min,  0.406 sec
     gradient                   ...        0 min,  0.175 sec
 * total energy  :  -370.5692425 Eh     change       -0.1168294E-02 Eh
   gradient norm :     0.0135434 Eh/α   predicted    -0.1075743E-02 (  -7.92%)
   displ. norm   :     0.8154061 α      lambda       -0.1424147E-02
   maximum displ.:     0.2657849 α      in ANC's #10, #14, #4, ...

........................................................................
.............................. CYCLE   38 ..............................
........................................................................
   1   -376.5161852 -0.376516E+03  0.787E-02    0.24       0.0  T
   2   -376.5162120 -0.267718E-04  0.412E-02    0.23       1.0  T
   3   -376.5161755  0.365243E-04  0.145E-02    0.24       1.0  T
   4   -376.5162159 -0.404418E-04  0.638E-03    0.23       1.1  T
   5   -376.5162206 -0.465920E-05  0.297E-03    0.24       2.3  T
   6   -376.5162216 -0.102043E-05  0.100E-03    0.24       6.7  T
   7   -376.5162218 -0.174933E-06  0.375E-04    0.24      17.9  T
   8   -376.5162218 -0.182118E-07  0.199E-04    0.24      33.7  T
     SCC iter.                  ...        0 min,  0.400 sec
     gradient                   ...        0 min,  0.175 sec
 * total energy  :  -370.5704819 Eh     change       -0.1239400E-02 Eh
   gradient norm :     0.0116828 Eh/α   predicted    -0.1185523E-02 (  -4.35%)
   displ. norm   :     0.8423337 α      lambda       -0.1439738E-02
   maximum displ.:     0.2740730 α      in ANC's #10, #14, #4, ...

........................................................................
.............................. CYCLE   39 ..............................
........................................................................
   1   -376.5095435 -0.376510E+03  0.835E-02    0.24       0.0  T
   2   -376.5095635 -0.199940E-04  0.437E-02    0.24       1.0  T
   3   -376.5095226  0.409312E-04  0.150E-02    0.23       1.0  T
   4   -376.5095620 -0.394098E-04  0.723E-03    0.24       1.0  T
   5   -376.5095674 -0.539992E-05  0.422E-03    0.23       1.6  T
   6   -376.5095720 -0.458118E-05  0.138E-03    0.24       4.9  T
   7   -376.5095724 -0.438662E-06  0.481E-04    0.24      13.9  T
   8   -376.5095725 -0.319437E-07  0.253E-04    0.24      26.5  T
     SCC iter.                  ...        0 min,  0.414 sec
     gradient                   ...        0 min,  0.175 sec
 * total energy  :  -370.5717021 Eh     change       -0.1220131E-02 Eh
   gradient norm :     0.0123587 Eh/α   predicted    -0.1230634E-02 (   0.86%)
   displ. norm   :     0.7620695 α      lambda       -0.1592463E-02
   maximum displ.:     0.2281496 α      in ANC's #10, #14, #37, ...

........................................................................
.............................. CYCLE   40 ..............................
........................................................................
   1   -376.5230164 -0.376523E+03  0.938E-02    0.25       0.0  T
   2   -376.5230463 -0.299464E-04  0.511E-02    0.24       1.0  T
   3   -376.5229816  0.647228E-04  0.200E-02    0.25       1.0  T
   4   -376.5230582 -0.765997E-04  0.627E-03    0.25       1.1  T
   5   -376.5230595 -0.128765E-05  0.355E-03    0.24       1.9  T
   6   -376.5230616 -0.211811E-05  0.158E-03    0.25       4.3  T
   7   -376.5230622 -0.622525E-06  0.665E-04    0.24      10.1  T
   8   -376.5230623 -0.793971E-07  0.362E-04    0.24      18.5  T
     SCC iter.                  ...        0 min,  0.406 sec
     gradient                   ...        0 min,  0.175 sec
 * total energy  :  -370.5724264 Eh     change       -0.7242788E-03 Eh
   gradient norm :     0.0225880 Eh/α   predicted    -0.1258652E-02 (  73.78%)
   displ. norm   :     0.6325438 α      lambda       -0.1936725E-02
   maximum displ.:     0.2002661 α      in ANC's #10, #37, #14, ...

........................................................................
.............................. CYCLE   41 ..............................
........................................................................
   1   -376.5165037 -0.376517E+03  0.687E-02    0.24       0.0  T
   2   -376.5165209 -0.171905E-04  0.356E-02    0.25       1.0  T
   3   -376.5164597  0.611385E-04  0.173E-02    0.24       1.0  T
   4   -376.5165283 -0.686036E-04  0.606E-03    0.25       1.1  T
   5   -376.5165306 -0.227703E-05  0.326E-03    0.24       2.1  T
   6   -376.5165319 -0.134076E-05  0.176E-03    0.25       3.8  T
   7   -376.5165328 -0.862307E-06  0.491E-04    0.25      13.7  T
   8   -376.5165328 -0.352726E-07  0.272E-04    0.25      24.6  T
     SCC iter.                  ...        0 min,  0.407 sec
     gradient                   ...        0 min,  0.175 sec
 * total energy  :  -370.5737043 Eh     change       -0.1277934E-02 Eh
   gradient norm :     0.0145993 Eh/α   predicted    -0.1355816E-02 (   6.09%)
   displ. norm   :     0.7761285 α      lambda       -0.1362269E-02
   maximum displ.:     0.2540056 α      in ANC's #10, #14, #4, ...

........................................................................
.............................. CYCLE   42 ..............................
........................................................................
   1   -376.5091299 -0.376509E+03  0.716E-02    0.24       0.0  T
   2   -376.5091485 -0.185363E-04  0.381E-02    0.25       1.0  T
   3   -376.5090887  0.597676E-04  0.172E-02    0.24       1.0  T
   4   -376.5091552 -0.665152E-04  0.617E-03    0.25       1.1  T
   5   -376.5091579 -0.265613E-05  0.344E-03    0.25       2.0  T
   6   -376.5091596 -0.173234E-05  0.164E-03    0.25       4.1  T
   7   -376.5091603 -0.684012E-06  0.537E-04    0.25      12.5  T
   8   -376.5091604 -0.615585E-07  0.264E-04    0.25      25.4  T
     SCC iter.                  ...        0 min,  0.407 sec
     gradient                   ...        0 min,  0.175 sec
 * total energy  :  -370.5747154 Eh     change       -0.1011062E-02 Eh
   gradient norm :     0.0148482 Eh/α   predicted    -0.1091435E-02 (   7.95%)
   displ. norm   :     0.6847630 α      lambda       -0.1328293E-02
   maximum displ.:     0.2329807 α      in ANC's #10, #14, #4, ...
 * RMSD in coord.:     0.9130163 α      energy gain  -0.2309527E-01 Eh

generating ANC from model Hessian ...
Using Lindh-Hessian (1995)
 Shifting diagonal of input Hessian by   1.001918604432091E-002
 Lowest  eigenvalues of input Hessian
    0.010000    0.010011    0.000000    0.000000    0.000000    0.000000
    0.000000    0.000000    0.010025    0.010036    0.010039    0.010056
    0.010067    0.010074    0.010079    0.010091    0.010112    0.010124
 Highest eigenvalues
    2.277774    2.291984    2.596418    2.608858    2.657957    2.661211
 

........................................................................
.............................. CYCLE   43 ..............................
........................................................................
   1   -376.5177192 -0.376518E+03  0.611E-02    0.24       0.0  T
   2   -376.5177311 -0.118947E-04  0.327E-02    0.25       1.0  T
   3   -376.5177084  0.226856E-04  0.117E-02    0.24       1.0  T
   4   -376.5177350 -0.266724E-04  0.434E-03    0.25       1.5  T
   5   -376.5177361 -0.108852E-05  0.211E-03    0.25       3.2  T
   6   -376.5177369 -0.752855E-06  0.792E-04    0.25       8.5  T
   7   -376.5177370 -0.964118E-07  0.425E-04    0.25      15.8  T
     SCC iter.                  ...        0 min,  0.351 sec
     gradient                   ...        0 min,  0.175 sec
 * total energy  :  -370.5758204 Eh     change       -0.1105011E-02 Eh
   gradient norm :     0.0106658 Eh/α   predicted     0.0000000E+00 (-100.00%)
   displ. norm   :     0.1533276 α      lambda       -0.5015025E-03
   maximum displ.:     0.0360305 α      in ANC's #40, #14, #12, ...

........................................................................
.............................. CYCLE   44 ..............................
........................................................................
   1   -376.5242568 -0.376524E+03  0.310E-02    0.25       0.0  T
   2   -376.5242599 -0.311243E-05  0.170E-02    0.25       1.0  T
   3   -376.5242512  0.871499E-05  0.715E-03    0.25       1.0  T
   4   -376.5242615 -0.102974E-04  0.192E-03    0.25       3.5  T
   5   -376.5242616 -0.126654E-06  0.113E-03    0.25       5.9  T
   6   -376.5242618 -0.177961E-06  0.537E-04    0.25      12.5  T
   7   -376.5242619 -0.589479E-07  0.267E-04    0.25      25.2  T
     SCC iter.                  ...        0 min,  0.353 sec
     gradient                   ...        0 min,  0.175 sec
 * total energy  :  -370.5761920 Eh     change       -0.3716654E-03 Eh
   gradient norm :     0.0046155 Eh/α   predicted    -0.2566477E-03 ( -30.95%)
   displ. norm   :     0.4692637 α      lambda       -0.1034899E-02
   maximum displ.:     0.1136910 α      in ANC's #40, #25, #14, ...

........................................................................
.............................. CYCLE   45 ..............................
........................................................................
   1   -376.5353653 -0.376535E+03  0.103E-01    0.24       0.0  T
   2   -376.5353952 -0.298468E-04  0.558E-02    0.24       1.0  T
   3   -376.5353148  0.803484E-04  0.204E-02    0.24       1.0  T
   4   -376.5354102 -0.953233E-04  0.541E-03    0.24       1.2  T
   5   -376.5354117 -0.158494E-05  0.299E-03    0.24       2.2  T
   6   -376.5354132 -0.144085E-05  0.109E-03    0.24       6.1  T
   7   -376.5354133 -0.169151E-06  0.610E-04    0.24      11.0  T
   8   -376.5354134 -0.321363E-07  0.440E-04    0.24      15.2  T
     SCC iter.                  ...        0 min,  0.415 sec
     gradient                   ...        0 min,  0.175 sec
 * total energy  :  -370.5764513 Eh     change       -0.2592487E-03 Eh
   gradient norm :     0.0175362 Eh/α   predicted    -0.6317466E-03 ( 143.68%)
   displ. norm   :     0.3574909 α      lambda       -0.1172243E-02
   maximum displ.:     0.0977102 α      in ANC's #40, #12, #14, ...

........................................................................
.............................. CYCLE   46 ..............................
........................................................................
   1   -376.5371960 -0.376537E+03  0.846E-02    0.24       0.0  T
   2   -376.5372157 -0.196667E-04  0.457E-02    0.24       1.0  T
   3   -376.5372066  0.907285E-05  0.888E-03    0.23       1.0  T
   4   -376.5372207 -0.140937E-04  0.399E-03    0.24       1.7  T
   5   -376.5372217 -0.101888E-05  0.242E-03    0.24       2.8  T
   6   -376.5372232 -0.145568E-05  0.857E-04    0.24       7.8  T
   7   -376.5372233 -0.155799E-06  0.410E-04    0.24      16.4  T
   8   -376.5372233 -0.221099E-07  0.253E-04    0.24      26.5  T
     SCC iter.                  ...        0 min,  0.413 sec
     gradient                   ...        0 min,  0.176 sec
 * total energy  :  -370.5772050 Eh     change       -0.7537551E-03 Eh
   gradient norm :     0.0130980 Eh/α   predicted    -0.6610892E-03 ( -12.29%)
   displ. norm   :     0.4788471 α      lambda       -0.1091838E-02
   maximum displ.:     0.1357445 α      in ANC's #40, #14, #12, ...

........................................................................
.............................. CYCLE   47 ..............................
........................................................................
   1   -376.5275500 -0.376528E+03  0.939E-02    0.23       0.0  T
   2   -376.5275754 -0.253615E-04  0.501E-02    0.24       1.0  T
   3   -376.5275231  0.522415E-04  0.141E-02    0.22       1.0  T
   4   -376.5275736 -0.504107E-04  0.709E-03    0.25       1.0  T
   5   -376.5275844 -0.108689E-04  0.361E-03    0.24       1.9  T
   6   -376.5275871 -0.270631E-05  0.102E-03    0.24       6.6  T
   7   -376.5275873 -0.151844E-06  0.458E-04    0.24      14.7  T
   8   -376.5275873 -0.199003E-07  0.260E-04    0.24      25.8  T
     SCC iter.                  ...        0 min,  0.408 sec
     gradient                   ...        0 min,  0.175 sec
 * total energy  :  -370.5778109 Eh     change       -0.6058519E-03 Eh
   gradient norm :     0.0110803 Eh/α   predicted    -0.6710966E-03 (  10.77%)
   displ. norm   :     0.5281907 α      lambda       -0.9467587E-03
   maximum displ.:     0.1620478 α      in ANC's #40, #14, #12, ...

........................................................................
.............................. CYCLE   48 ..............................
........................................................................
   1   -376.5222120 -0.376522E+03  0.715E-02    0.23       0.0  T
   2   -376.5222261 -0.140487E-04  0.370E-02    0.24       1.0  T
   3   -376.5221571  0.690013E-04  0.156E-02    0.22       1.0  T
   4   -376.5222254 -0.683625E-04  0.662E-03    0.24       1.0  T
   5   -376.5222322 -0.681752E-05  0.399E-03    0.23       1.7  T
   6   -376.5222360 -0.375305E-05  0.911E-04    0.24       7.4  T
   7   -376.5222361 -0.104458E-06  0.421E-04    0.24      15.9  T
   8   -376.5222361 -0.208014E-07  0.236E-04    0.24      28.4  T
     SCC iter.                  ...        0 min,  0.407 sec
     gradient                   ...        0 min,  0.175 sec
 * total energy  :  -370.5785496 Eh     change       -0.7386874E-03 Eh
   gradient norm :     0.0116847 Eh/α   predicted    -0.6054454E-03 ( -18.04%)
   displ. norm   :     0.5610835 α      lambda       -0.1167100E-02
   maximum displ.:     0.1747285 α      in ANC's #40, #7, #12, ...

........................................................................
.............................. CYCLE   49 ..............................
........................................................................
   1   -376.5207789 -0.376521E+03  0.812E-02    0.22       0.0  T
   2   -376.5207973 -0.184157E-04  0.432E-02    0.24       1.0  T
   3   -376.5206780  0.119325E-03  0.196E-02    0.21       1.0  T
   4   -376.5207966 -0.118655E-03  0.758E-03    0.24       1.0  T
   5   -376.5208086 -0.119786E-04  0.430E-03    0.23       1.6  T
   6   -376.5208125 -0.395103E-05  0.955E-04    0.23       7.0  T
   7   -376.5208126 -0.944081E-07  0.504E-04    0.23      13.3  T
   8   -376.5208127 -0.249071E-07  0.284E-04    0.23      23.6  T
     SCC iter.                  ...        0 min,  0.409 sec
     gradient                   ...        0 min,  0.175 sec
 * total energy  :  -370.5793140 Eh     change       -0.7644201E-03 Eh
   gradient norm :     0.0106988 Eh/α   predicted    -0.7672605E-03 (   0.37%)
   displ. norm   :     0.6607122 α      lambda       -0.1332209E-02
   maximum displ.:     0.1952680 α      in ANC's #40, #12, #14, ...

........................................................................
.............................. CYCLE   50 ..............................
........................................................................
   1   -376.5227730 -0.376523E+03  0.113E-01    0.23       0.0  T
   2   -376.5228127 -0.397458E-04  0.613E-02    0.24       1.0  T
   3   -376.5227567  0.560081E-04  0.182E-02    0.22       1.0  T
   4   -376.5228254 -0.686897E-04  0.647E-03    0.24       1.0  T
   5   -376.5228241  0.135472E-05  0.475E-03    0.23       1.4  T
   6   -376.5228316 -0.758543E-05  0.125E-03    0.24       5.4  T
   7   -376.5228320 -0.340813E-06  0.539E-04    0.23      12.5  T
   8   -376.5228320 -0.302896E-07  0.285E-04    0.23      23.5  T
     SCC iter.                  ...        0 min,  0.404 sec
     gradient                   ...        0 min,  0.175 sec
 * total energy  :  -370.5796642 Eh     change       -0.3501739E-03 Eh
   gradient norm :     0.0158689 Eh/α   predicted    -0.9568880E-03 ( 173.26%)
   displ. norm   :     0.5127305 α      lambda       -0.1507883E-02
   maximum displ.:     0.1454781 α      in ANC's #40, #12, #7, ...

........................................................................
.............................. CYCLE   51 ..............................
........................................................................
   1   -376.5184811 -0.376518E+03  0.860E-02    0.23       0.0  T
   2   -376.5185070 -0.258957E-04  0.456E-02    0.24       1.0  T
   3   -376.5184806  0.264373E-04  0.123E-02    0.22       1.0  T
   4   -376.5185073 -0.267455E-04  0.624E-03    0.24       1.1  T
   5   -376.5185130 -0.565522E-05  0.391E-03    0.23       1.7  T
   6   -376.5185171 -0.408743E-05  0.123E-03    0.23       5.5  T
   7   -376.5185174 -0.303345E-06  0.407E-04    0.23      16.5  T
   8   -376.5185174 -0.108108E-07  0.250E-04    0.23      26.8  T
     SCC iter.                  ...        0 min,  0.400 sec
     gradient                   ...        0 min,  0.175 sec
 * total energy  :  -370.5806089 Eh     change       -0.9447608E-03 Eh
   gradient norm :     0.0148879 Eh/α   predicted    -0.9521485E-03 (   0.78%)
   displ. norm   :     0.3605098 α      lambda       -0.1237694E-02
   maximum displ.:     0.1062344 α      in ANC's #12, #7, #40, ...

........................................................................
.............................. CYCLE   52 ..............................
........................................................................
   1   -376.5314276 -0.376531E+03  0.755E-02    0.23       0.0  T
   2   -376.5314476 -0.200182E-04  0.413E-02    0.23       1.0  T
   3   -376.5313989  0.487062E-04  0.139E-02    0.22       1.0  T
   4   -376.5314501 -0.511799E-04  0.529E-03    0.24       1.3  T
   5   -376.5314567 -0.659152E-05  0.263E-03    0.23       2.6  T
   6   -376.5314578 -0.114816E-05  0.127E-03    0.23       5.3  T
   7   -376.5314581 -0.340050E-06  0.430E-04    0.23      15.6  T
   8   -376.5314582 -0.262205E-07  0.226E-04    0.23      29.7  T
     SCC iter.                  ...        0 min,  0.426 sec
     gradient                   ...        0 min,  0.175 sec
 * total energy  :  -370.5811535 Eh     change       -0.5445361E-03 Eh
   gradient norm :     0.0132134 Eh/α   predicted    -0.6992746E-03 (  28.42%)
   displ. norm   :     0.6998402 α      lambda       -0.1126233E-02
   maximum displ.:     0.1998379 α      in ANC's #40, #12, #7, ...

........................................................................
.............................. CYCLE   53 ..............................
........................................................................
   1   -376.5286997 -0.376529E+03  0.748E-02    0.22       0.0  T
   2   -376.5287162 -0.164377E-04  0.385E-02    0.23       1.0  T
   3   -376.5286793  0.368846E-04  0.138E-02    0.22       1.0  T
   4   -376.5287167 -0.374045E-04  0.640E-03    0.24       1.0  T
   5   -376.5287179 -0.126343E-05  0.443E-03    0.23       1.5  T
   6   -376.5287237 -0.579401E-05  0.132E-03    0.23       5.1  T
   7   -376.5287242 -0.461610E-06  0.484E-04    0.23      13.9  T
   8   -376.5287242 -0.432425E-07  0.224E-04    0.23      30.0  T
     SCC iter.                  ...        0 min,  0.410 sec
     gradient                   ...        0 min,  0.175 sec
 * total energy  :  -370.5821159 Eh     change       -0.9624250E-03 Eh
   gradient norm :     0.0075424 Eh/α   predicted    -0.8389187E-03 ( -12.83%)
   displ. norm   :     0.7929161 α      lambda       -0.1078300E-02
   maximum displ.:     0.2246654 α      in ANC's #12, #40, #7, ...

........................................................................
.............................. CYCLE   54 ..............................
........................................................................
   1   -376.5289649 -0.376529E+03  0.858E-02    0.23       0.0  T
   2   -376.5289842 -0.193240E-04  0.443E-02    0.23       1.0  T
   3   -376.5289330  0.511977E-04  0.164E-02    0.22       1.0  T
   4   -376.5289889 -0.558736E-04  0.676E-03    0.23       1.0  T
   5   -376.5289895 -0.595395E-06  0.439E-03    0.23       1.5  T
   6   -376.5289944 -0.487336E-05  0.155E-03    0.23       4.3  T
   7   -376.5289951 -0.727594E-06  0.600E-04    0.23      11.2  T
   8   -376.5289952 -0.865523E-07  0.250E-04    0.23      26.8  T
     SCC iter.                  ...        0 min,  0.408 sec
     gradient                   ...        0 min,  0.175 sec
 * total energy  :  -370.5830101 Eh     change       -0.8942053E-03 Eh
   gradient norm :     0.0101367 Eh/α   predicted    -0.8781313E-03 (  -1.80%)
   displ. norm   :     0.7777655 α      lambda       -0.1017970E-02
   maximum displ.:     0.2277978 α      in ANC's #12, #7, #40, ...

........................................................................
.............................. CYCLE   55 ..............................
........................................................................
   1   -376.5320484 -0.376532E+03  0.802E-02    0.22       0.0  T
   2   -376.5320650 -0.165453E-04  0.422E-02    0.23       1.0  T
   3   -376.5319920  0.729508E-04  0.182E-02    0.22       1.0  T
   4   -376.5320696 -0.775694E-04  0.683E-03    0.24       1.0  T
   5   -376.5320703 -0.672001E-06  0.481E-03    0.23       1.4  T
   6   -376.5320765 -0.626456E-05  0.164E-03    0.23       4.1  T
   7   -376.5320773 -0.788631E-06  0.612E-04    0.23      11.0  T
   8   -376.5320774 -0.794058E-07  0.268E-04    0.23      25.1  T
     SCC iter.                  ...        0 min,  0.407 sec
     gradient                   ...        0 min,  0.175 sec
 * total energy  :  -370.5838119 Eh     change       -0.8017775E-03 Eh
   gradient norm :     0.0139537 Eh/α   predicted    -0.8168842E-03 (   1.88%)
   displ. norm   :     0.7384645 α      lambda       -0.1053060E-02
   maximum displ.:     0.2167719 α      in ANC's #12, #7, #6, ...

........................................................................
.............................. CYCLE   56 ..............................
........................................................................
   1   -376.5337361 -0.376534E+03  0.806E-02    0.22       0.0  T
   2   -376.5337532 -0.170838E-04  0.421E-02    0.23       1.0  T
   3   -376.5336840  0.691316E-04  0.176E-02    0.22       1.0  T
   4   -376.5337555 -0.714424E-04  0.702E-03    0.24       1.0  T
   5   -376.5337581 -0.266509E-05  0.482E-03    0.22       1.4  T
   6   -376.5337643 -0.617320E-05  0.170E-03    0.23       3.9  T
   7   -376.5337651 -0.821981E-06  0.596E-04    0.23      11.3  T
   8   -376.5337652 -0.710264E-07  0.274E-04    0.23      24.5  T
     SCC iter.                  ...        0 min,  0.406 sec
     gradient                   ...        0 min,  0.175 sec
[...]
   191   1 H    0.996 --    83 C    0.979
   192   1 H    0.997 --    84 C    0.967
   193   1 H    0.999 --    85 C    0.964
   194   1 H    0.998 --    87 C    0.966
   195   1 H    0.996 --    88 C    0.959
   196   1 H    0.996 --    91 C    0.979
   197   1 H    0.997 --    91 C    0.983
   198   1 H    0.997 --    91 C    0.980
   199   1 H    0.998 --    92 C    0.966
   200   1 H    0.999 --    93 C    0.958
   201   1 H    0.997 --    97 C    0.956
   202   1 H    0.998 --   101 C    0.961
   203   1 H    0.997 --   102 C    0.967
   204   1 H    0.997 --   103 C    0.968
   205   1 H    0.997 --   106 C    0.970
   206   1 H    0.998 --   106 C    0.970
   207   1 H    0.998 --   107 C    0.979
   208   1 H    0.998 --   107 C    0.986
   209   1 H    0.996 --   107 C    0.978
   210   1 H    0.998 --   108 C    0.959
   211   1 H    0.998 --   113 C    0.968
   212   1 H    0.997 --   114 C    0.968
   213   1 H    0.997 --   115 C    0.968
   214   1 H    0.998 --   118 C    0.974
   215   1 H    0.996 --   118 C    0.969
   216   1 H    0.997 --   119 C    0.984
   217   1 H    0.996 --   119 C    0.974
   218   1 H    0.998 --   119 C    0.986
   219   1 H    0.998 --   120 C    0.957
   220   1 H    0.996 --   123 C    0.959
   221   1 H    0.994 --   126 C    0.941
   222   1 H    0.992 --   131 C    0.956
 ---------------------------------------------------------------------------

Topologies differ in bond orders
Writing corrected topology to xtbtopo.mol

molecular dipole:
                 x           y           z       tot (Debye)
 q only:       -2.760       0.081      -0.102
   full:       -3.741       0.217      -1.368      10.140
molecular quadrupole (traceless):
                xx          xy          yy          xz          yz          zz
 q only:      -18.328      28.242      12.882     -55.322      66.574       5.446
  q+dip:      -46.653      12.377      10.884     -54.156      63.449      35.768
   full:      -49.520       6.917      17.186     -59.108      68.189      32.334

           -------------------------------------------------
          |                Geometry Summary                 |
           -------------------------------------------------

      molecular mass/u    :     2119.3630789
   center of mass at/Å    :        0.2069504       0.1316037      -0.0541848
  moments of inertia/u·Å² :        0.4706831E+05   0.1154409E+06   0.1428838E+06
rotational constants/cm⁻¹ :        0.3581525E-03   0.1460282E-03   0.1179814E-03

 * 209 selected distances

     #   Z          #   Z                                           value/Å
     1   6 C        2   6 C                                       1.3592816
     3   6 C        4   8 O                                       1.2105769
     5   6 C        6   6 C                                       1.3923507
     6   6 C        7   6 C                                       1.3734490
     7   6 C        8   6 C                                       1.4029078
     8   6 C        9   6 C                                       1.3746188
     5   6 C       10   6 C                                       1.4091594
     9   6 C       10   6 C                                       1.3992791
    11   6 C       12   6 C                                       1.3674520
    13   6 C       14   7 N                                       1.1477802
    15   6 C       16   7 N                                       1.1478373
     8   6 C       17   6 C                                       1.5082430
    17   6 C       18   6 C                                       1.5441841
    19   6 C       20   6 C                                       1.3268034
    18   6 C       22   6 C                                       1.5345863
    21   6 C       22   6 C                                       1.5340286
     7   6 C       23   6 C                                       1.5077654
    17   6 C       23   6 C                                       1.5628134
    21   6 C       23   6 C                                       1.5434227
     1   6 C       24   6 C                                       1.4214002
    24   6 C       25   6 C                                       1.3649211
    25   6 C       26   6 C                                       1.4129044
    26   6 C       27   6 C                                       1.4025503
    28   6 C       29   6 C                                       1.3897852
    29   6 C       30   6 C                                       1.3838374
    30   6 C       31   6 C                                       1.3838104
    31   6 C       32   6 C                                       1.3871213
    34   6 C       35   6 C                                       1.5154052
    28   6 C       36   6 C                                       1.3874405
    32   6 C       36   6 C                                       1.3867707
    27   6 C       37   6 C                                       1.3792775
    37   6 C       38   6 C                                       1.4173054
    38   6 C       39   6 C                                       1.4061890
    40   6 C       41   6 C                                       1.3943921
    41   6 C       42   6 C                                       1.3815211
    42   6 C       43   6 C                                       1.3846768
    43   6 C       44   6 C                                       1.3887350
    46   6 C       47   6 C                                       1.5173528
    40   6 C       48   6 C                                       1.3886891
    44   6 C       48   6 C                                       1.3908518
    26   6 C       49   6 C                                       1.4190469
    39   6 C       49   6 C                                       1.3882004
    49   6 C       50  16 S                                       1.7422397
    38   6 C       51   6 C                                       1.4215321
    51   6 C       52   6 C                                       1.3621552
    37   6 C       53  16 S                                       1.7434633
    52   6 C       54   6 C                                       1.4358398
    54   6 C       55   6 C                                       1.3875567
    55   6 C       56   7 N                                       1.4102292
    56   7 N       57   6 C                                       1.3953182
    57   6 C       58   6 C                                       1.3955149
    58   6 C       59   6 C                                       1.3817427
    59   6 C       60   6 C                                       1.3867416
    60   6 C       63   6 C                                       1.3898481
    57   6 C       64   6 C                                       1.3993685
    63   6 C       64   6 C                                       1.3769969
    56   7 N       65   6 C                                       1.4019740
    65   6 C       66   6 C                                       1.3967622
    66   6 C       67   6 C                                       1.3759183
    67   6 C       68   6 C                                       1.3916123
    68   6 C       71   6 C                                       1.3868638
    65   6 C       72   6 C                                       1.3946401
    71   6 C       72   6 C                                       1.3818039
    55   6 C       73   6 C                                       1.4093966
    73   6 C       74  16 S                                       1.7305480
    74  16 S       75   6 C                                       1.7466408
    75   6 C       76   6 C                                       1.3820874
    76   6 C       77   7 N                                       1.4071082
    77   7 N       78   6 C                                       1.3903205
    78   6 C       79   6 C                                       1.3936254
    79   6 C       80   6 C                                       1.3811011
    80   6 C       81   6 C                                       1.3880721
    81   6 C       84   6 C                                       1.3927394
    78   6 C       85   6 C                                       1.3969348
    84   6 C       85   6 C                                       1.3764647
    77   7 N       86   6 C                                       1.4047210
    86   6 C       87   6 C                                       1.3968579
    87   6 C       88   6 C                                       1.3756182
    88   6 C       89   6 C                                       1.3923119
    89   6 C       92   6 C                                       1.3870189
    86   6 C       93   6 C                                       1.3921425
    92   6 C       93   6 C                                       1.3815178
    73   6 C       94   6 C                                       1.3904657
    76   6 C       94   6 C                                       1.4093007
    54   6 C       95  16 S                                       1.7495770
    94   6 C       95  16 S                                       1.7297576
    75   6 C       96   6 C                                       1.4383228
    96   6 C       97   6 C                                       1.3587503
    97   6 C       98   6 C                                       1.4188486
    98   6 C       99   6 C                                       1.4022142
   100   6 C      101   6 C                                       1.3905103
   101   6 C      102   6 C                                       1.3847813
   102   6 C      103   6 C                                       1.3788628
   103   6 C      104   6 C                                       1.3938881
   106   6 C      107   6 C                                       1.5159503
   100   6 C      108   6 C                                       1.3933511
   104   6 C      108   6 C                                       1.3847970
    99   6 C      109   6 C                                       1.3887484
   109   6 C      110   6 C                                       1.4201344
   110   6 C      111   6 C                                       1.4128040
   112   6 C      113   6 C                                       1.3935795
   113   6 C      114   6 C                                       1.3838967
   114   6 C      115   6 C                                       1.3791013
   115   6 C      116   6 C                                       1.3945492
   118   6 C      119   6 C                                       1.5165041
   112   6 C      120   6 C                                       1.3931246
   116   6 C      120   6 C                                       1.3868624
    98   6 C      121   6 C                                       1.4214978
   111   6 C      121   6 C                                       1.3833212
    96   6 C      122  16 S                                       1.7529157 (max)
   121   6 C      122  16 S                                       1.7443696
   110   6 C      123   6 C                                       1.4053385
   123   6 C      124   6 C                                       1.3819291
   109   6 C      125  16 S                                       1.7419361
   124   6 C      125  16 S                                       1.7523991
   124   6 C      126   6 C                                       1.4122042
   126   6 C      127   6 C                                       1.3634179
   128   6 C      129   8 O                                       1.2133325
   130   6 C      131   6 C                                       1.4023291
   131   6 C      132   6 C                                       1.3686420
   132   6 C      133  17 Cl                                      1.7023182
   132   6 C      134  16 S                                       1.7477838
   130   6 C      135   6 C                                       1.3873205
   134  16 S      135   6 C                                       1.7161902
   135   6 C      136   6 C                                       1.4354537
   136   6 C      137   6 C                                       1.3726724
   138   6 C      139   7 N                                       1.1488478
   140   6 C      141   7 N                                       1.1473952
     1   6 C      142   1 H                                       1.0845814
     6   6 C      143   1 H                                       1.0779150
     9   6 C      144   1 H                                       1.0778910
    17   6 C      145   1 H                                       1.0882029
    18   6 C      146   1 H                                       1.0868790
    19   6 C      147   1 H                                       1.0743311
    20   6 C      148   1 H                                       1.0739460
    21   6 C      149   1 H                                       1.0856180
    22   6 C      150   1 H                                       1.0887165
    22   6 C      151   1 H                                       1.0887522
    23   6 C      152   1 H                                       1.0879893
    25   6 C      153   1 H                                       1.0726582 (min)
    29   6 C      154   1 H                                       1.0798057
    30   6 C      155   1 H                                       1.0800533
    31   6 C      156   1 H                                       1.0791786
    34   6 C      157   1 H                                       1.0903751
    34   6 C      158   1 H                                       1.0892215
    35   6 C      159   1 H                                       1.0882378
    35   6 C      160   1 H                                       1.0882959
    35   6 C      161   1 H                                       1.0888154
    36   6 C      162   1 H                                       1.0786949
    41   6 C      163   1 H                                       1.0783137
    42   6 C      164   1 H                                       1.0801526
    43   6 C      165   1 H                                       1.0780778
    46   6 C      166   1 H                                       1.0900169
    46   6 C      167   1 H                                       1.0892235
    47   6 C      168   1 H                                       1.0875367
    47   6 C      169   1 H                                       1.0884456
    47   6 C      170   1 H                                       1.0877694
    48   6 C      171   1 H                                       1.0797990
    51   6 C      172   1 H                                       1.0739879
    58   6 C      173   1 H                                       1.0784454
    59   6 C      174   1 H                                       1.0785932
    62   6 C      175   1 H                                       1.0859411
    62   6 C      176   1 H                                       1.0862025
    62   6 C      177   1 H                                       1.0859255
    63   6 C      178   1 H                                       1.0793291
    64   6 C      179   1 H                                       1.0786373
    66   6 C      180   1 H                                       1.0777347
    67   6 C      181   1 H                                       1.0782635
    70   6 C      182   1 H                                       1.0855281
    70   6 C      183   1 H                                       1.0861206
    70   6 C      184   1 H                                       1.0862006
    71   6 C      185   1 H                                       1.0781263
    72   6 C      186   1 H                                       1.0796563
    79   6 C      187   1 H                                       1.0795318
    80   6 C      188   1 H                                       1.0780728
    83   6 C      189   1 H                                       1.0862889
    83   6 C      190   1 H                                       1.0862407
    83   6 C      191   1 H                                       1.0856128
    84   6 C      192   1 H                                       1.0791844
    85   6 C      193   1 H                                       1.0801985
    87   6 C      194   1 H                                       1.0791982
    88   6 C      195   1 H                                       1.0783067
    91   6 C      196   1 H                                       1.0856593
    91   6 C      197   1 H                                       1.0865286
    91   6 C      198   1 H                                       1.0859248
    92   6 C      199   1 H                                       1.0786344
    93   6 C      200   1 H                                       1.0781103
    97   6 C      201   1 H                                       1.0747706
   101   6 C      202   1 H                                       1.0785286
   102   6 C      203   1 H                                       1.0791459
   103   6 C      204   1 H                                       1.0789353
   106   6 C      205   1 H                                       1.0905932
   106   6 C      206   1 H                                       1.0893736
   107   6 C      207   1 H                                       1.0888307
   107   6 C      208   1 H                                       1.0873343
   107   6 C      209   1 H                                       1.0871825
   108   6 C      210   1 H                                       1.0782476
   113   6 C      211   1 H                                       1.0795862
   114   6 C      212   1 H                                       1.0795650
   115   6 C      213   1 H                                       1.0790079
   118   6 C      214   1 H                                       1.0902579
   118   6 C      215   1 H                                       1.0900035
   119   6 C      216   1 H                                       1.0875441
   119   6 C      217   1 H                                       1.0873759
   119   6 C      218   1 H                                       1.0880930
   120   6 C      219   1 H                                       1.0779066
   123   6 C      220   1 H                                       1.0763804
   126   6 C      221   1 H                                       1.0841069
   131   6 C      222   1 H                                       1.0736294

 * 6 distinct bonds (by element types)

   Z      Z             #   av. dist./Å        max./Å        min./Å
   1 H    6 C          81     1.0827417     1.0905932     1.0726582
   6 C    6 C         103     1.4058912     1.5628134     1.3268034
   6 C    7 N          10     1.3001532     1.4102292     1.1473952
   6 C    8 O           2     1.2119547     1.2133325     1.2105769
   6 C   16 S          12     1.7414851     1.7529157     1.7161902
   6 C   17 Cl          1     1.7023182     1.7023182     1.7023182


optimized geometry written to: xtbopt.mol


           -------------------------------------------------
          | TOTAL ENERGY             -370.624853333805 Eh   |
          | GRADIENT NORM               0.000535809784 Eh/α |
          | HOMO-LUMO GAP               0.257290127091 eV   |
           -------------------------------------------------

------------------------------------------------------------------------
 * finished run on 2022/02/04 at 12:18:27.230     
------------------------------------------------------------------------
 total:
 * wall-time:     0 d,  0 h,  2 min, 46.555 sec
 *  cpu-time:     0 d,  0 h, 22 min, 12.260 sec
 * ratio c/w:     7.999 speedup
 SCF:
 * wall-time:     0 d,  0 h,  0 min,  1.198 sec
 *  cpu-time:     0 d,  0 h,  0 min,  9.582 sec
 * ratio c/w:     7.997 speedup
 ANC optimizer:
 * wall-time:     0 d,  0 h,  2 min, 45.224 sec
 *  cpu-time:     0 d,  0 h, 22 min,  1.704 sec
 * ratio c/w:     7.999 speedup

