      -----------------------------------------------------------      
     |                   =====================                   |     
     |                           x T B                           |     
     |                   =====================                   |     
     |                         S. Grimme                         |     
     |          Mulliken Center for Theoretical Chemistry        |     
     |                    University of Bonn                     |     
      -----------------------------------------------------------      

   * xtb version 6.4.1 (unknown) compiled by 'oda6@login1.crc.pitt.edu' on 2021-06-25

   xtb is free software: you can redistribute it and/or modify it under
   the terms of the GNU Lesser General Public License as published by
   the Free Software Foundation, either version 3 of the License, or
   (at your option) any later version.
   
   xtb is distributed in the hope that it will be useful,
   but WITHOUT ANY WARRANTY; without even the implied warranty of
   MERCHANTABILITY or FITNESS FOR A PARTICULAR PURPOSE.  See the
   GNU Lesser General Public License for more details.
   
   Cite this work as:
   * C. Bannwarth, E. Caldeweyher, S. Ehlert, A. Hansen, P. Pracht,
     J. Seibert, S. Spicher, S. Grimme, WIREs Comput. Mol. Sci., 2020, 11,
     e01493. DOI: 10.1002/wcms.1493
   
   for GFN2-xTB:
   * C. Bannwarth, S. Ehlert and S. Grimme., J. Chem. Theory Comput., 2019,
     15, 1652-1671. DOI: 10.1021/acs.jctc.8b01176
   for GFN1-xTB:
   * S. Grimme, C. Bannwarth, P. Shushkov, J. Chem. Theory Comput., 2017,
     13, 1989-2009. DOI: 10.1021/acs.jctc.7b00118
   for GFN0-xTB:
   * P. Pracht, E. Caldeweyher, S. Ehlert, S. Grimme, ChemRxiv, 2019, preprint.
     DOI: 10.26434/chemrxiv.8326202.v1
   for GFN-FF:
   * S. Spicher and S. Grimme, Angew. Chem. Int. Ed., 2020, 59, 15665-15673.
     DOI: 10.1002/anie.202004239
   
   for DFT-D4:
   * E. Caldeweyher, C. Bannwarth and S. Grimme, J. Chem. Phys., 2017,
     147, 034112. DOI: 10.1063/1.4993215
   * E. Caldeweyher, S. Ehlert, A. Hansen, H. Neugebauer, S. Spicher,
     C. Bannwarth and S. Grimme, J. Chem. Phys., 2019, 150, 154122.
     DOI: 10.1063/1.5090222
   * E. Caldeweyher, J.-M. Mewes, S. Ehlert and S. Grimme, Phys. Chem. Chem. Phys.
     2020, 22, 8499-8512. DOI: 10.1039/D0CP00502A
   
   for sTDA-xTB:
   * S. Grimme and C. Bannwarth, J. Chem. Phys., 2016, 145, 054103.
     DOI: 10.1063/1.4959605
   
   in the mass-spec context:
   * V. Asgeirsson, C. Bauer and S. Grimme, Chem. Sci., 2017, 8, 4879.
     DOI: 10.1039/c7sc00601b
   * J. Koopman and S. Grimme, ACS Omega 2019, 4, 12, 15120-15133.
     DOI: 10.1021/acsomega.9b02011
   
   for metadynamics refer to:
   * S. Grimme, J. Chem. Theory Comput., 2019, 155, 2847-2862
     DOI: 10.1021/acs.jctc.9b00143
   
   for SPH calculations refer to:
   * S. Spicher and S. Grimme, J. Chem. Theory Comput., 2021, 17, 1701-1714
     DOI: 10.1021/acs.jctc.0c01306
   
   with help from (in alphabetical order)
   P. Atkinson, C. Bannwarth, F. Bohle, G. Brandenburg, E. Caldeweyher
   M. Checinski, S. Dohm, S. Ehlert, S. Ehrlich, I. Gerasimov, J. Koopman
   C. Lavigne, S. Lehtola, F. März, M. Müller, F. Musil, H. Neugebauer
   J. Pisarek, C. Plett, P. Pracht, J. Seibert, P. Shushkov, S. Spicher
   M. Stahn, M. Steiner, T. Strunk, J. Stückrath, T. Rose, and J. Unsleber
   
 * started run on 2022/02/15 at 05:15:53.831     

           -------------------------------------------------
          |                Calculation Setup                |
           -------------------------------------------------

          program call               : /ihome/ghutchison/oda6/xtb/xtb-641/bin/xtb ../../FF_optimized/39_92_127_130_39.mol -opt
          hostname                   : smp-n25
          coordinate file            : ../../FF_optimized/39_92_127_130_39.mol
          omp threads                :                     8
          number of atoms            :                   206
          number of electrons        :                   634
          charge                     :                     0
          spin                       :                   0.0
          first test random number   :      0.17309061471033

   ID    Z sym.   atoms
    1    6 C      1-3, 5-13, 15, 17-33, 35-43, 45, 47, 48, 50, 51, 53, 55,
                  56, 58-61, 63-67, 69-72, 74-80, 82-85, 87, 88, 90-93,
                  95-101, 103-106, 108-110, 112-120, 122, 124-130
    2    8 O      4, 111
    3    7 N      14, 16, 57, 62, 68, 89, 121, 123
    4   34 Se     34, 44
    5   16 S      46, 49, 73, 81, 86, 94, 102, 107
    6    9 F      52, 54
    7    1 H      131-206
########################################################################
[WARNING] Please study the warnings concerning your input carefully
-1- prog_main_parseArguments: the use of '-opt' is discouraged, please use '--opt' next time
########################################################################

           -------------------------------------------------
          |                 G F N 2 - x T B                 |
           -------------------------------------------------

        Reference                      10.1021/acs.jctc.8b01176
      * Hamiltonian:
        H0-scaling (s, p, d)           1.850000    2.230000    2.230000
        zeta-weighting                 0.500000
      * Dispersion:
        s8                             2.700000
        a1                             0.520000
        a2                             5.000000
        s9                             5.000000
      * Repulsion:
        kExp                           1.500000    1.000000
        rExp                           1.000000
      * Coulomb:
        alpha                          2.000000
        third order                    shell-resolved
        anisotropic                    true
        a3                             3.000000
        a5                             4.000000
        cn-shift                       1.200000
        cn-exp                         4.000000
        max-rad                        5.000000


          ...................................................
          :                      SETUP                      :
          :.................................................:
          :  # basis functions                 656          :
          :  # atomic orbitals                 646          :
          :  # shells                          346          :
          :  # electrons                       634          :
          :  max. iterations                   250          :
          :  Hamiltonian                  GFN2-xTB          :
          :  restarted?                      false          :
          :  GBSA solvation                  false          :
          :  PC potential                    false          :
          :  electronic temp.          300.0000000     K    :
          :  accuracy                    1.0000000          :
          :  -> integral cutoff          0.2500000E+02      :
          :  -> integral neglect         0.1000000E-07      :
          :  -> SCF convergence          0.1000000E-05 Eh   :
          :  -> wf. convergence          0.1000000E-03 e    :
          :  Broyden damping             0.4000000          :
          ...................................................

 iter      E             dE          RMSdq      gap      omega  full diag
   1   -347.4286332 -0.347429E+03  0.499E+00    0.56       0.0  T
   2   -347.2000434  0.228590E+00  0.330E+00    0.19       1.0  T
   3   -345.9028268  0.129722E+01  0.308E+00    0.21       1.0  T
   4   -347.1169365 -0.121411E+01  0.189E+00    0.10       1.0  T
   5   -347.9045870 -0.787651E+00  0.691E-01    0.11       1.0  T
   6   -347.4070589  0.497528E+00  0.125E+00    0.01       1.0  T
   7   -347.9512447 -0.544186E+00  0.458E-01    0.21       1.0  T
   8   -347.9687663 -0.175216E-01  0.274E-01    0.25       1.0  T
   9   -347.9594013  0.936501E-02  0.233E-01    0.12       1.0  T
  10   -347.9720436 -0.126423E-01  0.182E-01    0.34       1.0  T
  11   -347.9764820 -0.443842E-02  0.976E-02    0.26       1.0  T
  12   -347.9772461 -0.764118E-03  0.645E-02    0.26       1.0  T
  13   -347.9769654  0.280672E-03  0.602E-02    0.23       1.0  T
  14   -347.9772779 -0.312509E-03  0.470E-02    0.25       1.0  T
  15   -347.9774270 -0.149018E-03  0.375E-02    0.26       1.0  T
  16   -347.9774948 -0.678289E-04  0.334E-02    0.26       1.0  T
  17   -347.9775398 -0.449702E-04  0.296E-02    0.27       1.0  T
  18   -347.9775949 -0.550956E-04  0.235E-02    0.27       1.0  T
  19   -347.9776683 -0.734383E-04  0.131E-02    0.27       1.0  T
  20   -347.9776901 -0.218279E-04  0.773E-03    0.27       1.0  T
  21   -347.9777012 -0.111144E-04  0.409E-03    0.27       1.7  T
  22   -347.9777049 -0.366921E-05  0.157E-03    0.27       4.4  T
  23   -347.9777049 -0.349516E-07  0.178E-03    0.27       3.9  T
  24   -347.9777048  0.155053E-06  0.207E-03    0.27       3.4  T
  25   -347.9777055 -0.744188E-06  0.267E-04    0.27      26.1  T
  26   -347.9777055  0.613682E-08  0.366E-04    0.27      19.1  T

   *** convergence criteria satisfied after 26 iterations ***

         #    Occupation            Energy/Eh            Energy/eV
      -------------------------------------------------------------
         1        2.0000           -0.8547911             -23.2600
       ...           ...                  ...                  ...
       311        2.0000           -0.3643503              -9.9145
       312        2.0000           -0.3635320              -9.8922
       313        2.0000           -0.3624064              -9.8616
       314        1.9999           -0.3604679              -9.8088
       315        1.9999           -0.3601479              -9.8001
       316        1.9964           -0.3564545              -9.6996
       317        1.9917           -0.3556737              -9.6784 (HOMO)
       318        0.0119           -0.3455979              -9.4042 (LUMO)
       319        0.0001           -0.3413487              -9.2886
       320                         -0.3307096              -8.9991
       321                         -0.3247218              -8.8361
       322                         -0.3187049              -8.6724
       ...                                ...                  ...
       646                          4.8788332             132.7598
      -------------------------------------------------------------
                  HL-Gap            0.0100758 Eh            0.2742 eV
             Fermi-level           -0.3504614 Eh           -9.5365 eV

 SCC (total)                   0 d,  0 h,  0 min,  3.828 sec
 SCC setup                      ...        0 min,  0.003 sec (  0.090%)
 Dispersion                     ...        0 min,  0.011 sec (  0.280%)
 classical contributions        ...        0 min,  0.001 sec (  0.017%)
 integral evaluation            ...        0 min,  0.059 sec (  1.547%)
 iterations                     ...        0 min,  3.568 sec ( 93.220%)
 molecular gradient             ...        0 min,  0.179 sec (  4.671%)
 printout                       ...        0 min,  0.007 sec (  0.174%)

         :::::::::::::::::::::::::::::::::::::::::::::::::::::
         ::                     SUMMARY                     ::
         :::::::::::::::::::::::::::::::::::::::::::::::::::::
         :: total energy            -341.843749339321 Eh    ::
         :: gradient norm              2.032155766855 Eh/a0 ::
         :: HOMO-LUMO gap              0.274175122152 eV    ::
         ::.................................................::
         :: SCC energy              -347.977705519316 Eh    ::
         :: -> isotropic ES            0.164114472570 Eh    ::
         :: -> anisotropic ES          0.023378665816 Eh    ::
         :: -> anisotropic XC          0.217502300201 Eh    ::
         :: -> dispersion             -0.337859377489 Eh    ::
         :: repulsion energy           6.126619018489 Eh    ::
         :: add. restraining           0.000000000000 Eh    ::
         :: total charge               0.000000000297 e     ::
         :::::::::::::::::::::::::::::::::::::::::::::::::::::

      ----------------------------------------------------------- 
     |                   =====================                   |
     |                        A N C O P T                        |
     |                   =====================                   |
     |               Approximate Normal Coordinate               |
     |                Rational Function Optimizer                |
      ----------------------------------------------------------- 

          ...................................................
          :                      SETUP                      :
          :.................................................:
          :   optimization level            normal          :
          :   max. optcycles                   618          :
          :   ANC micro-cycles                  20          :
          :   degrees of freedom               612          :
          :.................................................:
          :   RF solver                   davidson          :
          :   write xtbopt.log                true          :
          :   linear?                        false          :
          :   energy convergence         0.5000000E-05 Eh   :
          :   grad. convergence          0.1000000E-02 Eh/α :
          :   maximium RF displ.         1.0000000          :
          :   Hlow (freq-cutoff)         0.1000000E-01      :
          :   Hmax (freq-cutoff)         5.0000000          :
          :   S6 in model hess.         20.0000000          :
          ...................................................

generating ANC from model Hessian ...
Using Lindh-Hessian (1995)
 Shifting diagonal of input Hessian by   1.051850191889224E-002
 Lowest  eigenvalues of input Hessian
    0.010000    0.010220    0.010475    0.010510    0.010514    0.000000
    0.000000    0.000000    0.000000    0.000000    0.000000    0.010520
    0.010534    0.010543    0.010554    0.010581    0.010586    0.010595
 Highest eigenvalues
    2.381236    2.396344    2.662804    2.964877    3.109893    4.251387
 

........................................................................
.............................. CYCLE    1 ..............................
........................................................................
   1   -347.9777056 -0.347978E+03  0.830E-05    0.27       0.0  T
   2   -347.9777056  0.584976E-09  0.754E-05    0.27      92.4  T
   3   -347.9777056 -0.397335E-10  0.888E-05    0.27      78.5  T
     SCC iter.                  ...        0 min,  0.723 sec
     gradient                   ...        0 min,  0.175 sec
 * total energy  :  -341.8437494 Eh     change       -0.3382513E-07 Eh
   gradient norm :     2.0321537 Eh/α   predicted     0.0000000E+00 (-100.00%)
   displ. norm   :     0.5649137 α      lambda       -0.1025364E+01
   maximum displ.:     0.3319828 α      in ANC's #612, #446, #433, ...

........................................................................
.............................. CYCLE    2 ..............................
........................................................................
   1   -348.0127431 -0.348013E+03  0.500E-01    0.22       0.0  T
   2   -348.0081109  0.463220E-02  0.411E-01    0.23       1.0  T
   3   -347.9984820  0.962892E-02  0.376E-01    0.26       1.0  T
   4   -348.0125642 -0.140822E-01  0.227E-01    0.23       1.0  T
   5   -348.0193909 -0.682673E-02  0.145E-01    0.31       1.0  T
   6   -348.0227610 -0.337005E-02  0.482E-02    0.27       1.0  T
   7   -348.0227809 -0.198610E-04  0.369E-02    0.28       1.0  T
   8   -348.0230037 -0.222813E-03  0.302E-02    0.28       1.0  T
   9   -348.0231727 -0.169083E-03  0.117E-02    0.27       1.0  T
  10   -348.0232110 -0.382793E-04  0.628E-03    0.28       1.1  T
  11   -348.0232155 -0.451009E-05  0.410E-03    0.28       1.7  T
  12   -348.0232182 -0.265089E-05  0.112E-03    0.28       6.2  T
  13   -348.0232183 -0.144370E-06  0.588E-04    0.28      11.8  T
  14   -348.0232184 -0.209479E-07  0.430E-04    0.28      16.2  T
     SCC iter.                  ...        0 min,  3.589 sec
     gradient                   ...        0 min,  0.182 sec
 * total energy  :  -342.3783906 Eh     change       -0.5346412E+00 Eh
   gradient norm :     0.6024827 Eh/α   predicted    -0.6763161E+00 (  26.50%)
   displ. norm   :     0.5995773 α      lambda       -0.3062031E+00
   maximum displ.:     0.1580765 α      in ANC's #446, #339, #381, ...

........................................................................
.............................. CYCLE    3 ..............................
........................................................................
   1   -348.1745309 -0.348175E+03  0.390E-01    0.21       0.0  T
   2   -348.1672398  0.729114E-02  0.333E-01    0.33       1.0  T
   3   -348.1130140  0.542258E-01  0.593E-01    0.29       1.0  T
   4   -348.1609275 -0.479135E-01  0.234E-01    0.13       1.0  T
   5   -348.1754946 -0.145671E-01  0.131E-01    0.34       1.0  T
   6   -348.1805058 -0.501126E-02  0.593E-02    0.35       1.0  T
   7   -348.1808131 -0.307278E-03  0.371E-02    0.32       1.0  T
   8   -348.1808416 -0.285105E-04  0.306E-02    0.29       1.0  T
   9   -348.1810093 -0.167737E-03  0.178E-02    0.27       1.0  T
  10   -348.1810722 -0.628224E-04  0.733E-03    0.26       1.0  T
  11   -348.1810775 -0.534899E-05  0.400E-03    0.26       1.7  T
  12   -348.1810802 -0.272269E-05  0.133E-03    0.26       5.2  T
  13   -348.1810803 -0.598669E-07  0.119E-03    0.26       5.8  T
  14   -348.1810804 -0.148652E-06  0.753E-04    0.26       9.3  T
  15   -348.1810806 -0.108351E-06  0.303E-04    0.26      23.0  T
     SCC iter.                  ...        0 min,  3.878 sec
     gradient                   ...        0 min,  0.185 sec
 * total energy  :  -342.5923163 Eh     change       -0.2139257E+00 Eh
   gradient norm :     0.2921143 Eh/α   predicted    -0.2081417E+00 (  -2.70%)
   displ. norm   :     0.6543676 α      lambda       -0.1544003E+00
   maximum displ.:     0.1834160 α      in ANC's #339, #362, #368, ...

........................................................................
.............................. CYCLE    4 ..............................
........................................................................
   1   -348.1625390 -0.348163E+03  0.384E-01    0.16       0.0  T
   2   -348.1591264  0.341260E-02  0.291E-01    0.45       1.0  T
   3   -348.1401599  0.189665E-01  0.395E-01    0.20       1.0  T
   4   -348.1394565  0.703373E-03  0.283E-01    0.11       1.0  T
   5   -348.1648501 -0.253935E-01  0.118E-01    0.40       1.0  T
   6   -348.1699237 -0.507361E-02  0.573E-02    0.33       1.0  T
   7   -348.1703730 -0.449347E-03  0.319E-02    0.29       1.0  T
   8   -348.1705096 -0.136602E-03  0.238E-02    0.24       1.0  T
   9   -348.1705837 -0.741379E-04  0.170E-02    0.24       1.0  T
  10   -348.1706284 -0.446403E-04  0.669E-03    0.22       1.0  T
  11   -348.1706387 -0.102979E-04  0.327E-03    0.23       2.1  T
  12   -348.1706412 -0.249794E-05  0.145E-03    0.23       4.8  T
  13   -348.1706413 -0.154404E-06  0.106E-03    0.23       6.6  T
  14   -348.1706415 -0.132316E-06  0.524E-04    0.23      13.3  T
  15   -348.1706415 -0.259147E-07  0.341E-04    0.23      20.4  T
     SCC iter.                  ...        0 min,  3.856 sec
     gradient                   ...        0 min,  0.183 sec
 * total energy  :  -342.7037478 Eh     change       -0.1114315E+00 Eh
   gradient norm :     0.1434855 Eh/α   predicted    -0.1102570E+00 (  -1.05%)
   displ. norm   :     0.6807635 α      lambda       -0.7767576E-01
   maximum displ.:     0.1713017 α      in ANC's #339, #127, #132, ...

........................................................................
.............................. CYCLE    5 ..............................
........................................................................
   1   -348.2002818 -0.348200E+03  0.326E-01    0.17       0.0  T
   2   -348.1992850  0.996731E-03  0.238E-01    0.32       1.0  T
   3   -348.1954442  0.384078E-02  0.215E-01    0.15       1.0  T
   4   -348.1954395  0.472453E-05  0.217E-01    0.31       1.0  T
   5   -348.2044226 -0.898309E-02  0.689E-02    0.27       1.0  T
   6   -348.2051949 -0.772323E-03  0.442E-02    0.18       1.0  T
   7   -348.2056557 -0.460796E-03  0.254E-02    0.25       1.0  T
   8   -348.2059227 -0.267009E-03  0.954E-03    0.21       1.0  T
   9   -348.2059357 -0.129882E-04  0.550E-03    0.21       1.3  T
  10   -348.2059422 -0.651248E-05  0.267E-03    0.21       2.6  T
  11   -348.2059429 -0.700089E-06  0.146E-03    0.21       4.8  T
  12   -348.2059431 -0.125238E-06  0.932E-04    0.21       7.5  T
  13   -348.2059431 -0.547918E-07  0.547E-04    0.21      12.7  T
     SCC iter.                  ...        0 min,  3.353 sec
     gradient                   ...        0 min,  0.185 sec
 * total energy  :  -342.7507334 Eh     change       -0.4698560E-01 Eh
   gradient norm :     0.1421576 Eh/α   predicted    -0.5683699E-01 (  20.97%)
   displ. norm   :     0.6661778 α      lambda       -0.4994882E-01
   maximum displ.:     0.1457940 α      in ANC's #127, #132, #113, ...

........................................................................
.............................. CYCLE    6 ..............................
........................................................................
   1   -348.1727503 -0.348173E+03  0.267E-01    0.32       0.0  T
   2   -348.1588917  0.138585E-01  0.282E-01    0.14       1.0  T
   3   -348.1692022 -0.103104E-01  0.196E-01    0.41       1.0  T
   4   -348.1743363 -0.513414E-02  0.989E-02    0.29       1.0  T
   5   -348.1763118 -0.197551E-02  0.460E-02    0.22       1.0  T
   6   -348.1766529 -0.341103E-03  0.258E-02    0.26       1.0  T
   7   -348.1767745 -0.121611E-03  0.112E-02    0.22       1.0  T
   8   -348.1768052 -0.307118E-04  0.597E-03    0.23       1.2  T
   9   -348.1768129 -0.761374E-05  0.262E-03    0.23       2.7  T
  10   -348.1768141 -0.123438E-05  0.125E-03    0.23       5.6  T
  11   -348.1768142 -0.121094E-06  0.777E-04    0.23       9.0  T
  12   -348.1768143 -0.500320E-07  0.343E-04    0.23      20.3  T
     SCC iter.                  ...        0 min,  3.092 sec
     gradient                   ...        0 min,  0.184 sec
 * total energy  :  -342.7856267 Eh     change       -0.3489335E-01 Eh
   gradient norm :     0.0815594 Eh/α   predicted    -0.3605795E-01 (   3.34%)
   displ. norm   :     0.7278655 α      lambda       -0.3174033E-01
   maximum displ.:     0.1426568 α      in ANC's #69, #127, #77, ...

........................................................................
.............................. CYCLE    7 ..............................
........................................................................
   1   -348.2164381 -0.348216E+03  0.214E-01    0.30       0.0  T
   2   -348.2128443  0.359376E-02  0.183E-01    0.18       1.0  T
   3   -348.2125417  0.302627E-03  0.157E-01    0.37       1.0  T
   4   -348.2160971 -0.355542E-02  0.844E-02    0.29       1.0  T
   5   -348.2176302 -0.153303E-02  0.346E-02    0.25       1.0  T
   6   -348.2178467 -0.216552E-03  0.162E-02    0.25       1.0  T
   7   -348.2178712 -0.245314E-04  0.890E-03    0.24       1.0  T
   8   -348.2178919 -0.206752E-04  0.340E-03    0.25       2.1  T
   9   -348.2178936 -0.171520E-05  0.165E-03    0.25       4.2  T
  10   -348.2178940 -0.378680E-06  0.922E-04    0.25       7.6  T
  11   -348.2178941 -0.596577E-07  0.593E-04    0.25      11.8  T
     SCC iter.                  ...        0 min,  2.833 sec
     gradient                   ...        0 min,  0.184 sec
 * total energy  :  -342.8105531 Eh     change       -0.2492638E-01 Eh
   gradient norm :     0.0946339 Eh/α   predicted    -0.2427812E-01 (  -2.60%)
   displ. norm   :     0.7732113 α      lambda       -0.2771243E-01
   maximum displ.:     0.1665143 α      in ANC's #77, #127, #69, ...

........................................................................
.............................. CYCLE    8 ..............................
........................................................................
   1   -348.2314069 -0.348231E+03  0.260E-01    0.35       0.0  T
   2   -348.2284994  0.290758E-02  0.187E-01    0.21       1.0  T
   3   -348.2254033  0.309604E-02  0.189E-01    0.40       1.0  T
   4   -348.2325223 -0.711897E-02  0.491E-02    0.34       1.0  T
   5   -348.2330644 -0.542092E-03  0.219E-02    0.29       1.0  T
   6   -348.2331363 -0.718906E-04  0.991E-03    0.29       1.0  T
   7   -348.2331463 -0.100457E-04  0.509E-03    0.28       1.4  T
   8   -348.2331490 -0.265938E-05  0.354E-03    0.28       2.0  T
   9   -348.2331504 -0.145891E-05  0.198E-03    0.28       3.5  T
  10   -348.2331513 -0.853276E-06  0.105E-03    0.28       6.6  T
  11   -348.2331514 -0.143591E-06  0.555E-04    0.28      12.6  T
  12   -348.2331514 -0.117423E-07  0.329E-04    0.28      21.2  T
     SCC iter.                  ...        0 min,  2.604 sec
     gradient                   ...        0 min,  0.176 sec
 * total energy  :  -342.8299063 Eh     change       -0.1935318E-01 Eh
   gradient norm :     0.1148170 Eh/α   predicted    -0.2214024E-01 (  14.40%)
   displ. norm   :     0.7682342 α      lambda       -0.2838739E-01
   maximum displ.:     0.1542447 α      in ANC's #77, #69, #103, ...

........................................................................
.............................. CYCLE    9 ..............................
........................................................................
   1   -348.2959328 -0.348296E+03  0.253E-01    0.36       0.0  T
   2   -348.2951693  0.763544E-03  0.164E-01    0.32       1.0  T
   3   -348.2910686  0.410071E-02  0.171E-01    0.39       1.0  T
   4   -348.2968420 -0.577344E-02  0.359E-02    0.33       1.0  T
   5   -348.2970493 -0.207288E-03  0.213E-02    0.35       1.0  T
   6   -348.2971370 -0.876427E-04  0.912E-03    0.34       1.0  T
   7   -348.2971531 -0.161358E-04  0.466E-03    0.34       1.5  T
   8   -348.2971567 -0.363257E-05  0.233E-03    0.34       3.0  T
   9   -348.2971576 -0.855250E-06  0.114E-03    0.34       6.1  T
  10   -348.2971577 -0.113581E-06  0.702E-04    0.34       9.9  T
  11   -348.2971577 -0.491239E-07  0.365E-04    0.34      19.1  T
     SCC iter.                  ...        0 min,  1.942 sec
     gradient                   ...        0 min,  0.190 sec
 * total energy  :  -342.8451683 Eh     change       -0.1526198E-01 Eh
   gradient norm :     0.1388645 Eh/α   predicted    -0.2257059E-01 (  47.89%)
   displ. norm   :     0.6671511 α      lambda       -0.2269597E-01
   maximum displ.:     0.1411210 α      in ANC's #33, #32, #69, ...

........................................................................
.............................. CYCLE   10 ..............................
........................................................................
   1   -348.3130661 -0.348313E+03  0.242E-01    0.37       0.0  T
   2   -348.3128485  0.217645E-03  0.138E-01    0.40       1.0  T
   3   -348.3067054  0.614313E-02  0.145E-01    0.37       1.0  T
   4   -348.3135051 -0.679970E-02  0.238E-02    0.39       1.0  T
   5   -348.3135756 -0.705901E-04  0.160E-02    0.40       1.0  T
   6   -348.3136229 -0.472271E-04  0.631E-03    0.39       1.1  T
   7   -348.3136326 -0.972211E-05  0.274E-03    0.40       2.5  T
   8   -348.3136338 -0.123463E-05  0.137E-03    0.39       5.1  T
   9   -348.3136341 -0.242489E-06  0.736E-04    0.39       9.5  T
  10   -348.3136341 -0.633860E-07  0.369E-04    0.39      18.9  T
     SCC iter.                  ...        0 min,  1.792 sec
     gradient                   ...        0 min,  0.177 sec
 * total energy  :  -342.8634248 Eh     change       -0.1825649E-01 Eh
   gradient norm :     0.1046468 Eh/α   predicted    -0.1639887E-01 ( -10.18%)
   displ. norm   :     0.6982038 α      lambda       -0.2373046E-01
   maximum displ.:     0.1449619 α      in ANC's #33, #32, #65, ...

........................................................................
.............................. CYCLE   11 ..............................
........................................................................
   1   -348.3117556 -0.348312E+03  0.235E-01    0.42       0.0  T
   2   -348.3111568  0.598854E-03  0.139E-01    0.46       1.0  T
   3   -348.3048615  0.629529E-02  0.151E-01    0.44       1.0  T
   4   -348.3124945 -0.763303E-02  0.282E-02    0.46       1.0  T
   5   -348.3126218 -0.127329E-03  0.151E-02    0.46       1.0  T
   6   -348.3126586 -0.367761E-04  0.662E-03    0.45       1.1  T
   7   -348.3126677 -0.907408E-05  0.323E-03    0.46       2.2  T
   8   -348.3126698 -0.213325E-05  0.137E-03    0.45       5.1  T
   9   -348.3126700 -0.231227E-06  0.860E-04    0.45       8.1  T
  10   -348.3126701 -0.109231E-06  0.397E-04    0.45      17.6  T
     SCC iter.                  ...        0 min,  1.769 sec
     gradient                   ...        0 min,  0.191 sec
 * total energy  :  -342.8838476 Eh     change       -0.2042280E-01 Eh
   gradient norm :     0.1105965 Eh/α   predicted    -0.1764940E-01 ( -13.58%)
   displ. norm   :     0.7380593 α      lambda       -0.2893180E-01
   maximum displ.:     0.1688635 α      in ANC's #611, #33, #62, ...

........................................................................
.............................. CYCLE   12 ..............................
........................................................................
   1   -348.3037834 -0.348304E+03  0.293E-01    0.45       0.0  T
   2   -348.3002662  0.351715E-02  0.202E-01    0.52       1.0  T
   3   -348.2962391  0.402708E-02  0.188E-01    0.50       1.0  T
   4   -348.3065089 -0.102698E-01  0.397E-02    0.53       1.0  T
   5   -348.3067701 -0.261219E-03  0.207E-02    0.51       1.0  T
   6   -348.3068613 -0.911951E-04  0.860E-03    0.52       1.0  T
   7   -348.3068732 -0.118983E-04  0.451E-03    0.52       1.5  T
   8   -348.3068776 -0.442154E-05  0.173E-03    0.52       4.0  T
   9   -348.3068781 -0.428450E-06  0.945E-04    0.52       7.4  T
  10   -348.3068782 -0.102796E-06  0.498E-04    0.52      14.0  T
     SCC iter.                  ...        0 min,  1.775 sec
     gradient                   ...        0 min,  0.176 sec
 * total energy  :  -342.9051932 Eh     change       -0.2134558E-01 Eh
   gradient norm :     0.1317838 Eh/α   predicted    -0.2234593E-01 (   4.69%)
   displ. norm   :     0.6906810 α      lambda       -0.2449126E-01
   maximum displ.:     0.1777952 α      in ANC's #33, #37, #611, ...

........................................................................
.............................. CYCLE   13 ..............................
........................................................................
   1   -348.3164998 -0.348316E+03  0.292E-01    0.53       0.0  T
   2   -348.3134895  0.301024E-02  0.197E-01    0.54       1.0  T
   3   -348.3098985  0.359105E-02  0.188E-01    0.54       1.0  T
   4   -348.3188999 -0.900141E-02  0.404E-02    0.54       1.0  T
   5   -348.3192843 -0.384475E-03  0.182E-02    0.54       1.0  T
   6   -348.3193453 -0.609955E-04  0.796E-03    0.55       1.0  T
   7   -348.3193534 -0.802897E-05  0.431E-03    0.54       1.6  T
   8   -348.3193574 -0.398568E-05  0.180E-03    0.55       3.9  T
   9   -348.3193580 -0.687517E-06  0.804E-04    0.54       8.7  T
  10   -348.3193582 -0.123758E-06  0.391E-04    0.54      17.8  T
     SCC iter.                  ...        0 min,  1.796 sec
     gradient                   ...        0 min,  0.174 sec
 * total energy  :  -342.9178911 Eh     change       -0.1269793E-01 Eh
   gradient norm :     0.1132630 Eh/α   predicted    -0.1808729E-01 (  42.44%)
   displ. norm   :     0.5389072 α      lambda       -0.1716475E-01
   maximum displ.:     0.1229358 α      in ANC's #62, #33, #53, ...

........................................................................
.............................. CYCLE   14 ..............................
........................................................................
   1   -348.3215708 -0.348322E+03  0.193E-01    0.57       0.0  T
   2   -348.3216532 -0.824225E-04  0.115E-01    0.57       1.0  T
   3   -348.3201446  0.150860E-02  0.964E-02    0.56       1.0  T
   4   -348.3219358 -0.179121E-02  0.233E-02    0.57       1.0  T
   5   -348.3220419 -0.106155E-03  0.107E-02    0.57       1.0  T
   6   -348.3220576 -0.156297E-04  0.555E-03    0.57       1.3  T
   7   -348.3220636 -0.600095E-05  0.239E-03    0.57       2.9  T
   8   -348.3220646 -0.102078E-05  0.146E-03    0.57       4.8  T
   9   -348.3220650 -0.414557E-06  0.643E-04    0.57      10.8  T
  10   -348.3220650 -0.295373E-07  0.367E-04    0.57      19.0  T
     SCC iter.                  ...        0 min,  1.752 sec
     gradient                   ...        0 min,  0.192 sec
 * total energy  :  -342.9278457 Eh     change       -0.9954616E-02 Eh
   gradient norm :     0.1076989 Eh/α   predicted    -0.1107490E-01 (  11.25%)
   displ. norm   :     0.5196066 α      lambda       -0.1523528E-01
   maximum displ.:     0.1218978 α      in ANC's #53, #62, #72, ...

........................................................................
.............................. CYCLE   15 ..............................
........................................................................
   1   -348.3146745 -0.348315E+03  0.175E-01    0.58       0.0  T
   2   -348.3147876 -0.113068E-03  0.105E-01    0.58       1.0  T
   3   -348.3131513  0.163623E-02  0.912E-02    0.58       1.0  T
   4   -348.3149755 -0.182421E-02  0.209E-02    0.59       1.0  T
   5   -348.3150510 -0.754814E-04  0.131E-02    0.58       1.0  T
   6   -348.3150909 -0.398937E-04  0.481E-03    0.58       1.4  T
   7   -348.3150939 -0.303475E-05  0.265E-03    0.58       2.6  T
   8   -348.3150950 -0.100827E-05  0.139E-03    0.58       5.0  T
   9   -348.3150952 -0.287199E-06  0.722E-04    0.58       9.6  T
  10   -348.3150953 -0.163374E-07  0.409E-04    0.58      17.0  T
     SCC iter.                  ...        0 min,  1.757 sec
     gradient                   ...        0 min,  0.176 sec
 * total energy  :  -342.9342788 Eh     change       -0.6433097E-02 Eh
   gradient norm :     0.1082363 Eh/α   predicted    -0.9674344E-02 (  50.38%)
   displ. norm   :     0.4894806 α      lambda       -0.1162867E-01
   maximum displ.:     0.1324138 α      in ANC's #53, #62, #26, ...

........................................................................
.............................. CYCLE   16 ..............................
........................................................................
   1   -348.3324225 -0.348332E+03  0.161E-01    0.60       0.0  T
   2   -348.3323831  0.394014E-04  0.938E-02    0.59       1.0  T
   3   -348.3298605  0.252266E-02  0.938E-02    0.61       1.0  T
   4   -348.3326148 -0.275428E-02  0.211E-02    0.59       1.0  T
   5   -348.3327281 -0.113333E-03  0.779E-03    0.59       1.0  T
   6   -348.3327357 -0.761275E-05  0.358E-03    0.60       1.9  T
   7   -348.3327374 -0.168687E-05  0.184E-03    0.60       3.8  T
   8   -348.3327380 -0.590241E-06  0.858E-04    0.60       8.1  T
   9   -348.3327381 -0.132461E-06  0.390E-04    0.60      17.8  T
     SCC iter.                  ...        0 min,  1.599 sec
     gradient                   ...        0 min,  0.178 sec
 * total energy  :  -342.9418316 Eh     change       -0.7552807E-02 Eh
   gradient norm :     0.0575793 Eh/α   predicted    -0.7207386E-02 (  -4.57%)
   displ. norm   :     0.6196440 α      lambda       -0.9150966E-02
   maximum displ.:     0.1707241 α      in ANC's #33, #32, #53, ...

........................................................................
.............................. CYCLE   17 ..............................
........................................................................
   1   -348.3364714 -0.348336E+03  0.163E-01    0.61       0.0  T
   2   -348.3365324 -0.609971E-04  0.946E-02    0.61       1.0  T
   3   -348.3354651  0.106725E-02  0.714E-02    0.61       1.0  T
   4   -348.3366192 -0.115410E-02  0.173E-02    0.61       1.0  T
   5   -348.3366786 -0.593460E-04  0.104E-02    0.61       1.0  T
   6   -348.3367000 -0.214412E-04  0.414E-03    0.61       1.7  T
   7   -348.3367027 -0.265795E-05  0.195E-03    0.61       3.6  T
   8   -348.3367032 -0.550364E-06  0.102E-03    0.61       6.8  T
   9   -348.3367033 -0.900733E-07  0.583E-04    0.61      11.9  T
  10   -348.3367033 -0.255031E-07  0.287E-04    0.61      24.3  T
     SCC iter.                  ...        0 min,  1.789 sec
     gradient                   ...        0 min,  0.175 sec
 * total energy  :  -342.9476225 Eh     change       -0.5790939E-02 Eh
   gradient norm :     0.0684624 Eh/α   predicted    -0.6332278E-02 (   9.35%)
   displ. norm   :     0.6077977 α      lambda       -0.7885245E-02
   maximum displ.:     0.1717799 α      in ANC's #26, #46, #53, ...

........................................................................
.............................. CYCLE   18 ..............................
........................................................................
   1   -348.3650191 -0.348365E+03  0.140E-01    0.64       0.0  T
   2   -348.3650425 -0.234262E-04  0.807E-02    0.63       1.0  T
   3   -348.3642063  0.836207E-03  0.597E-02    0.64       1.0  T
   4   -348.3651424 -0.936082E-03  0.108E-02    0.63       1.0  T
   5   -348.3651549 -0.125338E-04  0.694E-03    0.63       1.0  T
   6   -348.3651625 -0.758313E-05  0.245E-03    0.63       2.8  T
   7   -348.3651636 -0.105863E-05  0.141E-03    0.63       5.0  T
   8   -348.3651640 -0.432532E-06  0.586E-04    0.63      11.9  T
   9   -348.3651640 -0.294093E-07  0.375E-04    0.63      18.6  T
     SCC iter.                  ...        0 min,  1.581 sec
     gradient                   ...        0 min,  0.175 sec
 * total energy  :  -342.9531327 Eh     change       -0.5510201E-02 Eh
   gradient norm :     0.0484502 Eh/α   predicted    -0.5399093E-02 (  -2.02%)
   displ. norm   :     0.7174680 α      lambda       -0.9336398E-02
   maximum displ.:     0.2014038 α      in ANC's #53, #26, #62, ...

........................................................................
.............................. CYCLE   19 ..............................
........................................................................
   1   -348.3516499 -0.348352E+03  0.191E-01    0.64       0.0  T
   2   -348.3516687 -0.188047E-04  0.108E-01    0.65       1.0  T
   3   -348.3494689  0.219972E-02  0.926E-02    0.63       1.0  T
   4   -348.3518962 -0.242721E-02  0.183E-02    0.64       1.0  T
   5   -348.3519597 -0.635937E-04  0.114E-02    0.64       1.0  T
   6   -348.3519824 -0.226788E-04  0.369E-03    0.64       1.9  T
   7   -348.3519846 -0.221807E-05  0.198E-03    0.64       3.5  T
   8   -348.3519854 -0.743495E-06  0.787E-04    0.64       8.9  T
   9   -348.3519854 -0.428465E-07  0.456E-04    0.64      15.3  T
     SCC iter.                  ...        0 min,  1.582 sec
     gradient                   ...        0 min,  0.193 sec
 * total energy  :  -342.9585295 Eh     change       -0.5396712E-02 Eh
   gradient norm :     0.0672496 Eh/α   predicted    -0.7071220E-02 (  31.03%)
   displ. norm   :     0.6064057 α      lambda       -0.6474477E-02
   maximum displ.:     0.1945612 α      in ANC's #26, #43, #79, ...

........................................................................
.............................. CYCLE   20 ..............................
........................................................................
   1   -348.3680812 -0.348368E+03  0.140E-01    0.66       0.0  T
   2   -348.3681015 -0.202526E-04  0.832E-02    0.66       1.0  T
   3   -348.3670545  0.104694E-02  0.641E-02    0.66       1.0  T
   4   -348.3682293 -0.117482E-02  0.116E-02    0.66       1.0  T
   5   -348.3682502 -0.208739E-04  0.645E-03    0.66       1.1  T
   6   -348.3682566 -0.636652E-05  0.289E-03    0.66       2.4  T
   7   -348.3682582 -0.165958E-05  0.142E-03    0.66       4.9  T
   8   -348.3682586 -0.382659E-06  0.662E-04    0.66      10.5  T
   9   -348.3682587 -0.509605E-07  0.358E-04    0.66      19.5  T
     SCC iter.                  ...        0 min,  1.592 sec
     gradient                   ...        0 min,  0.191 sec
 * total energy  :  -342.9622248 Eh     change       -0.3695299E-02 Eh
   gradient norm :     0.0431836 Eh/α   predicted    -0.4427673E-02 (  19.82%)
   displ. norm   :     0.6739428 α      lambda       -0.8524413E-02
   maximum displ.:     0.1770614 α      in ANC's #26, #33, #2, ...
 * RMSD in coord.:     0.6217967 α      energy gain  -0.1118475E+01 Eh

generating ANC from model Hessian ...
Using Lindh-Hessian (1995)
 Shifting diagonal of input Hessian by   1.011071915160222E-002
 Lowest  eigenvalues of input Hessian
    0.010000    0.010106    0.000000    0.000000    0.000000    0.000000
    0.000000    0.000000    0.010111    0.010119    0.010126    0.010130
    0.010165    0.010170    0.010187    0.010193    0.010218    0.010237
 Highest eigenvalues
    2.264674    2.265921    2.513233    2.600660    2.656684    2.657784
 

........................................................................
.............................. CYCLE   21 ..............................
........................................................................
   1   -348.3735390 -0.348374E+03  0.216E-01    0.67       0.0  T
   2   -348.3736615 -0.122512E-03  0.123E-01    0.67       1.0  T
   3   -348.3727117  0.949800E-03  0.745E-02    0.66       1.0  T
   4   -348.3738131 -0.110141E-02  0.106E-02    0.67       1.0  T
   5   -348.3738256 -0.124872E-04  0.596E-03    0.67       1.2  T
   6   -348.3738305 -0.484691E-05  0.279E-03    0.67       2.5  T
   7   -348.3738316 -0.111465E-05  0.125E-03    0.67       5.6  T
   8   -348.3738317 -0.160569E-06  0.661E-04    0.67      10.5  T
   9   -348.3738318 -0.513076E-07  0.351E-04    0.67      19.8  T
     SCC iter.                  ...        0 min,  1.573 sec
     gradient                   ...        0 min,  0.176 sec
 * total energy  :  -342.9659811 Eh     change       -0.3756353E-02 Eh
   gradient norm :     0.0627625 Eh/α   predicted     0.0000000E+00 (-100.00%)
   displ. norm   :     0.4075351 α      lambda       -0.6598555E-02
   maximum displ.:     0.1391053 α      in ANC's #41, #48, #42, ...

........................................................................
.............................. CYCLE   22 ..............................
........................................................................
   1   -348.3823023 -0.348382E+03  0.162E-01    0.66       0.0  T
   2   -348.3823621 -0.598107E-04  0.898E-02    0.66       1.0  T
   3   -348.3821102  0.251877E-03  0.357E-02    0.66       1.0  T
   4   -348.3824012 -0.291004E-03  0.665E-03    0.66       1.0  T
   5   -348.3824009  0.372365E-06  0.535E-03    0.66       1.3  T
   6   -348.3824067 -0.584181E-05  0.145E-03    0.66       4.8  T
   7   -348.3824070 -0.282207E-06  0.796E-04    0.66       8.8  T
   8   -348.3824070 -0.668444E-07  0.440E-04    0.66      15.8  T
     SCC iter.                  ...        0 min,  1.409 sec
     gradient                   ...        0 min,  0.192 sec
 * total energy  :  -342.9703092 Eh     change       -0.4328106E-02 Eh
   gradient norm :     0.0266150 Eh/α   predicted    -0.3864839E-02 ( -10.70%)
   displ. norm   :     0.6135427 α      lambda       -0.5935215E-02
   maximum displ.:     0.2301684 α      in ANC's #48, #41, #19, ...

........................................................................
.............................. CYCLE   23 ..............................
........................................................................
   1   -348.3950734 -0.348395E+03  0.199E-01    0.66       0.0  T
   2   -348.3951582 -0.847797E-04  0.110E-01    0.65       1.0  T
   3   -348.3943086  0.849581E-03  0.597E-02    0.66       1.0  T
   4   -348.3952550 -0.946399E-03  0.912E-03    0.65       1.0  T
   5   -348.3952559 -0.903668E-06  0.674E-03    0.65       1.0  T
   6   -348.3952637 -0.783057E-05  0.222E-03    0.65       3.1  T
   7   -348.3952646 -0.899738E-06  0.117E-03    0.65       6.0  T
   8   -348.3952648 -0.219337E-06  0.637E-04    0.65      10.9  T
   9   -348.3952649 -0.541203E-07  0.342E-04    0.65      20.4  T
     SCC iter.                  ...        0 min,  1.606 sec
     gradient                   ...        0 min,  0.175 sec
 * total energy  :  -342.9741104 Eh     change       -0.3801162E-02 Eh
   gradient norm :     0.0606076 Eh/α   predicted    -0.4084818E-02 (   7.46%)
   displ. norm   :     0.6331697 α      lambda       -0.5266944E-02
   maximum displ.:     0.2492187 α      in ANC's #41, #48, #19, ...

........................................................................
.............................. CYCLE   24 ..............................
........................................................................
   1   -348.3923837 -0.348392E+03  0.183E-01    0.65       0.0  T
   2   -348.3924641 -0.803999E-04  0.102E-01    0.65       1.0  T
   3   -348.3919686  0.495493E-03  0.481E-02    0.65       1.0  T
   4   -348.3925315 -0.562944E-03  0.808E-03    0.65       1.0  T
   5   -348.3925318 -0.310614E-06  0.613E-03    0.65       1.1  T
   6   -348.3925387 -0.691033E-05  0.173E-03    0.65       4.0  T
   7   -348.3925392 -0.449119E-06  0.866E-04    0.65       8.0  T
   8   -348.3925393 -0.104588E-06  0.400E-04    0.65      17.4  T
     SCC iter.                  ...        0 min,  1.397 sec
     gradient                   ...        0 min,  0.177 sec
 * total energy  :  -342.9780565 Eh     change       -0.3946163E-02 Eh
   gradient norm :     0.0527585 Eh/α   predicted    -0.3689295E-02 (  -6.51%)
   displ. norm   :     0.6527924 α      lambda       -0.5790791E-02
   maximum displ.:     0.2190481 α      in ANC's #48, #19, #41, ...

........................................................................
.............................. CYCLE   25 ..............................
........................................................................
   1   -348.3943413 -0.348394E+03  0.167E-01    0.65       0.0  T
   2   -348.3944095 -0.682072E-04  0.935E-02    0.64       1.0  T
   3   -348.3939567  0.452782E-03  0.449E-02    0.65       1.0  T
   4   -348.3944596 -0.502866E-03  0.899E-03    0.64       1.0  T
   5   -348.3944667 -0.712396E-05  0.607E-03    0.64       1.1  T
   6   -348.3944731 -0.645863E-05  0.233E-03    0.65       3.0  T
   7   -348.3944743 -0.115439E-05  0.108E-03    0.65       6.5  T
   8   -348.3944745 -0.233097E-06  0.493E-04    0.65      14.1  T
   9   -348.3944746 -0.320560E-07  0.238E-04    0.65      29.2  T
     SCC iter.                  ...        0 min,  1.568 sec
     gradient                   ...        0 min,  0.192 sec
 * total energy  :  -342.9818635 Eh     change       -0.3806996E-02 Eh
   gradient norm :     0.0409309 Eh/α   predicted    -0.4129231E-02 (   8.46%)
   displ. norm   :     0.6902166 α      lambda       -0.5064765E-02
   maximum displ.:     0.2688912 α      in ANC's #48, #19, #21, ...

........................................................................
.............................. CYCLE   26 ..............................
........................................................................
   1   -348.3958119 -0.348396E+03  0.182E-01    0.65       0.0  T
   2   -348.3958868 -0.748854E-04  0.102E-01    0.64       1.0  T
   3   -348.3955106  0.376170E-03  0.373E-02    0.64       1.0  T
   4   -348.3959232 -0.412618E-03  0.953E-03    0.65       1.0  T
   5   -348.3959323 -0.906623E-05  0.638E-03    0.64       1.1  T
   6   -348.3959396 -0.735889E-05  0.228E-03    0.65       3.1  T
   7   -348.3959407 -0.107427E-05  0.943E-04    0.64       7.4  T
   8   -348.3959408 -0.129188E-06  0.477E-04    0.64      14.6  T
   9   -348.3959409 -0.245713E-07  0.235E-04    0.64      29.7  T
     SCC iter.                  ...        0 min,  1.578 sec
     gradient                   ...        0 min,  0.199 sec
 * total energy  :  -342.9852155 Eh     change       -0.3351992E-02 Eh
   gradient norm :     0.0381852 Eh/α   predicted    -0.3738812E-02 (  11.54%)
   displ. norm   :     0.6916919 α      lambda       -0.4718281E-02
   maximum displ.:     0.2270843 α      in ANC's #48, #19, #41, ...

........................................................................
.............................. CYCLE   27 ..............................
........................................................................
   1   -348.3948562 -0.348395E+03  0.195E-01    0.65       0.0  T
   2   -348.3949359 -0.797253E-04  0.108E-01    0.65       1.0  T
   3   -348.3945750  0.360877E-03  0.407E-02    0.64       1.0  T
   4   -348.3949795 -0.404439E-03  0.905E-03    0.65       1.0  T
   5   -348.3949841 -0.464841E-05  0.689E-03    0.65       1.0  T
   6   -348.3949949 -0.107446E-04  0.191E-03    0.65       3.7  T
   7   -348.3949956 -0.752206E-06  0.871E-04    0.65       8.0  T
   8   -348.3949957 -0.106733E-06  0.393E-04    0.65      17.7  T
     SCC iter.                  ...        0 min,  1.408 sec
     gradient                   ...        0 min,  0.174 sec
 * total energy  :  -342.9888633 Eh     change       -0.3647727E-02 Eh
   gradient norm :     0.0286141 Eh/α   predicted    -0.3487894E-02 (  -4.38%)
   displ. norm   :     0.6923809 α      lambda       -0.4180276E-02
   maximum displ.:     0.2553934 α      in ANC's #19, #48, #21, ...

........................................................................
.............................. CYCLE   28 ..............................
........................................................................
   1   -348.4206853 -0.348421E+03  0.144E-01    0.65       0.0  T
   2   -348.4207396 -0.542394E-04  0.798E-02    0.65       1.0  T
   3   -348.4204773  0.262295E-03  0.366E-02    0.66       1.0  T
   4   -348.4207675 -0.290281E-03  0.869E-03    0.65       1.0  T
   5   -348.4207758 -0.831182E-05  0.524E-03    0.66       1.3  T
   6   -348.4207812 -0.535783E-05  0.246E-03    0.66       2.8  T
   7   -348.4207827 -0.153405E-05  0.947E-04    0.66       7.4  T
   8   -348.4207829 -0.156184E-06  0.412E-04    0.66      16.9  T
   9   -348.4207829 -0.141645E-07  0.216E-04    0.66      32.3  T
     SCC iter.                  ...        0 min,  1.603 sec
     gradient                   ...        0 min,  0.191 sec
 * total energy  :  -342.9917366 Eh     change       -0.2873361E-02 Eh
   gradient norm :     0.0338770 Eh/α   predicted    -0.3092140E-02 (   7.61%)
   displ. norm   :     0.8072987 α      lambda       -0.4633727E-02
   maximum displ.:     0.2606190 α      in ANC's #19, #48, #41, ...

........................................................................
.............................. CYCLE   29 ..............................
........................................................................
   1   -348.4025037 -0.348403E+03  0.185E-01    0.66       0.0  T
   2   -348.4025648 -0.610733E-04  0.103E-01    0.66       1.0  T
   3   -348.4018333  0.731453E-03  0.550E-02    0.66       1.0  T
   4   -348.4026256 -0.792302E-03  0.107E-02    0.66       1.0  T
   5   -348.4026365 -0.108988E-04  0.741E-03    0.66       1.0  T
   6   -348.4026495 -0.129632E-04  0.245E-03    0.66       2.8  T
   7   -348.4026506 -0.112880E-05  0.965E-04    0.66       7.2  T
   8   -348.4026507 -0.115257E-06  0.458E-04    0.66      15.2  T
   9   -348.4026507 -0.126059E-07  0.260E-04    0.66      26.8  T
     SCC iter.                  ...        0 min,  1.610 sec
     gradient                   ...        0 min,  0.192 sec
 * total energy  :  -342.9945001 Eh     change       -0.2763498E-02 Eh
   gradient norm :     0.0553905 Eh/α   predicted    -0.3826840E-02 (  38.48%)
   displ. norm   :     0.5878496 α      lambda       -0.4214453E-02
   maximum displ.:     0.2155013 α      in ANC's #19, #21, #9, ...

........................................................................
.............................. CYCLE   30 ..............................
........................................................................
   1   -348.4114480 -0.348411E+03  0.149E-01    0.66       0.0  T
   2   -348.4115130 -0.650538E-04  0.829E-02    0.66       1.0  T
   3   -348.4108697  0.643294E-03  0.495E-02    0.67       1.0  T
   4   -348.4115561 -0.686355E-03  0.979E-03    0.66       1.0  T
   5   -348.4115711 -0.150521E-04  0.608E-03    0.66       1.1  T
   6   -348.4115799 -0.875280E-05  0.179E-03    0.66       3.9  T
   7   -348.4115801 -0.192776E-06  0.113E-03    0.66       6.2  T
   8   -348.4115803 -0.248511E-06  0.392E-04    0.66      17.8  T
   9   -348.4115804 -0.148841E-07  0.213E-04    0.66      32.8  T
     SCC iter.                  ...        0 min,  1.764 sec
     gradient                   ...        0 min,  0.175 sec
 * total energy  :  -342.9963159 Eh     change       -0.1815779E-02 Eh
   gradient norm :     0.0540944 Eh/α   predicted    -0.2835427E-02 (  56.15%)
   displ. norm   :     0.5684620 α      lambda       -0.4166528E-02
   maximum displ.:     0.2189143 α      in ANC's #19, #21, #9, ...

........................................................................
.............................. CYCLE   31 ..............................
........................................................................
   1   -348.4172458 -0.348417E+03  0.144E-01    0.66       0.0  T
   2   -348.4173040 -0.581998E-04  0.801E-02    0.66       1.0  T
   3   -348.4170761  0.227876E-03  0.322E-02    0.66       1.0  T
   4   -348.4173314 -0.255298E-03  0.730E-03    0.66       1.0  T
   5   -348.4173354 -0.397005E-05  0.507E-03    0.66       1.4  T
   6   -348.4173409 -0.551329E-05  0.170E-03    0.66       4.1  T
   7   -348.4173413 -0.362703E-06  0.982E-04    0.66       7.1  T
   8   -348.4173415 -0.237440E-06  0.401E-04    0.66      17.4  T
     SCC iter.                  ...        0 min,  1.886 sec
     gradient                   ...        0 min,  0.173 sec
 * total energy  :  -342.9990216 Eh     change       -0.2705675E-02 Eh
   gradient norm :     0.0259446 Eh/α   predicted    -0.2756470E-02 (   1.88%)
   displ. norm   :     0.7233551 α      lambda       -0.3146018E-02
   maximum displ.:     0.2784573 α      in ANC's #19, #9, #41, ...

........................................................................
.............................. CYCLE   32 ..............................
........................................................................
   1   -348.4168495 -0.348417E+03  0.160E-01    0.66       0.0  T
   2   -348.4168926 -0.430780E-04  0.881E-02    0.66       1.0  T
   3   -348.4163547  0.537821E-03  0.441E-02    0.66       1.0  T
   4   -348.4169320 -0.577223E-03  0.852E-03    0.66       1.0  T
   5   -348.4169393 -0.735261E-05  0.552E-03    0.66       1.3  T
   6   -348.4169458 -0.646587E-05  0.196E-03    0.66       3.5  T
   7   -348.4169465 -0.718184E-06  0.856E-04    0.66       8.1  T
   8   -348.4169466 -0.141171E-06  0.342E-04    0.66      20.4  T
     SCC iter.                  ...        0 min,  1.903 sec
     gradient                   ...        0 min,  0.179 sec
 * total energy  :  -343.0013219 Eh     change       -0.2300363E-02 Eh
   gradient norm :     0.0305551 Eh/α   predicted    -0.2396077E-02 (   4.16%)
   displ. norm   :     0.7196488 α      lambda       -0.2773677E-02
   maximum displ.:     0.2840668 α      in ANC's #19, #9, #30, ...

........................................................................
.............................. CYCLE   33 ..............................
........................................................................
   1   -348.4259717 -0.348426E+03  0.104E-01    0.67       0.0  T
   2   -348.4259758 -0.411950E-05  0.581E-02    0.67       1.0  T
   3   -348.4254199  0.555881E-03  0.438E-02    0.67       1.0  T
   4   -348.4260146 -0.594662E-03  0.801E-03    0.67       1.0  T
   5   -348.4260229 -0.833992E-05  0.469E-03    0.67       1.5  T
   6   -348.4260268 -0.389716E-05  0.151E-03    0.67       4.6  T
   7   -348.4260272 -0.401581E-06  0.751E-04    0.67       9.3  T
   8   -348.4260274 -0.140790E-06  0.298E-04    0.67      23.4  T
     SCC iter.                  ...        0 min,  1.886 sec
     gradient                   ...        0 min,  0.174 sec
 * total energy  :  -343.0037500 Eh     change       -0.2428046E-02 Eh
   gradient norm :     0.0159925 Eh/α   predicted    -0.2105082E-02 ( -13.30%)
   displ. norm   :     0.8419137 α      lambda       -0.2736376E-02
   maximum displ.:     0.3405329 α      in ANC's #19, #9, #30, ...

........................................................................
.............................. CYCLE   34 ..............................
........................................................................
   1   -348.4316896 -0.348432E+03  0.123E-01    0.67       0.0  T
   2   -348.4317072 -0.176374E-04  0.679E-02    0.67       1.0  T
   3   -348.4312274  0.479802E-03  0.409E-02    0.67       1.0  T
   4   -348.4317354 -0.507940E-03  0.906E-03    0.67       1.0  T
   5   -348.4317447 -0.933290E-05  0.555E-03    0.67       1.3  T
   6   -348.4317512 -0.650707E-05  0.171E-03    0.67       4.1  T
   7   -348.4317518 -0.603203E-06  0.779E-04    0.67       8.9  T
   8   -348.4317519 -0.135122E-06  0.331E-04    0.67      21.1  T
     SCC iter.                  ...        0 min,  1.886 sec
     gradient                   ...        0 min,  0.180 sec
 * total energy  :  -343.0062031 Eh     change       -0.2453092E-02 Eh
   gradient norm :     0.0140146 Eh/α   predicted    -0.2337987E-02 (  -4.69%)
   displ. norm   :     0.8806317 α      lambda       -0.2542323E-02
   maximum displ.:     0.3630978 α      in ANC's #19, #9, #30, ...

........................................................................
.............................. CYCLE   35 ..............................
........................................................................
   1   -348.4401877 -0.348440E+03  0.127E-01    0.67       0.0  T
   2   -348.4402073 -0.195715E-04  0.698E-02    0.67       1.0  T
   3   -348.4397564  0.450868E-03  0.398E-02    0.67       1.0  T
   4   -348.4402293 -0.472908E-03  0.957E-03    0.67       1.0  T
   5   -348.4402426 -0.133570E-04  0.548E-03    0.67       1.3  T
   6   -348.4402486 -0.598788E-05  0.162E-03    0.67       4.3  T
   7   -348.4402491 -0.454620E-06  0.778E-04    0.67       9.0  T
   8   -348.4402492 -0.128077E-06  0.320E-04    0.67      21.8  T
     SCC iter.                  ...        0 min,  1.896 sec
     gradient                   ...        0 min,  0.174 sec
 * total energy  :  -343.0084647 Eh     change       -0.2261590E-02 Eh
   gradient norm :     0.0130189 Eh/α   predicted    -0.2256963E-02 (  -0.20%)
   displ. norm   :     0.9061676 α      lambda       -0.2524702E-02
   maximum displ.:     0.3650973 α      in ANC's #19, #9, #30, ...

........................................................................
.............................. CYCLE   36 ..............................
........................................................................
   1   -348.4248431 -0.348425E+03  0.140E-01    0.67       0.0  T
   2   -348.4248808 -0.376916E-04  0.766E-02    0.67       1.0  T
   3   -348.4246396  0.241221E-03  0.322E-02    0.67       1.0  T
   4   -348.4248924 -0.252857E-03  0.968E-03    0.67       1.0  T
   5   -348.4249016 -0.920039E-05  0.613E-03    0.67       1.1  T
   6   -348.4249109 -0.932221E-05  0.201E-03    0.67       3.5  T
   7   -348.4249117 -0.808577E-06  0.858E-04    0.67       8.1  T
   8   -348.4249119 -0.123330E-06  0.339E-04    0.67      20.6  T
     SCC iter.                  ...        0 min,  1.885 sec
     gradient                   ...        0 min,  0.175 sec
 * total energy  :  -343.0104995 Eh     change       -0.2034846E-02 Eh
   gradient norm :     0.0192171 Eh/α   predicted    -0.2298895E-02 (  12.98%)
   displ. norm   :     0.8038563 α      lambda       -0.2455276E-02
   maximum displ.:     0.3258131 α      in ANC's #19, #9, #30, ...

........................................................................
.............................. CYCLE   37 ..............................
........................................................................
   1   -348.4503368 -0.348450E+03  0.100E-01    0.67       0.0  T
   2   -348.4503545 -0.177070E-04  0.555E-02    0.67       1.0  T
   3   -348.4499888  0.365658E-03  0.381E-02    0.67       1.0  T
   4   -348.4503754 -0.386521E-03  0.972E-03    0.67       1.0  T
   5   -348.4503908 -0.154544E-04  0.576E-03    0.67       1.2  T
   6   -348.4503977 -0.686705E-05  0.193E-03    0.67       3.6  T
   7   -348.4503982 -0.532722E-06  0.926E-04    0.67       7.5  T
   8   -348.4503984 -0.179618E-06  0.318E-04    0.67      21.9  T
     SCC iter.                  ...        0 min,  1.885 sec
     gradient                   ...        0 min,  0.174 sec
 * total energy  :  -343.0118668 Eh     change       -0.1367275E-02 Eh
   gradient norm :     0.0325105 Eh/α   predicted    -0.2020922E-02 (  47.81%)
   displ. norm   :     0.6684931 α      lambda       -0.2974111E-02
   maximum displ.:     0.2711141 α      in ANC's #19, #9, #30, ...

........................................................................
.............................. CYCLE   38 ..............................
........................................................................
   1   -348.4407546 -0.348441E+03  0.939E-02    0.67       0.0  T
   2   -348.4407879 -0.332977E-04  0.515E-02    0.67       1.0  T
   3   -348.4406803  0.107594E-03  0.213E-02    0.67       1.0  T
   4   -348.4407787 -0.983873E-04  0.924E-03    0.67       1.0  T
   5   -348.4407994 -0.207250E-04  0.362E-03    0.67       1.9  T
   6   -348.4408013 -0.192997E-05  0.169E-03    0.67       4.1  T
   7   -348.4408017 -0.383128E-06  0.778E-04    0.67       9.0  T
   8   -348.4408019 -0.136407E-06  0.284E-04    0.67      24.6  T
     SCC iter.                  ...        0 min,  1.884 sec
     gradient                   ...        0 min,  0.175 sec
 * total energy  :  -343.0138023 Eh     change       -0.1935479E-02 Eh
   gradient norm :     0.0249758 Eh/α   predicted    -0.2151601E-02 (  11.17%)
   displ. norm   :     0.7816176 α      lambda       -0.2195772E-02
   maximum displ.:     0.3180858 α      in ANC's #19, #9, #30, ...

........................................................................
.............................. CYCLE   39 ..............................
........................................................................
   1   -348.4323888 -0.348432E+03  0.112E-01    0.67       0.0  T
   2   -348.4323996 -0.108692E-04  0.629E-02    0.67       1.0  T
   3   -348.4318828  0.516829E-03  0.447E-02    0.67       1.0  T
   4   -348.4324321 -0.549233E-03  0.927E-03    0.67       1.0  T
   5   -348.4324478 -0.157198E-04  0.522E-03    0.67       1.3  T
   6   -348.4324525 -0.468886E-05  0.175E-03    0.67       4.0  T
   7   -348.4324529 -0.485635E-06  0.798E-04    0.67       8.7  T
   8   -348.4324531 -0.114965E-06  0.288E-04    0.67      24.2  T
     SCC iter.                  ...        0 min,  1.888 sec
     gradient                   ...        0 min,  0.180 sec
 * total energy  :  -343.0153615 Eh     change       -0.1559219E-02 Eh
   gradient norm :     0.0198275 Eh/α   predicted    -0.1768617E-02 (  13.43%)
   displ. norm   :     0.7713179 α      lambda       -0.2139016E-02
   maximum displ.:     0.3065799 α      in ANC's #19, #9, #13, ...

........................................................................
.............................. CYCLE   40 ..............................
........................................................................
   1   -348.4259665 -0.348426E+03  0.957E-02    0.67       0.0  T
   2   -348.4259801 -0.135261E-04  0.530E-02    0.67       1.0  T
   3   -348.4256686  0.311476E-03  0.347E-02    0.67       1.0  T
   4   -348.4259951 -0.326519E-03  0.898E-03    0.67       1.0  T
   5   -348.4260090 -0.139151E-04  0.493E-03    0.67       1.4  T
   6   -348.4260130 -0.400029E-05  0.165E-03    0.67       4.2  T
   7   -348.4260135 -0.445877E-06  0.625E-04    0.67      11.2  T
   8   -348.4260135 -0.575515E-07  0.268E-04    0.67      26.0  T
     SCC iter.                  ...        0 min,  1.889 sec
     gradient                   ...        0 min,  0.173 sec
 * total energy  :  -343.0169694 Eh     change       -0.1607973E-02 Eh
   gradient norm :     0.0181922 Eh/α   predicted    -0.1705795E-02 (   6.08%)
   displ. norm   :     0.7011536 α      lambda       -0.2264156E-02
   maximum displ.:     0.2854358 α      in ANC's #9, #19, #13, ...

........................................................................
.............................. CYCLE   41 ..............................
........................................................................
   1   -348.4518663 -0.348452E+03  0.723E-02    0.68       0.0  T
   2   -348.4518503  0.159693E-04  0.433E-02    0.67       1.0  T
   3   -348.4515295  0.320796E-03  0.380E-02    0.68       1.0  T
   4   -348.4519018 -0.372291E-03  0.784E-03    0.68       1.0  T
   5   -348.4519154 -0.136276E-04  0.396E-03    0.68       1.8  T
   6   -348.4519178 -0.235840E-05  0.154E-03    0.68       4.5  T
   7   -348.4519183 -0.519276E-06  0.541E-04    0.68      12.9  T
   8   -348.4519183 -0.466715E-07  0.268E-04    0.68      26.0  T
     SCC iter.                  ...        0 min,  1.885 sec
     gradient                   ...        0 min,  0.179 sec
 * total energy  :  -343.0186694 Eh     change       -0.1699975E-02 Eh
   gradient norm :     0.0272477 Eh/α   predicted    -0.1688626E-02 (  -0.67%)
   displ. norm   :     0.8305261 α      lambda       -0.2102693E-02
   maximum displ.:     0.3279403 α      in ANC's #19, #9, #13, ...

........................................................................
.............................. CYCLE   42 ..............................
........................................................................
   1   -348.4484884 -0.348448E+03  0.109E-01    0.68       0.0  T
   2   -348.4484942 -0.579243E-05  0.609E-02    0.68       1.0  T
   3   -348.4479235  0.570634E-03  0.437E-02    0.68       1.0  T
   4   -348.4485293 -0.605769E-03  0.868E-03    0.68       1.0  T
   5   -348.4485430 -0.137227E-04  0.448E-03    0.68       1.6  T
   6   -348.4485457 -0.269377E-05  0.148E-03    0.68       4.7  T
   7   -348.4485460 -0.312294E-06  0.721E-04    0.68       9.7  T
   8   -348.4485462 -0.119671E-06  0.284E-04    0.68      24.5  T
     SCC iter.                  ...        0 min,  1.885 sec
     gradient                   ...        0 min,  0.177 sec
 * total energy  :  -343.0203903 Eh     change       -0.1720878E-02 Eh
   gradient norm :     0.0186419 Eh/α   predicted    -0.1776547E-02 (   3.23%)
   displ. norm   :     0.8215383 α      lambda       -0.2164003E-02
   maximum displ.:     0.3356092 α      in ANC's #9, #19, #13, ...
 * RMSD in coord.:     0.9948167 α      energy gain  -0.5816555E-01 Eh

generating ANC from model Hessian ...
Using Lindh-Hessian (1995)
 Shifting diagonal of input Hessian by   1.001025760852713E-002
 Lowest  eigenvalues of input Hessian
    0.010000    0.010007    0.000000    0.000000    0.000000    0.000000
    0.000000    0.000000    0.010011    0.010020    0.010036    0.010055
    0.010064    0.010082    0.010094    0.010108    0.010117    0.010140
 Highest eigenvalues
    2.258685    2.274374    2.588908    2.596952    2.635419    2.653946
 

........................................................................
.............................. CYCLE   43 ..............................
........................................................................
   1   -348.4447179 -0.348445E+03  0.965E-02    0.68       0.0  T
   2   -348.4447212 -0.333731E-05  0.550E-02    0.68       1.0  T
   3   -348.4442330  0.488201E-03  0.428E-02    0.68       1.0  T
   4   -348.4447561 -0.523064E-03  0.907E-03    0.68       1.0  T
   5   -348.4447718 -0.157641E-04  0.496E-03    0.68       1.4  T
   6   -348.4447757 -0.385872E-05  0.170E-03    0.68       4.1  T
   7   -348.4447762 -0.486806E-06  0.681E-04    0.68      10.2  T
   8   -348.4447763 -0.815214E-07  0.279E-04    0.68      25.0  T
     SCC iter.                  ...        0 min,  0.764 sec
     gradient                   ...        0 min,  0.185 sec
 * total energy  :  -343.0220651 Eh     change       -0.1674820E-02 Eh
   gradient norm :     0.0160726 Eh/α   predicted     0.0000000E+00 (-100.00%)
   displ. norm   :     0.2734445 α      lambda       -0.1392774E-02
   maximum displ.:     0.0738504 α      in ANC's #9, #60, #42, ...

........................................................................
.............................. CYCLE   44 ..............................
........................................................................
   1   -348.4478301 -0.348448E+03  0.150E-01    0.68       0.0  T
   2   -348.4478810 -0.508414E-04  0.828E-02    0.68       1.0  T
   3   -348.4477686  0.112364E-03  0.237E-02    0.67       1.0  T
   4   -348.4479091 -0.140519E-03  0.404E-03    0.68       1.7  T
   5   -348.4479090  0.681647E-07  0.285E-03    0.68       2.4  T
   6   -348.4479105 -0.150739E-05  0.815E-04    0.68       8.6  T
   7   -348.4479107 -0.121327E-06  0.394E-04    0.68      17.7  T
   8   -348.4479107 -0.238665E-07  0.221E-04    0.68      31.5  T
     SCC iter.                  ...        0 min,  0.780 sec
     gradient                   ...        0 min,  0.178 sec
 * total energy  :  -343.0226842 Eh     change       -0.6190561E-03 Eh
   gradient norm :     0.0176938 Eh/α   predicted    -0.7485243E-03 (  20.91%)
   displ. norm   :     0.3425587 α      lambda       -0.1463408E-02
   maximum displ.:     0.1240501 α      in ANC's #9, #20, #43, ...

........................................................................
.............................. CYCLE   45 ..............................
........................................................................
   1   -348.4590170 -0.348459E+03  0.613E-02    0.68       0.0  T
   2   -348.4590231 -0.613436E-05  0.348E-02    0.68       1.0  T
   3   -348.4589595  0.636060E-04  0.173E-02    0.68       1.0  T
   4   -348.4590281 -0.686503E-04  0.387E-03    0.68       1.8  T
   5   -348.4590294 -0.126415E-05  0.242E-03    0.68       2.9  T
   6   -348.4590304 -0.997935E-06  0.108E-03    0.68       6.5  T
   7   -348.4590307 -0.276362E-06  0.424E-04    0.68      16.4  T
   8   -348.4590307 -0.357362E-07  0.190E-04    0.68      36.6  T
     SCC iter.                  ...        0 min,  0.762 sec
     gradient                   ...        0 min,  0.182 sec
 * total energy  :  -343.0236188 Eh     change       -0.9346640E-03 Eh
   gradient norm :     0.0144934 Eh/α   predicted    -0.8175673E-03 ( -12.53%)
   displ. norm   :     0.4825259 α      lambda       -0.1183659E-02
   maximum displ.:     0.1786773 α      in ANC's #9, #43, #20, ...

........................................................................
.............................. CYCLE   46 ..............................
........................................................................
   1   -348.4572326 -0.348457E+03  0.775E-02    0.68       0.0  T
   2   -348.4572433 -0.106728E-04  0.432E-02    0.68       1.0  T
   3   -348.4571749  0.683696E-04  0.161E-02    0.68       1.0  T
   4   -348.4572450 -0.700609E-04  0.521E-03    0.68       1.3  T
   5   -348.4572494 -0.442839E-05  0.274E-03    0.68       2.5  T
   6   -348.4572508 -0.144967E-05  0.925E-04    0.68       7.5  T
   7   -348.4572510 -0.151317E-06  0.423E-04    0.68      16.5  T
   8   -348.4572510 -0.377919E-07  0.191E-04    0.68      36.5  T
     SCC iter.                  ...        0 min,  0.756 sec
     gradient                   ...        0 min,  0.193 sec
 * total energy  :  -343.0246679 Eh     change       -0.1049094E-02 Eh
   gradient norm :     0.0170873 Eh/α   predicted    -0.7296268E-03 ( -30.45%)
   displ. norm   :     0.7756825 α      lambda       -0.2003485E-02
   maximum displ.:     0.2893408 α      in ANC's #9, #43, #20, ...

........................................................................
.............................. CYCLE   47 ..............................
........................................................................
   1   -348.4495586 -0.348450E+03  0.989E-02    0.67       0.0  T
   2   -348.4495728 -0.141877E-04  0.554E-02    0.68       1.0  T
   3   -348.4493573  0.215571E-03  0.281E-02    0.68       1.0  T
   4   -348.4495740 -0.216735E-03  0.853E-03    0.68       1.0  T
   5   -348.4495880 -0.140253E-04  0.413E-03    0.68       1.7  T
   6   -348.4495912 -0.318594E-05  0.117E-03    0.68       6.0  T
   7   -348.4495914 -0.199942E-06  0.585E-04    0.68      11.9  T
   8   -348.4495915 -0.701144E-07  0.235E-04    0.68      29.6  T
     SCC iter.                  ...        0 min,  0.754 sec
     gradient                   ...        0 min,  0.194 sec
 * total energy  :  -343.0263460 Eh     change       -0.1678061E-02 Eh
   gradient norm :     0.0177074 Eh/α   predicted    -0.1604506E-02 (  -4.38%)
   displ. norm   :     0.7654912 α      lambda       -0.1968468E-02
   maximum displ.:     0.2947783 α      in ANC's #9, #20, #43, ...

........................................................................
.............................. CYCLE   48 ..............................
........................................................................
   1   -348.4454107 -0.348445E+03  0.106E-01    0.67       0.0  T
   2   -348.4454296 -0.189047E-04  0.594E-02    0.68       1.0  T
   3   -348.4451375  0.292106E-03  0.327E-02    0.68       1.0  T
   4   -348.4454383 -0.300815E-03  0.848E-03    0.68       1.0  T
   5   -348.4454519 -0.136272E-04  0.433E-03    0.68       1.6  T
   6   -348.4454555 -0.354914E-05  0.130E-03    0.68       5.3  T
   7   -348.4454557 -0.184475E-06  0.718E-04    0.68       9.7  T
   8   -348.4454558 -0.108998E-06  0.254E-04    0.68      27.4  T
     SCC iter.                  ...        0 min,  0.758 sec
     gradient                   ...        0 min,  0.184 sec
 * total energy  :  -343.0279162 Eh     change       -0.1570166E-02 Eh
   gradient norm :     0.0151853 Eh/α   predicted    -0.1560973E-02 (  -0.59%)
   displ. norm   :     0.7557861 α      lambda       -0.1798241E-02
   maximum displ.:     0.2991922 α      in ANC's #9, #20, #43, ...

........................................................................
.............................. CYCLE   49 ..............................
........................................................................
   1   -348.4470371 -0.348447E+03  0.879E-02    0.68       0.0  T
   2   -348.4470436 -0.651397E-05  0.493E-02    0.68       1.0  T
   3   -348.4467776  0.265960E-03  0.308E-02    0.68       1.0  T
   4   -348.4470529 -0.275274E-03  0.758E-03    0.68       1.0  T
   5   -348.4470633 -0.103983E-04  0.388E-03    0.68       1.8  T
   6   -348.4470658 -0.253458E-05  0.129E-03    0.68       5.4  T
   7   -348.4470661 -0.295617E-06  0.615E-04    0.68      11.3  T
   8   -348.4470662 -0.866094E-07  0.203E-04    0.68      34.3  T
     SCC iter.                  ...        0 min,  0.820 sec
     gradient                   ...        0 min,  0.182 sec
 * total energy  :  -343.0295327 Eh     change       -0.1616516E-02 Eh
   gradient norm :     0.0135962 Eh/α   predicted    -0.1412721E-02 ( -12.61%)
   displ. norm   :     0.7146717 α      lambda       -0.2157213E-02
   maximum displ.:     0.3012276 α      in ANC's #9, #20, #7, ...

........................................................................
.............................. CYCLE   50 ..............................
........................................................................
   1   -348.4710674 -0.348471E+03  0.860E-02    0.68       0.0  T
   2   -348.4710731 -0.578764E-05  0.486E-02    0.68       1.0  T
   3   -348.4707404  0.332756E-03  0.344E-02    0.68       1.0  T
   4   -348.4710899 -0.349540E-03  0.834E-03    0.68       1.0  T
   5   -348.4711041 -0.141439E-04  0.387E-03    0.68       1.8  T
   6   -348.4711058 -0.171620E-05  0.181E-03    0.68       3.8  T
   7   -348.4711065 -0.675598E-06  0.738E-04    0.68       9.4  T
   8   -348.4711066 -0.116970E-06  0.310E-04    0.68      22.5  T
     SCC iter.                  ...        0 min,  0.773 sec
     gradient                   ...        0 min,  0.176 sec
 * total energy  :  -343.0309798 Eh     change       -0.1447162E-02 Eh
   gradient norm :     0.0159681 Eh/α   predicted    -0.1629511E-02 (  12.60%)
   displ. norm   :     0.8178990 α      lambda       -0.2085641E-02
   maximum displ.:     0.3229504 α      in ANC's #9, #20, #43, ...

........................................................................
.............................. CYCLE   51 ..............................
........................................................................
   1   -348.4616183 -0.348462E+03  0.102E-01    0.68       0.0  T
   2   -348.4616389 -0.205971E-04  0.566E-02    0.68       1.0  T
   3   -348.4614038  0.235140E-03  0.295E-02    0.68       1.0  T
   4   -348.4616377 -0.233886E-03  0.101E-02    0.68       1.0  T
   5   -348.4616596 -0.218809E-04  0.414E-03    0.68       1.7  T
   6   -348.4616611 -0.158103E-05  0.207E-03    0.68       3.4  T
   7   -348.4616620 -0.902320E-06  0.717E-04    0.68       9.7  T
   8   -348.4616622 -0.107840E-06  0.307E-04    0.68      22.7  T
     SCC iter.                  ...        0 min,  0.779 sec
     gradient                   ...        0 min,  0.190 sec
 * total energy  :  -343.0324446 Eh     change       -0.1464731E-02 Eh
   gradient norm :     0.0140271 Eh/α   predicted    -0.1740444E-02 (  18.82%)
   displ. norm   :     0.7581561 α      lambda       -0.1613841E-02
   maximum displ.:     0.3168367 α      in ANC's #9, #20, #38, ...

........................................................................
.............................. CYCLE   52 ..............................
........................................................................
   1   -348.4526957 -0.348453E+03  0.900E-02    0.68       0.0  T
   2   -348.4527059 -0.102198E-04  0.501E-02    0.68       1.0  T
   3   -348.4524697  0.236229E-03  0.292E-02    0.68       1.0  T
   4   -348.4527113 -0.241577E-03  0.821E-03    0.68       1.0  T
   5   -348.4527247 -0.134726E-04  0.385E-03    0.68       1.8  T
   6   -348.4527270 -0.223813E-05  0.122E-03    0.68       5.7  T
   7   -348.4527272 -0.215415E-06  0.643E-04    0.68      10.8  T
   8   -348.4527273 -0.109147E-06  0.241E-04    0.68      28.9  T
     SCC iter.                  ...        0 min,  0.762 sec
     gradient                   ...        0 min,  0.180 sec
 * total energy  :  -343.0337209 Eh     change       -0.1276301E-02 Eh
   gradient norm :     0.0125084 Eh/α   predicted    -0.1270746E-02 (  -0.44%)
   displ. norm   :     0.7021195 α      lambda       -0.1481202E-02
   maximum displ.:     0.3153995 α      in ANC's #9, #20, #7, ...

........................................................................
.............................. CYCLE   53 ..............................
........................................................................
   1   -348.4607360 -0.348461E+03  0.686E-02    0.68       0.0  T
   2   -348.4607343  0.169235E-05  0.386E-02    0.68       1.0  T
   3   -348.4604886  0.245724E-03  0.286E-02    0.69       1.0  T
   4   -348.4607489 -0.260243E-03  0.616E-03    0.68       1.1  T
   5   -348.4607550 -0.614352E-05  0.321E-03    0.68       2.2  T
[...]
   147   1 H    0.997 --    33 C    0.985
   148   1 H    0.997 --    33 C    0.970
   149   1 H    0.997 --    33 C    0.969
   150   1 H    0.998 --    39 C    0.960
   151   1 H    0.998 --    40 C    0.962
   152   1 H    0.997 --    42 C    0.965
   153   1 H    0.995 --    42 C    0.955
   154   1 H    0.997 --    43 C    0.967
   155   1 H    0.998 --    43 C    0.982
   156   1 H    0.998 --    43 C    0.985
   157   1 H    0.995 --    47 C    0.955
   158   1 H    0.994 --    59 C    0.947
   159   1 H    0.995 --    59 C    0.959
   160   1 H    0.998 --    60 C    0.987
   161   1 H    0.997 --    60 C    0.984
   162   1 H    0.998 --    60 C    0.987
   163   1 H    0.993 --    64 C    0.951
   164   1 H    0.997 --    64 C    0.972
   165   1 H    0.997 --    65 C    0.982
   166   1 H    0.999 --    65 C    0.987
   167   1 H    0.996 --    65 C    0.983
   168   1 H    0.998 --    70 C    0.965
   169   1 H    0.997 --    71 C    0.967
   170   1 H    0.997 --    74 C    0.981
   171   1 H    0.996 --    74 C    0.977
   172   1 H    0.991 --    74 C    0.968
   173   1 H    0.997 --    75 C    0.964
   174   1 H    0.997 --    76 C    0.961
   175   1 H    0.998 --    78 C    0.967
   176   1 H    0.998 --    79 C    0.965
   177   1 H    0.995 --    82 C    0.972
   178   1 H    0.996 --    82 C    0.982
   179   1 H    0.994 --    82 C    0.967
   180   1 H    0.997 --    83 C    0.966
   181   1 H    0.997 --    84 C    0.960
   182   1 H    0.998 --    91 C    0.966
   183   1 H    0.996 --    92 C    0.967
   184   1 H    0.995 --    95 C    0.982
   185   1 H    0.995 --    95 C    0.979
   186   1 H    0.996 --    95 C    0.983
   187   1 H    0.996 --    96 C    0.964
   188   1 H    0.996 --    97 C    0.963
   189   1 H    0.997 --    99 C    0.964
   190   1 H    0.997 --   100 C    0.966
   191   1 H    0.994 --   103 C    0.976
   192   1 H    0.995 --   103 C    0.981
   193   1 H    0.995 --   103 C    0.977
   194   1 H    0.997 --   104 C    0.964
   195   1 H    0.998 --   105 C    0.965
   196   1 H    0.993 --   108 C    0.947
   197   1 H    0.997 --   113 C    0.964
   198   1 H    0.997 --   116 C    0.959
   199   1 H    0.997 --   124 C    0.960
   200   1 H    0.999 --   125 C    0.972
   201   1 H    0.999 --   126 C    0.972
   202   1 H    0.999 --   127 C    0.972
   203   1 H    0.999 --   128 C    0.972
   204   1 H    0.997 --   129 C    0.977
   205   1 H    0.999 --   129 C    0.978
   206   1 H    0.997 --   130 C    0.961
 ---------------------------------------------------------------------------

Topologies differ in number of bonds
Writing corrected topology to xtbtopo.mol

molecular dipole:
                 x           y           z       tot (Debye)
 q only:        0.995      -1.464       1.636
   full:        1.621      -1.019       2.006       7.047
molecular quadrupole (traceless):
                xx          xy          yy          xz          yz          zz
 q only:      126.124      38.723     -74.717     -28.997      98.924     -51.407
  q+dip:      130.121      41.127     -80.279     -19.523     106.164     -49.842
   full:      124.626      39.721     -85.852     -17.570     113.952     -38.774

           -------------------------------------------------
          |                Geometry Summary                 |
           -------------------------------------------------

      molecular mass/u    :     1970.2492924
   center of mass at/Å    :       -0.0797383       0.2511767      -0.4175980
  moments of inertia/u·Å² :        0.2577574E+05   0.1799509E+06   0.1894308E+06
rotational constants/cm⁻¹ :        0.6540116E-03   0.9367908E-04   0.8899099E-04

 * 193 selected distances

     #   Z          #   Z                                           value/Å
     1   6 C        2   6 C                                       1.3662565
     3   6 C        4   8 O                                       1.2144371
     5   6 C        6   6 C                                       1.3932063
     6   6 C        7   6 C                                       1.3737021
     7   6 C        8   6 C                                       1.4015598
     8   6 C        9   6 C                                       1.3743762
     5   6 C       10   6 C                                       1.4085157
     9   6 C       10   6 C                                       1.3979083
    11   6 C       12   6 C                                       1.3702616
    13   6 C       14   7 N                                       1.1485306
    15   6 C       16   7 N                                       1.1481557
     8   6 C       17   6 C                                       1.5080170
    17   6 C       18   6 C                                       1.5485236
    19   6 C       20   6 C                                       1.3262446
    18   6 C       22   6 C                                       1.5370950
    21   6 C       22   6 C                                       1.5370267
     7   6 C       23   6 C                                       1.5082584
    17   6 C       23   6 C                                       1.5612509
    21   6 C       23   6 C                                       1.5489560
     1   6 C       24   6 C                                       1.4125712
    24   6 C       25   6 C                                       1.3732864
    25   6 C       26   6 C                                       1.4072273
    26   6 C       27   6 C                                       1.4159940
    28   6 C       29   6 C                                       1.3688086
    29   6 C       30   6 C                                       1.4100138
    30   6 C       31   6 C                                       1.3630033
    32   6 C       33   6 C                                       1.5222137
    28   6 C       34  34 Se                                      1.8826552
    31   6 C       34  34 Se                                      1.8741400
    27   6 C       35   6 C                                       1.3895437
    35   6 C       36   6 C                                       1.4137594
    36   6 C       37   6 C                                       1.4128466
    38   6 C       39   6 C                                       1.3669059
    39   6 C       40   6 C                                       1.4111220
    40   6 C       41   6 C                                       1.3612894
    42   6 C       43   6 C                                       1.5235615
    38   6 C       44  34 Se                                      1.8833382 (max)
    41   6 C       44  34 Se                                      1.8772807
    26   6 C       45   6 C                                       1.4212773
    37   6 C       45   6 C                                       1.3895358
    24   6 C       46  16 S                                       1.7607277
    45   6 C       46  16 S                                       1.7388302
    36   6 C       47   6 C                                       1.4139998
    47   6 C       48   6 C                                       1.3690662
    35   6 C       49  16 S                                       1.7432555
    48   6 C       49  16 S                                       1.7507860
    48   6 C       50   6 C                                       1.4342453
    50   6 C       51   6 C                                       1.3930471
    51   6 C       53   6 C                                       1.3920401
    53   6 C       55   6 C                                       1.3943216
    55   6 C       56   6 C                                       1.4286286
    56   6 C       57   7 N                                       1.3390206
    57   7 N       58   6 C                                       1.3107376
    59   6 C       60   6 C                                       1.5232669
    58   6 C       61   6 C                                       1.4236965
    61   6 C       62   7 N                                       1.3087594
    50   6 C       63   6 C                                       1.4232974
    56   6 C       63   6 C                                       1.4121447
    62   7 N       63   6 C                                       1.3386036
    64   6 C       65   6 C                                       1.5299325
    55   6 C       66   6 C                                       1.4074006
    66   6 C       67   6 C                                       1.3818937
    67   6 C       68   7 N                                       1.3609491
    68   7 N       69   6 C                                       1.4231653
    69   6 C       70   6 C                                       1.3970282
    70   6 C       71   6 C                                       1.3749052
    71   6 C       72   6 C                                       1.3952381
    72   6 C       75   6 C                                       1.3886472
    69   6 C       76   6 C                                       1.3888249
    75   6 C       76   6 C                                       1.3832660
    68   7 N       77   6 C                                       1.4200648
    77   6 C       78   6 C                                       1.3901008
    78   6 C       79   6 C                                       1.3816291
    79   6 C       80   6 C                                       1.3886548
    80   6 C       83   6 C                                       1.3931481
    77   6 C       84   6 C                                       1.3907475
    83   6 C       84   6 C                                       1.3780117
    67   6 C       85   6 C                                       1.4594082
    87   6 C       88   6 C                                       1.4048021
    88   6 C       89   7 N                                       1.3486499
    89   7 N       90   6 C                                       1.4076152
    90   6 C       91   6 C                                       1.3945217
    91   6 C       92   6 C                                       1.3757575
    92   6 C       93   6 C                                       1.3947782
    93   6 C       96   6 C                                       1.3896561
    90   6 C       97   6 C                                       1.3909410
    96   6 C       97   6 C                                       1.3814369
    89   7 N       98   6 C                                       1.4024176
    98   6 C       99   6 C                                       1.3984063
    99   6 C      100   6 C                                       1.3732344
   100   6 C      101   6 C                                       1.3974705
   101   6 C      104   6 C                                       1.3891109
    98   6 C      105   6 C                                       1.3931663
   104   6 C      105   6 C                                       1.3822469
    85   6 C      106   6 C                                       1.3398195
    88   6 C      106   6 C                                       1.4496036
    87   6 C      108   6 C                                       1.3715550
   108   6 C      109   6 C                                       1.3909099
   110   6 C      111   8 O                                       1.2198431
   112   6 C      113   6 C                                       1.3901626
   113   6 C      114   6 C                                       1.3752631
   114   6 C      115   6 C                                       1.3993141
   115   6 C      116   6 C                                       1.3755676
   112   6 C      117   6 C                                       1.4085606
   116   6 C      117   6 C                                       1.3952453
   109   6 C      118   6 C                                       1.4271921
   118   6 C      119   6 C                                       1.3793335
   120   6 C      121   7 N                                       1.1501827
   122   6 C      123   7 N                                       1.1503741
   115   6 C      124   6 C                                       1.5080809
   124   6 C      125   6 C                                       1.5484723
   126   6 C      127   6 C                                       1.3262738
   125   6 C      129   6 C                                       1.5371446
   128   6 C      129   6 C                                       1.5370043
   114   6 C      130   6 C                                       1.5085404
   124   6 C      130   6 C                                       1.5613701
   128   6 C      130   6 C                                       1.5484652
     1   6 C      131   1 H                                       1.0841865
     6   6 C      132   1 H                                       1.0789303
     9   6 C      133   1 H                                       1.0771822
    17   6 C      134   1 H                                       1.0881532
    18   6 C      135   1 H                                       1.0866174
    19   6 C      136   1 H                                       1.0742876
    20   6 C      137   1 H                                       1.0742852
    21   6 C      138   1 H                                       1.0869786
    22   6 C      139   1 H                                       1.0891475
    22   6 C      140   1 H                                       1.0889388
    23   6 C      141   1 H                                       1.0883507
    25   6 C      142   1 H                                       1.0717963 (min)
    29   6 C      143   1 H                                       1.0764739
    30   6 C      144   1 H                                       1.0777174
    32   6 C      145   1 H                                       1.0945962
    32   6 C      146   1 H                                       1.0947119
    33   6 C      147   1 H                                       1.0871557
    33   6 C      148   1 H                                       1.0907231
    33   6 C      149   1 H                                       1.0899093
    39   6 C      150   1 H                                       1.0773490
    40   6 C      151   1 H                                       1.0776448
    42   6 C      152   1 H                                       1.0930718
    42   6 C      153   1 H                                       1.0954567
    43   6 C      154   1 H                                       1.0916304
    43   6 C      155   1 H                                       1.0885493
    43   6 C      156   1 H                                       1.0873017
    47   6 C      157   1 H                                       1.0731990
    59   6 C      158   1 H                                       1.0938523
    59   6 C      159   1 H                                       1.0927190
    60   6 C      160   1 H                                       1.0866787
    60   6 C      161   1 H                                       1.0855935
    60   6 C      162   1 H                                       1.0871211
    64   6 C      163   1 H                                       1.0926843
    64   6 C      164   1 H                                       1.0896903
    65   6 C      165   1 H                                       1.0871681
    65   6 C      166   1 H                                       1.0878394
    65   6 C      167   1 H                                       1.0870503
    70   6 C      168   1 H                                       1.0804883
    71   6 C      169   1 H                                       1.0796516
    74   6 C      170   1 H                                       1.0858537
    74   6 C      171   1 H                                       1.0859349
    74   6 C      172   1 H                                       1.0863186
    75   6 C      173   1 H                                       1.0773794
    76   6 C      174   1 H                                       1.0768241
    78   6 C      175   1 H                                       1.0793559
    79   6 C      176   1 H                                       1.0782492
    82   6 C      177   1 H                                       1.0864089
    82   6 C      178   1 H                                       1.0861079
    82   6 C      179   1 H                                       1.0872329
    83   6 C      180   1 H                                       1.0795396
    84   6 C      181   1 H                                       1.0775726
    91   6 C      182   1 H                                       1.0799754
    92   6 C      183   1 H                                       1.0787139
    95   6 C      184   1 H                                       1.0855278
    95   6 C      185   1 H                                       1.0853558
    95   6 C      186   1 H                                       1.0860732
    96   6 C      187   1 H                                       1.0777553
    97   6 C      188   1 H                                       1.0791546
    99   6 C      189   1 H                                       1.0788953
   100   6 C      190   1 H                                       1.0788416
   103   6 C      191   1 H                                       1.0856378
   103   6 C      192   1 H                                       1.0859850
   103   6 C      193   1 H                                       1.0857605
   104   6 C      194   1 H                                       1.0781204
   105   6 C      195   1 H                                       1.0797086
   108   6 C      196   1 H                                       1.0816068
   113   6 C      197   1 H                                       1.0790123
   116   6 C      198   1 H                                       1.0776252
   124   6 C      199   1 H                                       1.0881569
   125   6 C      200   1 H                                       1.0867882
   126   6 C      201   1 H                                       1.0743355
   127   6 C      202   1 H                                       1.0743691
   128   6 C      203   1 H                                       1.0870825
   129   6 C      204   1 H                                       1.0890921
   129   6 C      205   1 H                                       1.0891787
   130   6 C      206   1 H                                       1.0884410

 * 6 distinct bonds (by element types)

   Z      Z             #   av. dist./Å        max./Å        min./Å
   1 H    6 C          76     1.0839849     1.0954567     1.0717963
   6 C    6 C          93     1.4193991     1.5613701     1.3262446
   6 C    7 N          14     1.3040876     1.4231653     1.1481557
   6 C    8 O           2     1.2171401     1.2198431     1.2144371
   6 C   16 S           4     1.7483998     1.7607277     1.7388302
   6 C   34 Se          4     1.8793535     1.8833382     1.8741400


optimized geometry written to: xtbopt.mol


           -------------------------------------------------
          | TOTAL ENERGY             -343.097608426647 Eh   |
          | GRADIENT NORM               0.001148607754 Eh/α |
          | HOMO-LUMO GAP               0.603720805023 eV   |
           -------------------------------------------------

------------------------------------------------------------------------
 * finished run on 2022/02/15 at 05:28:43.663     
------------------------------------------------------------------------
 total:
 * wall-time:     0 d,  0 h, 12 min, 49.832 sec
 *  cpu-time:     0 d,  1 h,  6 min, 42.649 sec
 * ratio c/w:     5.199 speedup
 SCF:
 * wall-time:     0 d,  0 h,  0 min,  3.830 sec
 *  cpu-time:     0 d,  0 h,  0 min, 18.380 sec
 * ratio c/w:     4.798 speedup
 ANC optimizer:
 * wall-time:     0 d,  0 h, 12 min, 45.850 sec
 *  cpu-time:     0 d,  1 h,  6 min, 23.474 sec
 * ratio c/w:     5.201 speedup

