      -----------------------------------------------------------      
     |                   =====================                   |     
     |                           x T B                           |     
     |                   =====================                   |     
     |                         S. Grimme                         |     
     |          Mulliken Center for Theoretical Chemistry        |     
     |                    University of Bonn                     |     
      -----------------------------------------------------------      

   * xtb version 6.4.1 (unknown) compiled by 'oda6@login1.crc.pitt.edu' on 2021-06-25

   xtb is free software: you can redistribute it and/or modify it under
   the terms of the GNU Lesser General Public License as published by
   the Free Software Foundation, either version 3 of the License, or
   (at your option) any later version.
   
   xtb is distributed in the hope that it will be useful,
   but WITHOUT ANY WARRANTY; without even the implied warranty of
   MERCHANTABILITY or FITNESS FOR A PARTICULAR PURPOSE.  See the
   GNU Lesser General Public License for more details.
   
   Cite this work as:
   * C. Bannwarth, E. Caldeweyher, S. Ehlert, A. Hansen, P. Pracht,
     J. Seibert, S. Spicher, S. Grimme, WIREs Comput. Mol. Sci., 2020, 11,
     e01493. DOI: 10.1002/wcms.1493
   
   for GFN2-xTB:
   * C. Bannwarth, S. Ehlert and S. Grimme., J. Chem. Theory Comput., 2019,
     15, 1652-1671. DOI: 10.1021/acs.jctc.8b01176
   for GFN1-xTB:
   * S. Grimme, C. Bannwarth, P. Shushkov, J. Chem. Theory Comput., 2017,
     13, 1989-2009. DOI: 10.1021/acs.jctc.7b00118
   for GFN0-xTB:
   * P. Pracht, E. Caldeweyher, S. Ehlert, S. Grimme, ChemRxiv, 2019, preprint.
     DOI: 10.26434/chemrxiv.8326202.v1
   for GFN-FF:
   * S. Spicher and S. Grimme, Angew. Chem. Int. Ed., 2020, 59, 15665-15673.
     DOI: 10.1002/anie.202004239
   
   for DFT-D4:
   * E. Caldeweyher, C. Bannwarth and S. Grimme, J. Chem. Phys., 2017,
     147, 034112. DOI: 10.1063/1.4993215
   * E. Caldeweyher, S. Ehlert, A. Hansen, H. Neugebauer, S. Spicher,
     C. Bannwarth and S. Grimme, J. Chem. Phys., 2019, 150, 154122.
     DOI: 10.1063/1.5090222
   * E. Caldeweyher, J.-M. Mewes, S. Ehlert and S. Grimme, Phys. Chem. Chem. Phys.
     2020, 22, 8499-8512. DOI: 10.1039/D0CP00502A
   
   for sTDA-xTB:
   * S. Grimme and C. Bannwarth, J. Chem. Phys., 2016, 145, 054103.
     DOI: 10.1063/1.4959605
   
   in the mass-spec context:
   * V. Asgeirsson, C. Bauer and S. Grimme, Chem. Sci., 2017, 8, 4879.
     DOI: 10.1039/c7sc00601b
   * J. Koopman and S. Grimme, ACS Omega 2019, 4, 12, 15120-15133.
     DOI: 10.1021/acsomega.9b02011
   
   for metadynamics refer to:
   * S. Grimme, J. Chem. Theory Comput., 2019, 155, 2847-2862
     DOI: 10.1021/acs.jctc.9b00143
   
   for SPH calculations refer to:
   * S. Spicher and S. Grimme, J. Chem. Theory Comput., 2021, 17, 1701-1714
     DOI: 10.1021/acs.jctc.0c01306
   
   with help from (in alphabetical order)
   P. Atkinson, C. Bannwarth, F. Bohle, G. Brandenburg, E. Caldeweyher
   M. Checinski, S. Dohm, S. Ehlert, S. Ehrlich, I. Gerasimov, J. Koopman
   C. Lavigne, S. Lehtola, F. März, M. Müller, F. Musil, H. Neugebauer
   J. Pisarek, C. Plett, P. Pracht, J. Seibert, P. Shushkov, S. Spicher
   M. Stahn, M. Steiner, T. Strunk, J. Stückrath, T. Rose, and J. Unsleber
   
 * started run on 2022/02/08 at 12:24:53.202     

           -------------------------------------------------
          |                Calculation Setup                |
           -------------------------------------------------

          program call               : /ihome/ghutchison/oda6/xtb/xtb-641/bin/xtb ../../FF_optimized/45_50_130_50_45.mol -opt
          hostname                   : smp-n26
          coordinate file            : ../../FF_optimized/45_50_130_50_45.mol
          omp threads                :                     8
          number of atoms            :                   134
          number of electrons        :                   444
          charge                     :                     0
          spin                       :                   0.0
          first test random number   :      0.56002296442257

   ID    Z sym.   atoms
    1    6 C      1-3, 5, 7, 9-13, 15, 17-19, 21-23, 25, 26, 28-31, 33-39,
                  41-44, 46, 47, 49-52, 54-60, 62-65, 67-69, 71-73, 75-77,
                  79, 81, 83-87, 89
    2    8 O      4, 78
    3   16 S      6, 20, 24, 32, 40, 45, 53, 61, 66, 70, 74, 80
    4   17 Cl     8, 82
    5    7 N      14, 16, 27, 48, 88, 90
    6    1 H      91-134
########################################################################
[WARNING] Please study the warnings concerning your input carefully
-1- prog_main_parseArguments: the use of '-opt' is discouraged, please use '--opt' next time
########################################################################

           -------------------------------------------------
          |                 G F N 2 - x T B                 |
           -------------------------------------------------

        Reference                      10.1021/acs.jctc.8b01176
      * Hamiltonian:
        H0-scaling (s, p, d)           1.850000    2.230000    2.230000
        zeta-weighting                 0.500000
      * Dispersion:
        s8                             2.700000
        a1                             0.520000
        a2                             5.000000
        s9                             5.000000
      * Repulsion:
        kExp                           1.500000    1.000000
        rExp                           1.000000
      * Coulomb:
        alpha                          2.000000
        third order                    shell-resolved
        anisotropic                    true
        a3                             3.000000
        a5                             4.000000
        cn-shift                       1.200000
        cn-exp                         4.000000
        max-rad                        5.000000


          ...................................................
          :                      SETUP                      :
          :.................................................:
          :  # basis functions                 488          :
          :  # atomic orbitals                 474          :
          :  # shells                          238          :
          :  # electrons                       444          :
          :  max. iterations                   250          :
          :  Hamiltonian                  GFN2-xTB          :
          :  restarted?                      false          :
          :  GBSA solvation                  false          :
          :  PC potential                    false          :
          :  electronic temp.          300.0000000     K    :
          :  accuracy                    1.0000000          :
          :  -> integral cutoff          0.2500000E+02      :
          :  -> integral neglect         0.1000000E-07      :
          :  -> SCF convergence          0.1000000E-05 Eh   :
          :  -> wf. convergence          0.1000000E-03 e    :
          :  Broyden damping             0.4000000          :
          ...................................................

 iter      E             dE          RMSdq      gap      omega  full diag
   1   -244.5646357 -0.244565E+03  0.507E+00    1.25       0.0  T
   2   -244.6811541 -0.116518E+00  0.308E+00    1.24       1.0  T
   3   -244.3323043  0.348850E+00  0.221E+00    0.34       1.0  T
   4   -244.8289436 -0.496639E+00  0.681E-01    0.34       1.0  T
   5   -244.8623278 -0.333842E-01  0.320E-01    0.16       1.0  T
   6   -244.8655426 -0.321481E-02  0.183E-01    0.39       1.0  T
   7   -244.8677992 -0.225663E-02  0.103E-01    0.40       1.0  T
   8   -244.8680354 -0.236140E-03  0.784E-02    0.40       1.0  T
   9   -244.8681822 -0.146853E-03  0.544E-02    0.34       1.0  T
  10   -244.8683283 -0.146118E-03  0.367E-02    0.29       1.0  T
  11   -244.8683744 -0.460638E-04  0.285E-02    0.27       1.0  T
  12   -244.8684213 -0.469274E-04  0.175E-02    0.29       1.0  T
  13   -244.8684358 -0.144952E-04  0.113E-02    0.30       1.0  T
  14   -244.8684452 -0.938387E-05  0.523E-03    0.30       1.7  T
  15   -244.8684466 -0.139345E-05  0.291E-03    0.30       3.0  T
  16   -244.8684470 -0.410161E-06  0.136E-03    0.30       6.3  T
  17   -244.8684471 -0.112864E-06  0.648E-04    0.30      13.3  T
  18   -244.8684471 -0.242412E-07  0.366E-04    0.30      23.6  T

   *** convergence criteria satisfied after 18 iterations ***

         #    Occupation            Energy/Eh            Energy/eV
      -------------------------------------------------------------
         1        2.0000           -1.0907484             -29.6808
       ...           ...                  ...                  ...
       216        2.0000           -0.3797073             -10.3324
       217        2.0000           -0.3757631             -10.2250
       218        2.0000           -0.3704049             -10.0792
       219        2.0000           -0.3644773              -9.9179
       220        2.0000           -0.3639229              -9.9028
       221        1.9999           -0.3613941              -9.8340
       222        1.9922           -0.3574857              -9.7277 (HOMO)
       223        0.0049           -0.3464980              -9.4287 (LUMO)
       224        0.0030           -0.3460458              -9.4164
       225        0.0000           -0.3394676              -9.2374
       226        0.0000           -0.3377584              -9.1909
       227                         -0.3019594              -8.2167
       ...                                ...                  ...
       474                          1.0635307              28.9401
      -------------------------------------------------------------
                  HL-Gap            0.0109877 Eh            0.2990 eV
             Fermi-level           -0.3522139 Eh           -9.5842 eV

 SCC (total)                   0 d,  0 h,  0 min,  0.547 sec
 SCC setup                      ...        0 min,  0.001 sec (  0.194%)
 Dispersion                     ...        0 min,  0.008 sec (  1.391%)
 classical contributions        ...        0 min,  0.000 sec (  0.036%)
 integral evaluation            ...        0 min,  0.034 sec (  6.297%)
 iterations                     ...        0 min,  0.438 sec ( 80.120%)
 molecular gradient             ...        0 min,  0.063 sec ( 11.534%)
 printout                       ...        0 min,  0.002 sec (  0.415%)

         :::::::::::::::::::::::::::::::::::::::::::::::::::::
         ::                     SUMMARY                     ::
         :::::::::::::::::::::::::::::::::::::::::::::::::::::
         :: total energy            -241.464620357623 Eh    ::
         :: gradient norm              0.274559908868 Eh/a0 ::
         :: HOMO-LUMO gap              0.298991594714 eV    ::
         ::.................................................::
         :: SCC energy              -244.868447149860 Eh    ::
         :: -> isotropic ES            0.119245601238 Eh    ::
         :: -> anisotropic ES          0.014455551975 Eh    ::
         :: -> anisotropic XC          0.165133332956 Eh    ::
         :: -> dispersion             -0.242192425207 Eh    ::
         :: repulsion energy           3.395470419009 Eh    ::
         :: add. restraining           0.000000000000 Eh    ::
         :: total charge              -0.000000000729 e     ::
         :::::::::::::::::::::::::::::::::::::::::::::::::::::

      ----------------------------------------------------------- 
     |                   =====================                   |
     |                        A N C O P T                        |
     |                   =====================                   |
     |               Approximate Normal Coordinate               |
     |                Rational Function Optimizer                |
      ----------------------------------------------------------- 

          ...................................................
          :                      SETUP                      :
          :.................................................:
          :   optimization level            normal          :
          :   max. optcycles                   402          :
          :   ANC micro-cycles                  20          :
          :   degrees of freedom               396          :
          :.................................................:
          :   RF solver                   davidson          :
          :   write xtbopt.log                true          :
          :   linear?                        false          :
          :   energy convergence         0.5000000E-05 Eh   :
          :   grad. convergence          0.1000000E-02 Eh/α :
          :   maximium RF displ.         1.0000000          :
          :   Hlow (freq-cutoff)         0.1000000E-01      :
          :   Hmax (freq-cutoff)         5.0000000          :
          :   S6 in model hess.         20.0000000          :
          ...................................................

generating ANC from model Hessian ...
Using Lindh-Hessian (1995)
 Shifting diagonal of input Hessian by   1.004195713517568E-002
 Lowest  eigenvalues of input Hessian
    0.010000    0.000000    0.000000    0.000000    0.000000    0.000000
    0.000000    0.010045    0.010056    0.010081    0.010106    0.010128
    0.010145    0.010160    0.010168    0.010193    0.010276    0.010290
 Highest eigenvalues
    2.149396    2.153029    2.502544    2.507407    2.553525    2.566033
 

........................................................................
.............................. CYCLE    1 ..............................
........................................................................
   1   -244.8684472 -0.244868E+03  0.215E-04    0.30       0.0  T
   2   -244.8684472  0.518412E-10  0.188E-04    0.30      45.9  T
   3   -244.8684472 -0.228394E-08  0.133E-04    0.30      65.0  T
     SCC iter.                  ...        0 min,  0.084 sec
     gradient                   ...        0 min,  0.061 sec
 * total energy  :  -241.4646204 Eh     change       -0.6257721E-08 Eh
   gradient norm :     0.2745592 Eh/α   predicted     0.0000000E+00 (-100.00%)
   displ. norm   :     0.4245989 α      lambda       -0.7923061E-01
   maximum displ.:     0.0826579 α      in ANC's #249, #209, #85, ...

........................................................................
.............................. CYCLE    2 ..............................
........................................................................
   1   -245.0277987 -0.245028E+03  0.269E-01    0.30       0.0  T
   2   -245.0291799 -0.138117E-02  0.167E-01    0.31       1.0  T
   3   -245.0291738  0.607494E-05  0.959E-02    0.31       1.0  T
   4   -245.0295833 -0.409483E-03  0.417E-02    0.29       1.0  T
   5   -245.0297446 -0.161300E-03  0.199E-02    0.32       1.0  T
   6   -245.0297737 -0.290945E-04  0.118E-02    0.30       1.0  T
   7   -245.0297800 -0.632041E-05  0.854E-03    0.31       1.0  T
   8   -245.0297834 -0.342190E-05  0.631E-03    0.31       1.4  T
   9   -245.0297850 -0.157247E-05  0.456E-03    0.31       1.9  T
  10   -245.0297864 -0.139644E-05  0.261E-03    0.31       3.3  T
  11   -245.0297868 -0.424025E-06  0.147E-03    0.31       5.9  T
  12   -245.0297869 -0.113508E-06  0.868E-04    0.31       9.9  T
  13   -245.0297870 -0.477972E-07  0.359E-04    0.31      24.1  T
     SCC iter.                  ...        0 min,  0.347 sec
     gradient                   ...        0 min,  0.062 sec
 * total energy  :  -241.5210847 Eh     change       -0.5646435E-01 Eh
   gradient norm :     0.1272894 Eh/α   predicted    -0.4679416E-01 ( -17.13%)
   displ. norm   :     0.4452768 α      lambda       -0.3168306E-01
   maximum displ.:     0.1113406 α      in ANC's #85, #71, #65, ...

........................................................................
.............................. CYCLE    3 ..............................
........................................................................
   1   -245.1148519 -0.245115E+03  0.235E-01    0.26       0.0  T
   2   -245.1159727 -0.112081E-02  0.147E-01    0.31       1.0  T
   3   -245.1161428 -0.170031E-03  0.864E-02    0.29       1.0  T
   4   -245.1165013 -0.358547E-03  0.386E-02    0.28       1.0  T
   5   -245.1166264 -0.125128E-03  0.190E-02    0.30       1.0  T
   6   -245.1166534 -0.269556E-04  0.112E-02    0.29       1.0  T
   7   -245.1166587 -0.531559E-05  0.834E-03    0.29       1.0  T
   8   -245.1166619 -0.322037E-05  0.605E-03    0.29       1.4  T
   9   -245.1166634 -0.143467E-05  0.437E-03    0.29       2.0  T
  10   -245.1166647 -0.137468E-05  0.244E-03    0.29       3.5  T
  11   -245.1166651 -0.382314E-06  0.143E-03    0.29       6.1  T
  12   -245.1166652 -0.123482E-06  0.763E-04    0.29      11.3  T
  13   -245.1166653 -0.304341E-07  0.321E-04    0.29      26.9  T
     SCC iter.                  ...        0 min,  0.312 sec
     gradient                   ...        0 min,  0.061 sec
 * total energy  :  -241.5401128 Eh     change       -0.1902808E-01 Eh
   gradient norm :     0.0406525 Eh/α   predicted    -0.1898248E-01 (  -0.24%)
   displ. norm   :     0.5277700 α      lambda       -0.9889228E-02
   maximum displ.:     0.1428924 α      in ANC's #85, #65, #59, ...

........................................................................
.............................. CYCLE    4 ..............................
........................................................................
   1   -245.1326103 -0.245133E+03  0.267E-01    0.30       0.0  T
   2   -245.1328147 -0.204352E-03  0.153E-01    0.30       1.0  T
   3   -245.1316469  0.116777E-02  0.977E-02    0.29       1.0  T
   4   -245.1330499 -0.140302E-02  0.210E-02    0.30       1.0  T
   5   -245.1330936 -0.437420E-04  0.111E-02    0.29       1.0  T
   6   -245.1331028 -0.912855E-05  0.561E-03    0.30       1.5  T
   7   -245.1331040 -0.122590E-05  0.377E-03    0.29       2.3  T
   8   -245.1331046 -0.608240E-06  0.277E-03    0.30       3.1  T
   9   -245.1331048 -0.238934E-06  0.217E-03    0.29       4.0  T
  10   -245.1331051 -0.300654E-06  0.137E-03    0.30       6.3  T
  11   -245.1331053 -0.110115E-06  0.826E-04    0.29      10.5  T
  12   -245.1331053 -0.469279E-07  0.387E-04    0.30      22.3  T
     SCC iter.                  ...        0 min,  0.308 sec
     gradient                   ...        0 min,  0.061 sec
 * total energy  :  -241.5433207 Eh     change       -0.3207941E-02 Eh
   gradient norm :     0.0416332 Eh/α   predicted    -0.6321928E-02 (  97.07%)
   displ. norm   :     0.5213353 α      lambda       -0.9778395E-02
   maximum displ.:     0.1506438 α      in ANC's #29, #35, #55, ...

........................................................................
.............................. CYCLE    5 ..............................
........................................................................
   1   -245.1547643 -0.245155E+03  0.335E-01    0.28       0.0  T
   2   -245.1549719 -0.207676E-03  0.188E-01    0.29       1.0  T
   3   -245.1536594  0.131252E-02  0.945E-02    0.30       1.0  T
   4   -245.1551656 -0.150618E-02  0.157E-02    0.28       1.0  T
   5   -245.1551901 -0.245352E-04  0.788E-03    0.29       1.1  T
   6   -245.1551944 -0.430167E-05  0.369E-03    0.29       2.3  T
   7   -245.1551952 -0.791778E-06  0.192E-03    0.29       4.5  T
   8   -245.1551954 -0.190568E-06  0.135E-03    0.29       6.4  T
   9   -245.1551955 -0.554645E-07  0.104E-03    0.29       8.3  T
  10   -245.1551955 -0.462640E-07  0.739E-04    0.29      11.7  T
  11   -245.1551956 -0.273138E-07  0.520E-04    0.29      16.6  T
     SCC iter.                  ...        0 min,  0.277 sec
     gradient                   ...        0 min,  0.061 sec
 * total energy  :  -241.5479845 Eh     change       -0.4663765E-02 Eh
   gradient norm :     0.0262588 Eh/α   predicted    -0.6218052E-02 (  33.33%)
   displ. norm   :     0.3768416 α      lambda       -0.2840300E-02
   maximum displ.:     0.1149859 α      in ANC's #40, #34, #41, ...

........................................................................
.............................. CYCLE    6 ..............................
........................................................................
   1   -245.1518924 -0.245152E+03  0.884E-02    0.29       0.0  T
   2   -245.1519036 -0.112504E-04  0.516E-02    0.29       1.0  T
   3   -245.1517628  0.140791E-03  0.322E-02    0.28       1.0  T
   4   -245.1519220 -0.159139E-03  0.671E-03    0.29       1.3  T
   5   -245.1519254 -0.343916E-05  0.352E-03    0.29       2.5  T
   6   -245.1519262 -0.806603E-06  0.177E-03    0.29       4.9  T
   7   -245.1519265 -0.236456E-06  0.102E-03    0.29       8.5  T
   8   -245.1519265 -0.324582E-07  0.773E-04    0.29      11.2  T
   9   -245.1519265 -0.269254E-07  0.542E-04    0.29      15.9  T
     SCC iter.                  ...        0 min,  0.232 sec
     gradient                   ...        0 min,  0.061 sec
 * total energy  :  -241.5502389 Eh     change       -0.2254393E-02 Eh
   gradient norm :     0.0142969 Eh/α   predicted    -0.1621825E-02 ( -28.06%)
   displ. norm   :     0.6839003 α      lambda       -0.3673743E-02
   maximum displ.:     0.2209346 α      in ANC's #34, #40, #26, ...

........................................................................
.............................. CYCLE    7 ..............................
........................................................................
   1   -245.1531486 -0.245153E+03  0.217E-01    0.30       0.0  T
   2   -245.1532192 -0.706029E-04  0.122E-01    0.31       1.0  T
   3   -245.1527174  0.501824E-03  0.578E-02    0.28       1.0  T
   4   -245.1532797 -0.562285E-03  0.113E-02    0.31       1.0  T
   5   -245.1532880 -0.834252E-05  0.653E-03    0.30       1.3  T
   6   -245.1532917 -0.367033E-05  0.275E-03    0.30       3.1  T
   7   -245.1532922 -0.475692E-06  0.154E-03    0.30       5.6  T
   8   -245.1532923 -0.103001E-06  0.108E-03    0.30       8.0  T
   9   -245.1532923 -0.450566E-07  0.808E-04    0.30      10.7  T
  10   -245.1532924 -0.329346E-07  0.556E-04    0.30      15.6  T
     SCC iter.                  ...        0 min,  0.271 sec
     gradient                   ...        0 min,  0.062 sec
 * total energy  :  -241.5522741 Eh     change       -0.2035226E-02 Eh
   gradient norm :     0.0204361 Eh/α   predicted    -0.2696022E-02 (  32.47%)
   displ. norm   :     0.6067869 α      lambda       -0.3358467E-02
   maximum displ.:     0.2147385 α      in ANC's #34, #40, #41, ...

........................................................................
.............................. CYCLE    8 ..............................
........................................................................
   1   -245.1579944 -0.245158E+03  0.187E-01    0.31       0.0  T
   2   -245.1580369 -0.424820E-04  0.105E-01    0.31       1.0  T
   3   -245.1574684  0.568410E-03  0.586E-02    0.31       1.0  T
   4   -245.1581009 -0.632440E-03  0.812E-03    0.31       1.1  T
   5   -245.1581032 -0.234126E-05  0.489E-03    0.31       1.8  T
   6   -245.1581049 -0.167509E-05  0.207E-03    0.31       4.2  T
   7   -245.1581052 -0.353593E-06  0.885E-04    0.31       9.8  T
   8   -245.1581053 -0.472488E-07  0.503E-04    0.31      17.2  T
     SCC iter.                  ...        0 min,  0.202 sec
     gradient                   ...        0 min,  0.061 sec
 * total energy  :  -241.5541102 Eh     change       -0.1836110E-02 Eh
   gradient norm :     0.0217575 Eh/α   predicted    -0.2297516E-02 (  25.13%)
   displ. norm   :     0.4996228 α      lambda       -0.2220892E-02
   maximum displ.:     0.1911501 α      in ANC's #34, #41, #26, ...

........................................................................
.............................. CYCLE    9 ..............................
........................................................................
   1   -245.1572894 -0.245157E+03  0.152E-01    0.31       0.0  T
   2   -245.1573269 -0.374416E-04  0.853E-02    0.31       1.0  T
   3   -245.1570671  0.259732E-03  0.404E-02    0.31       1.0  T
   4   -245.1573581 -0.290967E-03  0.759E-03    0.31       1.1  T
   5   -245.1573619 -0.376026E-05  0.426E-03    0.31       2.0  T
   6   -245.1573630 -0.118672E-05  0.187E-03    0.31       4.6  T
   7   -245.1573633 -0.274794E-06  0.911E-04    0.31       9.5  T
   8   -245.1573634 -0.443129E-07  0.614E-04    0.31      14.1  T
     SCC iter.                  ...        0 min,  0.200 sec
     gradient                   ...        0 min,  0.061 sec
 * total energy  :  -241.5555723 Eh     change       -0.1462056E-02 Eh
   gradient norm :     0.0265485 Eh/α   predicted    -0.1387640E-02 (  -5.09%)
   displ. norm   :     0.5978344 α      lambda       -0.2839918E-02
   maximum displ.:     0.2480723 α      in ANC's #34, #26, #20, ...

........................................................................
.............................. CYCLE   10 ..............................
........................................................................
   1   -245.1628800 -0.245163E+03  0.182E-01    0.30       0.0  T
   2   -245.1629408 -0.607558E-04  0.102E-01    0.30       1.0  T
   3   -245.1627675  0.173323E-03  0.373E-02    0.31       1.0  T
   4   -245.1629691 -0.201616E-03  0.920E-03    0.30       1.0  T
   5   -245.1629755 -0.642085E-05  0.486E-03    0.30       1.8  T
   6   -245.1629769 -0.140721E-05  0.231E-03    0.30       3.7  T
   7   -245.1629773 -0.406787E-06  0.119E-03    0.30       7.3  T
   8   -245.1629774 -0.554563E-07  0.892E-04    0.30       9.7  T
   9   -245.1629774 -0.319225E-07  0.641E-04    0.30      13.5  T
     SCC iter.                  ...        0 min,  0.227 sec
     gradient                   ...        0 min,  0.061 sec
 * total energy  :  -241.5569198 Eh     change       -0.1347561E-02 Eh
   gradient norm :     0.0469339 Eh/α   predicted    -0.1927466E-02 (  43.03%)
   displ. norm   :     0.5455362 α      lambda       -0.3494901E-02
   maximum displ.:     0.2449085 α      in ANC's #34, #20, #41, ...

........................................................................
.............................. CYCLE   11 ..............................
........................................................................
   1   -245.1768611 -0.245177E+03  0.203E-01    0.32       0.0  T
   2   -245.1769404 -0.793108E-04  0.113E-01    0.31       1.0  T
   3   -245.1768535  0.868951E-04  0.288E-02    0.31       1.0  T
   4   -245.1769645 -0.110969E-03  0.863E-03    0.31       1.0  T
   5   -245.1769694 -0.496415E-05  0.476E-03    0.31       1.8  T
   6   -245.1769712 -0.174331E-05  0.212E-03    0.31       4.1  T
   7   -245.1769716 -0.389097E-06  0.884E-04    0.31       9.8  T
   8   -245.1769716 -0.327038E-07  0.543E-04    0.31      15.9  T
     SCC iter.                  ...        0 min,  0.199 sec
     gradient                   ...        0 min,  0.061 sec
 * total energy  :  -241.5583221 Eh     change       -0.1402256E-02 Eh
   gradient norm :     0.0349416 Eh/α   predicted    -0.2267509E-02 (  61.70%)
   displ. norm   :     0.5308368 α      lambda       -0.2400398E-02
   maximum displ.:     0.2206487 α      in ANC's #34, #26, #20, ...

........................................................................
.............................. CYCLE   12 ..............................
........................................................................
   1   -245.1696449 -0.245170E+03  0.139E-01    0.34       0.0  T
   2   -245.1696767 -0.318376E-04  0.782E-02    0.33       1.0  T
   3   -245.1694754  0.201340E-03  0.380E-02    0.32       1.0  T
   4   -245.1696988 -0.223452E-03  0.838E-03    0.33       1.0  T
   5   -245.1697042 -0.535602E-05  0.446E-03    0.33       1.9  T
   6   -245.1697057 -0.156064E-05  0.181E-03    0.33       4.8  T
   7   -245.1697060 -0.254254E-06  0.864E-04    0.33      10.0  T
   8   -245.1697060 -0.347105E-07  0.566E-04    0.33      15.3  T
     SCC iter.                  ...        0 min,  0.207 sec
     gradient                   ...        0 min,  0.061 sec
 * total energy  :  -241.5599801 Eh     change       -0.1657979E-02 Eh
   gradient norm :     0.0214610 Eh/α   predicted    -0.1538402E-02 (  -7.21%)
   displ. norm   :     0.6067760 α      lambda       -0.2209169E-02
   maximum displ.:     0.2624255 α      in ANC's #34, #20, #26, ...

........................................................................
.............................. CYCLE   13 ..............................
........................................................................
   1   -245.1547495 -0.245155E+03  0.176E-01    0.32       0.0  T
   2   -245.1547905 -0.409575E-04  0.985E-02    0.32       1.0  T
   3   -245.1544586  0.331853E-03  0.490E-02    0.31       1.0  T
   4   -245.1548256 -0.366931E-03  0.971E-03    0.33       1.0  T
   5   -245.1548332 -0.768548E-05  0.478E-03    0.32       1.8  T
   6   -245.1548347 -0.143890E-05  0.229E-03    0.32       3.8  T
   7   -245.1548352 -0.493482E-06  0.114E-03    0.32       7.6  T
   8   -245.1548352 -0.579246E-07  0.792E-04    0.32      10.9  T
   9   -245.1548353 -0.292683E-07  0.559E-04    0.32      15.4  T
     SCC iter.                  ...        0 min,  0.241 sec
     gradient                   ...        0 min,  0.062 sec
 * total energy  :  -241.5607664 Eh     change       -0.7862768E-03 Eh
   gradient norm :     0.0397865 Eh/α   predicted    -0.1511272E-02 (  92.21%)
   displ. norm   :     0.4764505 α      lambda       -0.2432791E-02
   maximum displ.:     0.2093881 α      in ANC's #34, #20, #26, ...

........................................................................
.............................. CYCLE   14 ..............................
........................................................................
   1   -245.1678882 -0.245168E+03  0.138E-01    0.34       0.0  T
   2   -245.1679184 -0.302404E-04  0.768E-02    0.33       1.0  T
   3   -245.1678264  0.920349E-04  0.273E-02    0.34       1.0  T
   4   -245.1679321 -0.105714E-03  0.671E-03    0.33       1.3  T
   5   -245.1679350 -0.293959E-05  0.344E-03    0.33       2.5  T
   6   -245.1679359 -0.875790E-06  0.148E-03    0.33       5.9  T
   7   -245.1679362 -0.245585E-06  0.634E-04    0.33      13.6  T
   8   -245.1679362 -0.249587E-07  0.341E-04    0.33      25.3  T
     SCC iter.                  ...        0 min,  0.204 sec
     gradient                   ...        0 min,  0.061 sec
 * total energy  :  -241.5623593 Eh     change       -0.1592922E-02 Eh
   gradient norm :     0.0167627 Eh/α   predicted    -0.1492525E-02 (  -6.30%)
   displ. norm   :     0.6197668 α      lambda       -0.1418023E-02
   maximum displ.:     0.2881710 α      in ANC's #34, #20, #16, ...

........................................................................
.............................. CYCLE   15 ..............................
........................................................................
   1   -245.1662697 -0.245166E+03  0.121E-01    0.35       0.0  T
   2   -245.1662901 -0.203793E-04  0.674E-02    0.34       1.0  T
   3   -245.1662377  0.523995E-04  0.208E-02    0.35       1.0  T
   4   -245.1662943 -0.565400E-04  0.812E-03    0.34       1.1  T
   5   -245.1662986 -0.434719E-05  0.403E-03    0.34       2.1  T
   6   -245.1663001 -0.152217E-05  0.138E-03    0.34       6.3  T
   7   -245.1663004 -0.233301E-06  0.631E-04    0.34      13.7  T
   8   -245.1663004 -0.304094E-07  0.349E-04    0.34      24.8  T
     SCC iter.                  ...        0 min,  0.206 sec
     gradient                   ...        0 min,  0.061 sec
 * total energy  :  -241.5634284 Eh     change       -0.1069147E-02 Eh
   gradient norm :     0.0160964 Eh/α   predicted    -0.9813530E-03 (  -8.21%)
   displ. norm   :     0.6064641 α      lambda       -0.1533428E-02
   maximum displ.:     0.2341377 α      in ANC's #34, #20, #16, ...

........................................................................
.............................. CYCLE   16 ..............................
........................................................................
   1   -245.1898022 -0.245190E+03  0.122E-01    0.35       0.0  T
   2   -245.1898363 -0.340516E-04  0.678E-02    0.35       1.0  T
   3   -245.1896376  0.198674E-03  0.365E-02    0.35       1.0  T
   4   -245.1898533 -0.215711E-03  0.101E-02    0.35       1.0  T
   5   -245.1898618 -0.850206E-05  0.428E-03    0.35       2.0  T
   6   -245.1898627 -0.886485E-06  0.166E-03    0.35       5.2  T
   7   -245.1898630 -0.258126E-06  0.761E-04    0.35      11.4  T
   8   -245.1898630 -0.412011E-07  0.421E-04    0.35      20.5  T
     SCC iter.                  ...        0 min,  0.207 sec
     gradient                   ...        0 min,  0.061 sec
 * total energy  :  -241.5643148 Eh     change       -0.8863784E-03 Eh
   gradient norm :     0.0240582 Eh/α   predicted    -0.1048713E-02 (  18.31%)
   displ. norm   :     0.6438511 α      lambda       -0.1183884E-02
   maximum displ.:     0.2929952 α      in ANC's #34, #20, #16, ...

........................................................................
.............................. CYCLE   17 ..............................
........................................................................
   1   -245.1724218 -0.245172E+03  0.118E-01    0.34       0.0  T
   2   -245.1724479 -0.260731E-04  0.660E-02    0.34       1.0  T
   3   -245.1723357  0.112240E-03  0.286E-02    0.35       1.0  T
   4   -245.1724567 -0.120989E-03  0.977E-03    0.34       1.0  T
   5   -245.1724638 -0.710134E-05  0.483E-03    0.34       1.8  T
   6   -245.1724655 -0.173294E-05  0.179E-03    0.34       4.8  T
   7   -245.1724659 -0.416953E-06  0.700E-04    0.34      12.3  T
   8   -245.1724660 -0.420642E-07  0.367E-04    0.34      23.6  T
     SCC iter.                  ...        0 min,  0.207 sec
     gradient                   ...        0 min,  0.061 sec
 * total energy  :  -241.5651101 Eh     change       -0.7952566E-03 Eh
   gradient norm :     0.0138281 Eh/α   predicted    -0.8373328E-03 (   5.29%)
   displ. norm   :     0.4680855 α      lambda       -0.8381773E-03
   maximum displ.:     0.1712944 α      in ANC's #34, #20, #2, ...

........................................................................
.............................. CYCLE   18 ..............................
........................................................................
   1   -245.1675290 -0.245168E+03  0.858E-02    0.33       0.0  T
   2   -245.1675469 -0.179024E-04  0.460E-02    0.34       1.0  T
   3   -245.1674761  0.708011E-04  0.229E-02    0.34       1.0  T
   4   -245.1675531 -0.770662E-04  0.781E-03    0.34       1.1  T
   5   -245.1675582 -0.511811E-05  0.329E-03    0.34       2.6  T
   6   -245.1675587 -0.416278E-06  0.153E-03    0.34       5.7  T
   7   -245.1675590 -0.312723E-06  0.536E-04    0.34      16.1  T
   8   -245.1675590 -0.207118E-07  0.314E-04    0.34      27.5  T
     SCC iter.                  ...        0 min,  0.207 sec
     gradient                   ...        0 min,  0.061 sec
 * total energy  :  -241.5657028 Eh     change       -0.5926916E-03 Eh
   gradient norm :     0.0143206 Eh/α   predicted    -0.5109142E-03 ( -13.80%)
   displ. norm   :     0.5584114 α      lambda       -0.1069973E-02
   maximum displ.:     0.1752814 α      in ANC's #2, #20, #16, ...

........................................................................
.............................. CYCLE   19 ..............................
........................................................................
   1   -245.1735916 -0.245174E+03  0.979E-02    0.33       0.0  T
   2   -245.1736108 -0.191529E-04  0.527E-02    0.33       1.0  T
   3   -245.1735175  0.932529E-04  0.269E-02    0.34       1.0  T
   4   -245.1736219 -0.104393E-03  0.841E-03    0.34       1.0  T
   5   -245.1736260 -0.409895E-05  0.447E-03    0.34       1.9  T
   6   -245.1736274 -0.134133E-05  0.185E-03    0.34       4.7  T
   7   -245.1736278 -0.414282E-06  0.672E-04    0.34      12.9  T
   8   -245.1736278 -0.200464E-07  0.455E-04    0.34      19.0  T
     SCC iter.                  ...        0 min,  0.196 sec
     gradient                   ...        0 min,  0.061 sec
 * total energy  :  -241.5664186 Eh     change       -0.7158512E-03 Eh
   gradient norm :     0.0204241 Eh/α   predicted    -0.7018091E-03 (  -1.96%)
   displ. norm   :     0.5697544 α      lambda       -0.1024639E-02
   maximum displ.:     0.1848685 α      in ANC's #2, #20, #34, ...

........................................................................
.............................. CYCLE   20 ..............................
........................................................................
   1   -245.1776959 -0.245178E+03  0.105E-01    0.33       0.0  T
   2   -245.1777355 -0.395601E-04  0.564E-02    0.34       1.0  T
   3   -245.1776111  0.124397E-03  0.310E-02    0.34       1.0  T
   4   -245.1777477 -0.136640E-03  0.105E-02    0.34       1.0  T
   5   -245.1777591 -0.113872E-04  0.426E-03    0.34       2.0  T
   6   -245.1777598 -0.715497E-06  0.179E-03    0.34       4.8  T
   7   -245.1777602 -0.395464E-06  0.749E-04    0.34      11.5  T
   8   -245.1777602 -0.422000E-07  0.443E-04    0.34      19.5  T
     SCC iter.                  ...        0 min,  0.199 sec
     gradient                   ...        0 min,  0.062 sec
 * total energy  :  -241.5671034 Eh     change       -0.6847585E-03 Eh
   gradient norm :     0.0202217 Eh/α   predicted    -0.6786343E-03 (  -0.89%)
   displ. norm   :     0.6129082 α      lambda       -0.9784887E-03
   maximum displ.:     0.2024717 α      in ANC's #2, #20, #25, ...
 * RMSD in coord.:     0.7117677 α      energy gain  -0.1024830E+00 Eh

generating ANC from model Hessian ...
Using Lindh-Hessian (1995)
 Shifting diagonal of input Hessian by   1.001622466033699E-002
 Lowest  eigenvalues of input Hessian
    0.010000    0.010011    0.000000    0.000000    0.000000    0.000000
    0.000000    0.000000    0.010025    0.010047    0.010068    0.010093
    0.010107    0.010144    0.010178    0.010274    0.010280    0.010323
 Highest eigenvalues
    2.294631    2.303135    2.589836    2.603505    2.654393    2.664881
 

........................................................................
.............................. CYCLE   21 ..............................
........................................................................
   1   -245.1786138 -0.245179E+03  0.106E-01    0.34       0.0  T
   2   -245.1786295 -0.157535E-04  0.553E-02    0.34       1.0  T
   3   -245.1786074  0.221174E-04  0.153E-02    0.34       1.0  T
   4   -245.1786282 -0.207625E-04  0.862E-03    0.34       1.0  T
   5   -245.1786346 -0.640849E-05  0.330E-03    0.34       2.6  T
   6   -245.1786357 -0.110086E-05  0.951E-04    0.34       9.1  T
   7   -245.1786358 -0.768331E-07  0.517E-04    0.34      16.7  T
   8   -245.1786358 -0.185426E-07  0.301E-04    0.34      28.7  T
     SCC iter.                  ...        0 min,  0.201 sec
     gradient                   ...        0 min,  0.061 sec
 * total energy  :  -241.5678987 Eh     change       -0.7953498E-03 Eh
   gradient norm :     0.0136573 Eh/α   predicted     0.0000000E+00 (-100.00%)
   displ. norm   :     0.1451975 α      lambda       -0.5057418E-03
   maximum displ.:     0.0424651 α      in ANC's #22, #3, #55, ...

........................................................................
.............................. CYCLE   22 ..............................
........................................................................
   1   -245.1799881 -0.245180E+03  0.636E-02    0.33       0.0  T
   2   -245.1799941 -0.600635E-05  0.352E-02    0.34       1.0  T
   3   -245.1799630  0.311551E-04  0.142E-02    0.33       1.0  T
   4   -245.1799977 -0.347452E-04  0.332E-03    0.34       2.6  T
   5   -245.1799987 -0.101084E-05  0.156E-03    0.34       5.5  T
   6   -245.1799989 -0.142804E-06  0.692E-04    0.34      12.5  T
   7   -245.1799989 -0.462977E-07  0.265E-04    0.34      32.6  T
     SCC iter.                  ...        0 min,  0.177 sec
     gradient                   ...        0 min,  0.061 sec
 * total energy  :  -241.5682393 Eh     change       -0.3405904E-03 Eh
   gradient norm :     0.0057795 Eh/α   predicted    -0.2582149E-03 ( -24.19%)
   displ. norm   :     0.2987853 α      lambda       -0.5904577E-03
   maximum displ.:     0.1026324 α      in ANC's #22, #3, #20, ...

........................................................................
.............................. CYCLE   23 ..............................
........................................................................
   1   -245.1828022 -0.245183E+03  0.698E-02    0.33       0.0  T
   2   -245.1828126 -0.104181E-04  0.375E-02    0.33       1.0  T
   3   -245.1827930  0.196151E-04  0.136E-02    0.33       1.0  T
   4   -245.1828149 -0.218786E-04  0.524E-03    0.34       1.6  T
   5   -245.1828166 -0.172672E-05  0.269E-03    0.33       3.2  T
   6   -245.1828173 -0.661194E-06  0.105E-03    0.34       8.2  T
   7   -245.1828174 -0.126606E-06  0.425E-04    0.33      20.3  T
   8   -245.1828174 -0.781887E-08  0.275E-04    0.33      31.4  T
     SCC iter.                  ...        0 min,  0.204 sec
     gradient                   ...        0 min,  0.061 sec
 * total energy  :  -241.5686120 Eh     change       -0.3726768E-03 Eh
   gradient norm :     0.0126580 Eh/α   predicted    -0.3215890E-03 ( -13.71%)
   displ. norm   :     0.4010875 α      lambda       -0.5657492E-03
   maximum displ.:     0.1354444 α      in ANC's #22, #3, #20, ...

........................................................................
.............................. CYCLE   24 ..............................
........................................................................
   1   -245.1822423 -0.245182E+03  0.103E-01    0.33       0.0  T
   2   -245.1822576 -0.152575E-04  0.547E-02    0.33       1.0  T
   3   -245.1822309  0.266676E-04  0.155E-02    0.33       1.0  T
   4   -245.1822594 -0.284744E-04  0.717E-03    0.33       1.2  T
   5   -245.1822637 -0.425040E-05  0.288E-03    0.33       3.0  T
   6   -245.1822646 -0.911712E-06  0.887E-04    0.33       9.7  T
   7   -245.1822646 -0.656834E-07  0.454E-04    0.33      19.0  T
     SCC iter.                  ...        0 min,  0.176 sec
     gradient                   ...        0 min,  0.061 sec
 * total energy  :  -241.5689219 Eh     change       -0.3099303E-03 Eh
   gradient norm :     0.0126077 Eh/α   predicted    -0.3283810E-03 (   5.95%)
   displ. norm   :     0.5021524 α      lambda       -0.7764382E-03
   maximum displ.:     0.1905365 α      in ANC's #22, #3, #20, ...

........................................................................
.............................. CYCLE   25 ..............................
........................................................................
   1   -245.1784093 -0.245178E+03  0.122E-01    0.32       0.0  T
   2   -245.1784336 -0.242537E-04  0.641E-02    0.33       1.0  T
   3   -245.1783928  0.407590E-04  0.197E-02    0.32       1.0  T
   4   -245.1784375 -0.447092E-04  0.874E-03    0.33       1.0  T
   5   -245.1784423 -0.471624E-05  0.421E-03    0.32       2.1  T
   6   -245.1784447 -0.241738E-05  0.939E-04    0.33       9.2  T
   7   -245.1784447 -0.556695E-07  0.483E-04    0.33      17.9  T
   8   -245.1784447 -0.107657E-07  0.279E-04    0.33      30.9  T
     SCC iter.                  ...        0 min,  0.203 sec
     gradient                   ...        0 min,  0.061 sec
 * total energy  :  -241.5693778 Eh     change       -0.4558776E-03 Eh
   gradient norm :     0.0149340 Eh/α   predicted    -0.4861235E-03 (   6.63%)
   displ. norm   :     0.3939960 α      lambda       -0.6129188E-03
   maximum displ.:     0.1487678 α      in ANC's #22, #3, #20, ...

........................................................................
.............................. CYCLE   26 ..............................
........................................................................
   1   -245.1790840 -0.245179E+03  0.864E-02    0.32       0.0  T
   2   -245.1790972 -0.132319E-04  0.441E-02    0.33       1.0  T
   3   -245.1790728  0.243798E-04  0.150E-02    0.33       1.0  T
   4   -245.1790997 -0.268960E-04  0.645E-03    0.33       1.3  T
   5   -245.1791022 -0.250187E-05  0.329E-03    0.33       2.6  T
   6   -245.1791034 -0.115237E-05  0.903E-04    0.33       9.6  T
   7   -245.1791035 -0.767749E-07  0.381E-04    0.33      22.7  T
   8   -245.1791035 -0.577177E-08  0.224E-04    0.33      38.6  T
     SCC iter.                  ...        0 min,  0.221 sec
     gradient                   ...        0 min,  0.062 sec
 * total energy  :  -241.5698470 Eh     change       -0.4692079E-03 Eh
   gradient norm :     0.0099156 Eh/α   predicted    -0.3540332E-03 ( -24.55%)
   displ. norm   :     0.5339214 α      lambda       -0.7564537E-03
   maximum displ.:     0.2019483 α      in ANC's #3, #22, #2, ...

........................................................................
.............................. CYCLE   27 ..............................
........................................................................
   1   -245.1792079 -0.245179E+03  0.126E-01    0.32       0.0  T
   2   -245.1792350 -0.271296E-04  0.652E-02    0.32       1.0  T
   3   -245.1791809  0.540479E-04  0.221E-02    0.33       1.0  T
   4   -245.1792417 -0.607689E-04  0.887E-03    0.32       1.0  T
   5   -245.1792463 -0.462391E-05  0.477E-03    0.33       1.8  T
   6   -245.1792488 -0.246295E-05  0.143E-03    0.33       6.0  T
   7   -245.1792490 -0.230511E-06  0.557E-04    0.33      15.5  T
   8   -245.1792490 -0.113486E-07  0.353E-04    0.33      24.5  T
     SCC iter.                  ...        0 min,  0.201 sec
     gradient                   ...        0 min,  0.061 sec
 * total energy  :  -241.5703353 Eh     change       -0.4882831E-03 Eh
   gradient norm :     0.0131591 Eh/α   predicted    -0.4860514E-03 (  -0.46%)
   displ. norm   :     0.5674763 α      lambda       -0.8569111E-03
   maximum displ.:     0.2169793 α      in ANC's #3, #22, #2, ...

........................................................................
.............................. CYCLE   28 ..............................
........................................................................
   1   -245.1829191 -0.245183E+03  0.118E-01    0.32       0.0  T
   2   -245.1829410 -0.218344E-04  0.609E-02    0.32       1.0  T
   3   -245.1828616  0.793538E-04  0.249E-02    0.33       1.0  T
   4   -245.1829489 -0.872333E-04  0.895E-03    0.32       1.0  T
   5   -245.1829536 -0.474868E-05  0.449E-03    0.33       1.9  T
   6   -245.1829554 -0.179865E-05  0.136E-03    0.32       6.3  T
   7   -245.1829556 -0.203935E-06  0.600E-04    0.32      14.4  T
   8   -245.1829556 -0.202010E-07  0.390E-04    0.32      22.2  T
     SCC iter.                  ...        0 min,  0.201 sec
     gradient                   ...        0 min,  0.061 sec
 * total energy  :  -241.5708138 Eh     change       -0.4785118E-03 Eh
   gradient norm :     0.0155223 Eh/α   predicted    -0.5664357E-03 (  18.37%)
   displ. norm   :     0.5446205 α      lambda       -0.6667110E-03
   maximum displ.:     0.2139144 α      in ANC's #3, #22, #2, ...

........................................................................
.............................. CYCLE   29 ..............................
........................................................................
   1   -245.1772004 -0.245177E+03  0.107E-01    0.31       0.0  T
   2   -245.1772192 -0.187208E-04  0.546E-02    0.32       1.0  T
   3   -245.1772122  0.700921E-05  0.129E-02    0.32       1.0  T
   4   -245.1772218 -0.963208E-05  0.719E-03    0.32       1.2  T
   5   -245.1772244 -0.265581E-05  0.272E-03    0.32       3.2  T
   6   -245.1772253 -0.817713E-06  0.930E-04    0.32       9.3  T
   7   -245.1772253 -0.875954E-07  0.438E-04    0.32      19.7  T
     SCC iter.                  ...        0 min,  0.180 sec
     gradient                   ...        0 min,  0.061 sec
 * total energy  :  -241.5713696 Eh     change       -0.5558320E-03 Eh
   gradient norm :     0.0122633 Eh/α   predicted    -0.4322360E-03 ( -22.24%)
   displ. norm   :     0.5170297 α      lambda       -0.1082575E-02
   maximum displ.:     0.2262718 α      in ANC's #3, #2, #22, ...

........................................................................
.............................. CYCLE   30 ..............................
........................................................................
   1   -245.1859568 -0.245186E+03  0.111E-01    0.31       0.0  T
   2   -245.1859770 -0.202294E-04  0.595E-02    0.31       1.0  T
   3   -245.1859391  0.378969E-04  0.188E-02    0.32       1.0  T
   4   -245.1859820 -0.429245E-04  0.727E-03    0.31       1.2  T
   5   -245.1859844 -0.238508E-05  0.433E-03    0.32       2.0  T
   6   -245.1859867 -0.233680E-05  0.111E-03    0.32       7.8  T
   7   -245.1859868 -0.112102E-06  0.566E-04    0.32      15.3  T
   8   -245.1859869 -0.150001E-07  0.346E-04    0.32      25.0  T
     SCC iter.                  ...        0 min,  0.207 sec
     gradient                   ...        0 min,  0.061 sec
 * total energy  :  -241.5718622 Eh     change       -0.4925708E-03 Eh
   gradient norm :     0.0136843 Eh/α   predicted    -0.6859812E-03 (  39.27%)
   displ. norm   :     0.6774521 α      lambda       -0.8396882E-03
   maximum displ.:     0.2632761 α      in ANC's #3, #22, #2, ...

........................................................................
.............................. CYCLE   31 ..............................
........................................................................
   1   -245.1768443 -0.245177E+03  0.130E-01    0.31       0.0  T
   2   -245.1768732 -0.289466E-04  0.639E-02    0.31       1.0  T
   3   -245.1768612  0.120003E-04  0.158E-02    0.32       1.0  T
   4   -245.1768745 -0.132132E-04  0.927E-03    0.31       1.0  T
   5   -245.1768789 -0.444088E-05  0.453E-03    0.31       1.9  T
   6   -245.1768816 -0.266751E-05  0.134E-03    0.31       6.4  T
   7   -245.1768818 -0.211941E-06  0.557E-04    0.31      15.5  T
   8   -245.1768818 -0.203107E-07  0.326E-04    0.31      26.5  T
     SCC iter.                  ...        0 min,  0.208 sec
     gradient                   ...        0 min,  0.061 sec
 * total energy  :  -241.5724633 Eh     change       -0.6011443E-03 Eh
   gradient norm :     0.0112768 Eh/α   predicted    -0.6125306E-03 (   1.89%)
   displ. norm   :     0.6106397 α      lambda       -0.6148255E-03
   maximum displ.:     0.2593369 α      in ANC's #3, #2, #22, ...

........................................................................
.............................. CYCLE   32 ..............................
........................................................................
   1   -245.1747450 -0.245175E+03  0.109E-01    0.30       0.0  T
   2   -245.1747649 -0.198671E-04  0.545E-02    0.31       1.0  T
   3   -245.1747489  0.159803E-04  0.153E-02    0.31       1.0  T
   4   -245.1747674 -0.185350E-04  0.794E-03    0.31       1.1  T
   5   -245.1747705 -0.303871E-05  0.345E-03    0.31       2.5  T
   6   -245.1747717 -0.126921E-05  0.111E-03    0.31       7.8  T
   7   -245.1747719 -0.132831E-06  0.572E-04    0.31      15.1  T
   8   -245.1747719 -0.276528E-07  0.338E-04    0.31      25.6  T
     SCC iter.                  ...        0 min,  0.205 sec
     gradient                   ...        0 min,  0.061 sec
 * total energy  :  -241.5729551 Eh     change       -0.4917934E-03 Eh
   gradient norm :     0.0117095 Eh/α   predicted    -0.4220433E-03 ( -14.18%)
   displ. norm   :     0.5926642 α      lambda       -0.7034611E-03
   maximum displ.:     0.2716956 α      in ANC's #3, #2, #1, ...

........................................................................
.............................. CYCLE   33 ..............................
........................................................................
   1   -245.1808603 -0.245181E+03  0.973E-02    0.30       0.0  T
   2   -245.1808757 -0.153665E-04  0.499E-02    0.30       1.0  T
   3   -245.1808501  0.255501E-04  0.162E-02    0.31       1.0  T
   4   -245.1808777 -0.275340E-04  0.765E-03    0.30       1.1  T
   5   -245.1808801 -0.243247E-05  0.416E-03    0.31       2.1  T
   6   -245.1808823 -0.215869E-05  0.125E-03    0.30       6.9  T
   7   -245.1808824 -0.181222E-06  0.568E-04    0.30      15.2  T
   8   -245.1808825 -0.252327E-07  0.318E-04    0.30      27.2  T
     SCC iter.                  ...        0 min,  0.221 sec
     gradient                   ...        0 min,  0.062 sec
 * total energy  :  -241.5735279 Eh     change       -0.5727459E-03 Eh
   gradient norm :     0.0088810 Eh/α   predicted    -0.4752777E-03 ( -17.02%)
   displ. norm   :     0.7640354 α      lambda       -0.6931965E-03
   maximum displ.:     0.3483653 α      in ANC's #3, #2, #1, ...

........................................................................
.............................. CYCLE   34 ..............................
........................................................................
   1   -245.1809832 -0.245181E+03  0.130E-01    0.29       0.0  T
   2   -245.1810105 -0.273379E-04  0.661E-02    0.30       1.0  T
   3   -245.1809813  0.291785E-04  0.187E-02    0.30       1.0  T
   4   -245.1810126 -0.312460E-04  0.974E-03    0.30       1.0  T
   5   -245.1810179 -0.527476E-05  0.463E-03    0.30       1.9  T
   6   -245.1810204 -0.252335E-05  0.153E-03    0.30       5.6  T
   7   -245.1810207 -0.306515E-06  0.660E-04    0.30      13.1  T
   8   -245.1810207 -0.413489E-07  0.332E-04    0.30      26.0  T
     SCC iter.                  ...        0 min,  0.196 sec
     gradient                   ...        0 min,  0.061 sec
 * total energy  :  -241.5741389 Eh     change       -0.6109933E-03 Eh
   gradient norm :     0.0064995 Eh/α   predicted    -0.5489276E-03 ( -10.16%)
   displ. norm   :     0.7418907 α      lambda       -0.7178217E-03
   maximum displ.:     0.3503298 α      in ANC's #3, #2, #1, ...

........................................................................
.............................. CYCLE   35 ..............................
........................................................................
   1   -245.1892816 -0.245189E+03  0.116E-01    0.29       0.0  T
   2   -245.1893043 -0.227393E-04  0.599E-02    0.29       1.0  T
   3   -245.1892818  0.225259E-04  0.167E-02    0.29       1.0  T
   4   -245.1893049 -0.231064E-04  0.900E-03    0.29       1.0  T
   5   -245.1893101 -0.522927E-05  0.408E-03    0.29       2.1  T
   6   -245.1893118 -0.168945E-05  0.168E-03    0.29       5.1  T
   7   -245.1893122 -0.378287E-06  0.683E-04    0.29      12.7  T
   8   -245.1893122 -0.339451E-07  0.418E-04    0.29      20.7  T
     SCC iter.                  ...        0 min,  0.192 sec
     gradient                   ...        0 min,  0.061 sec
 * total energy  :  -241.5746924 Eh     change       -0.5535392E-03 Eh
   gradient norm :     0.0073946 Eh/α   predicted    -0.5564628E-03 (   0.53%)
   displ. norm   :     0.8387558 α      lambda       -0.7200436E-03
   maximum displ.:     0.3863105 α      in ANC's #3, #2, #1, ...

........................................................................
.............................. CYCLE   36 ..............................
........................................................................
   1   -245.1822575 -0.245182E+03  0.140E-01    0.28       0.0  T
   2   -245.1822893 -0.318035E-04  0.707E-02    0.28       1.0  T
   3   -245.1822645  0.247776E-04  0.191E-02    0.29       1.0  T
   4   -245.1822917 -0.272170E-04  0.103E-02    0.28       1.0  T
   5   -245.1822973 -0.556389E-05  0.454E-03    0.29       1.9  T
   6   -245.1822995 -0.227299E-05  0.173E-03    0.28       5.0  T
   7   -245.1823000 -0.421698E-06  0.723E-04    0.29      11.9  T
   8   -245.1823000 -0.491971E-07  0.370E-04    0.28      23.3  T
     SCC iter.                  ...        0 min,  0.194 sec
     gradient                   ...        0 min,  0.061 sec
 * total energy  :  -241.5753014 Eh     change       -0.6089994E-03 Eh
   gradient norm :     0.0087889 Eh/α   predicted    -0.6133018E-03 (   0.71%)
   displ. norm   :     0.7852184 α      lambda       -0.6340812E-03
   maximum displ.:     0.3697642 α      in ANC's #3, #2, #1, ...

........................................................................
.............................. CYCLE   37 ..............................
........................................................................
   1   -245.1791895 -0.245179E+03  0.121E-01    0.27       0.0  T
   2   -245.1792125 -0.230498E-04  0.611E-02    0.28       1.0  T
   3   -245.1791944  0.181614E-04  0.164E-02    0.28       1.0  T
   4   -245.1792140 -0.196103E-04  0.894E-03    0.28       1.0  T
   5   -245.1792185 -0.446393E-05  0.375E-03    0.28       2.3  T
   6   -245.1792199 -0.144391E-05  0.150E-03    0.28       5.8  T
   7   -245.1792202 -0.324880E-06  0.625E-04    0.28      13.8  T
   8   -245.1792203 -0.383482E-07  0.321E-04    0.28      26.9  T
     SCC iter.                  ...        0 min,  0.196 sec
     gradient                   ...        0 min,  0.061 sec
 * total energy  :  -241.5758790 Eh     change       -0.5776233E-03 Eh
   gradient norm :     0.0095921 Eh/α   predicted    -0.5125204E-03 ( -11.27%)
   displ. norm   :     0.7361580 α      lambda       -0.8441844E-03
   maximum displ.:     0.3567668 α      in ANC's #2, #3, #8, ...

........................................................................
.............................. CYCLE   38 ..............................
........................................................................
   1   -245.1897324 -0.245190E+03  0.999E-02    0.27       0.0  T
   2   -245.1897480 -0.155583E-04  0.521E-02    0.27       1.0  T
   3   -245.1897199  0.280523E-04  0.167E-02    0.27       1.0  T
   4   -245.1897496 -0.296858E-04  0.783E-03    0.27       1.1  T
   5   -245.1897527 -0.305606E-05  0.419E-03    0.27       2.1  T
   6   -245.1897548 -0.208650E-05  0.142E-03    0.27       6.1  T
   7   -245.1897550 -0.261276E-06  0.587E-04    0.27      14.7  T
   8   -245.1897550 -0.240045E-07  0.361E-04    0.27      23.9  T
     SCC iter.                  ...        0 min,  0.197 sec
     gradient                   ...        0 min,  0.061 sec
 * total energy  :  -241.5765284 Eh     change       -0.6493232E-03 Eh
   gradient norm :     0.0107029 Eh/α   predicted    -0.6508370E-03 (   0.23%)
   displ. norm   :     0.7807751 α      lambda       -0.9534865E-03
   maximum displ.:     0.3579376 α      in ANC's #2, #3, #8, ...

........................................................................
.............................. CYCLE   39 ..............................
........................................................................
   1   -245.1845117 -0.245185E+03  0.118E-01    0.26       0.0  T
   2   -245.1845371 -0.254628E-04  0.595E-02    0.27       1.0  T
   3   -245.1845203  0.168323E-04  0.171E-02    0.27       1.0  T
   4   -245.1845383 -0.179814E-04  0.914E-03    0.26       1.0  T
   5   -245.1845414 -0.314761E-05  0.503E-03    0.27       1.7  T
   6   -245.1845446 -0.314962E-05  0.185E-03    0.27       4.7  T
   7   -245.1845451 -0.504829E-06  0.606E-04    0.27      14.2  T
   8   -245.1845451 -0.175310E-07  0.410E-04    0.27      21.1  T
     SCC iter.                  ...        0 min,  0.218 sec
     gradient                   ...        0 min,  0.062 sec
 * total energy  :  -241.5769987 Eh     change       -0.4703036E-03 Eh
   gradient norm :     0.0168284 Eh/α   predicted    -0.7673724E-03 (  63.17%)
   displ. norm   :     0.5911992 α      lambda       -0.9953437E-03
   maximum displ.:     0.2898119 α      in ANC's #2, #3, #8, ...

........................................................................
.............................. CYCLE   40 ..............................
........................................................................
   1   -245.1876585 -0.245188E+03  0.830E-02    0.26       0.0  T
   2   -245.1876709 -0.124568E-04  0.431E-02    0.26       1.0  T
   3   -245.1876538  0.171076E-04  0.145E-02    0.26       1.0  T
   4   -245.1876727 -0.188756E-04  0.672E-03    0.26       1.3  T
   5   -245.1876747 -0.197317E-05  0.325E-03    0.26       2.7  T
   6   -245.1876758 -0.111258E-05  0.123E-03    0.26       7.1  T
   7   -245.1876760 -0.189342E-06  0.416E-04    0.26      20.8  T
   8   -245.1876760 -0.610490E-08  0.269E-04    0.26      32.1  T
     SCC iter.                  ...        0 min,  0.199 sec
     gradient                   ...        0 min,  0.061 sec
 * total energy  :  -241.5776813 Eh     change       -0.6826595E-03 Eh
   gradient norm :     0.0129005 Eh/α   predicted    -0.6716226E-03 (  -1.62%)
   displ. norm   :     0.7023421 α      lambda       -0.1005337E-02
   maximum displ.:     0.3360367 α      in ANC's #2, #3, #6, ...

........................................................................
.............................. CYCLE   41 ..............................
........................................................................
   1   -245.1796477 -0.245180E+03  0.113E-01    0.26       0.0  T
   2   -245.1796694 -0.216802E-04  0.590E-02    0.26       1.0  T
   3   -245.1796241  0.452861E-04  0.213E-02    0.26       1.0  T
   4   -245.1796743 -0.502256E-04  0.882E-03    0.26       1.0  T
   5   -245.1796783 -0.404791E-05  0.401E-03    0.26       2.2  T
   6   -245.1796797 -0.139487E-05  0.160E-03    0.26       5.4  T
   7   -245.1796801 -0.321821E-06  0.604E-04    0.26      14.3  T
   8   -245.1796801 -0.212129E-07  0.359E-04    0.26      24.1  T
     SCC iter.                  ...        0 min,  0.199 sec
     gradient                   ...        0 min,  0.061 sec
 * total energy  :  -241.5780598 Eh     change       -0.3784546E-03 Eh
   gradient norm :     0.0201125 Eh/α   predicted    -0.7506315E-03 (  98.34%)
   displ. norm   :     0.4910442 α      lambda       -0.1105503E-02
   maximum displ.:     0.2400075 α      in ANC's #2, #3, #8, ...

........................................................................
.............................. CYCLE   42 ..............................
........................................................................
   1   -245.1880082 -0.245188E+03  0.652E-02    0.26       0.0  T
   2   -245.1880151 -0.690933E-05  0.344E-02    0.26       1.0  T
   3   -245.1879805  0.345948E-04  0.173E-02    0.26       1.0  T
   4   -245.1880186 -0.380557E-04  0.558E-03    0.26       1.5  T
   5   -245.1880195 -0.948794E-06  0.322E-03    0.26       2.7  T
   6   -245.1880206 -0.105018E-05  0.128E-03    0.26       6.8  T
   7   -245.1880208 -0.237727E-06  0.542E-04    0.26      15.9  T
   8   -245.1880208 -0.262545E-07  0.310E-04    0.26      27.9  T
     SCC iter.                  ...        0 min,  0.196 sec
     gradient                   ...        0 min,  0.061 sec
 * total energy  :  -241.5788066 Eh     change       -0.7468209E-03 Eh
   gradient norm :     0.0167963 Eh/α   predicted    -0.6860359E-03 (  -8.14%)
   displ. norm   :     0.7202216 α      lambda       -0.1157759E-02
   maximum displ.:     0.3509305 α      in ANC's #2, #3, #8, ...
 * RMSD in coord.:     1.0398240 α      energy gain  -0.1170323E-01 Eh

generating ANC from model Hessian ...
Using Lindh-Hessian (1995)
 Shifting diagonal of input Hessian by   1.001544740152516E-002
 Lowest  eigenvalues of input Hessian
    0.010000    0.000000    0.000000    0.000000    0.000000    0.000000
    0.000000    0.010020    0.010036    0.010058    0.010080    0.010095
    0.010107    0.010138    0.010169    0.010240    0.010284    0.010316
 Highest eigenvalues
    2.284503    2.299706    2.604292    2.614705    2.670508    2.674935
 

........................................................................
.............................. CYCLE   43 ..............................
........................................................................
   1   -245.1932048 -0.245193E+03  0.119E-01    0.25       0.0  T
   2   -245.1932315 -0.266616E-04  0.631E-02    0.25       1.0  T
   3   -245.1931676  0.638652E-04  0.245E-02    0.26       1.0  T
   4   -245.1932364 -0.687859E-04  0.937E-03    0.25       1.0  T
   5   -245.1932404 -0.404569E-05  0.575E-03    0.26       1.5  T
   6   -245.1932447 -0.429295E-05  0.201E-03    0.25       4.3  T
   7   -245.1932452 -0.507358E-06  0.819E-04    0.25      10.5  T
   8   -245.1932453 -0.478904E-07  0.510E-04    0.25      16.9  T
     SCC iter.                  ...        0 min,  0.196 sec
     gradient                   ...        0 min,  0.061 sec
 * total energy  :  -241.5792629 Eh     change       -0.4562745E-03 Eh
   gradient norm :     0.0255818 Eh/α   predicted     0.0000000E+00 (-100.00%)
   displ. norm   :     0.1309871 α      lambda       -0.8213473E-03
   maximum displ.:     0.0436235 α      in ANC's #2, #36, #38, ...

........................................................................
.............................. CYCLE   44 ..............................
........................................................................
   1   -245.1897829 -0.245190E+03  0.666E-02    0.25       0.0  T
   2   -245.1897912 -0.831514E-05  0.368E-02    0.25       1.0  T
   3   -245.1897490  0.421960E-04  0.187E-02    0.25       1.0  T
   4   -245.1897974 -0.483197E-04  0.339E-03    0.25       2.5  T
   5   -245.1897977 -0.302277E-06  0.220E-03    0.25       3.9  T
   6   -245.1897982 -0.542128E-06  0.100E-03    0.25       8.6  T
   7   -245.1897983 -0.123126E-06  0.447E-04    0.25      19.3  T
   8   -245.1897983 -0.205306E-07  0.223E-04    0.25      38.7  T
     SCC iter.                  ...        0 min,  0.195 sec
     gradient                   ...        0 min,  0.061 sec
 * total energy  :  -241.5797206 Eh     change       -0.4577014E-03 Eh
   gradient norm :     0.0079202 Eh/α   predicted    -0.4177796E-03 (  -8.72%)
   displ. norm   :     0.1783910 α      lambda       -0.3711218E-03
   maximum displ.:     0.0668785 α      in ANC's #2, #38, #44, ...

........................................................................
.............................. CYCLE   45 ..............................
........................................................................
   1   -245.1915658 -0.245192E+03  0.686E-02    0.25       0.0  T
   2   -245.1915721 -0.633962E-05  0.372E-02    0.25       1.0  T
   3   -245.1915507  0.213949E-04  0.123E-02    0.26       1.0  T
   4   -245.1915752 -0.244727E-04  0.361E-03    0.25       2.4  T
   5   -245.1915757 -0.493830E-06  0.217E-03    0.25       4.0  T
   6   -245.1915762 -0.525243E-06  0.665E-04    0.25      13.0  T
   7   -245.1915762 -0.456069E-07  0.381E-04    0.25      22.7  T
     SCC iter.                  ...        0 min,  0.172 sec
     gradient                   ...        0 min,  0.061 sec
 * total energy  :  -241.5798763 Eh     change       -0.1557191E-03 Eh
   gradient norm :     0.0108591 Eh/α   predicted    -0.1917235E-03 (  23.12%)
   displ. norm   :     0.2571193 α      lambda       -0.4325642E-03
   maximum displ.:     0.0985582 α      in ANC's #2, #36, #38, ...

........................................................................
.............................. CYCLE   46 ..............................
........................................................................
   1   -245.1943597 -0.245194E+03  0.668E-02    0.25       0.0  T
   2   -245.1943663 -0.660491E-05  0.345E-02    0.25       1.0  T
   3   -245.1943563  0.998012E-05  0.970E-03    0.26       1.0  T
   4   -245.1943668 -0.105268E-04  0.474E-03    0.25       1.8  T
   5   -245.1943681 -0.128351E-05  0.273E-03    0.26       3.2  T
   6   -245.1943691 -0.103768E-05  0.712E-04    0.25      12.1  T
   7   -245.1943692 -0.534303E-07  0.356E-04    0.25      24.3  T
   8   -245.1943692 -0.760346E-08  0.223E-04    0.25      38.7  T
     SCC iter.                  ...        0 min,  0.197 sec
     gradient                   ...        0 min,  0.061 sec
 * total energy  :  -241.5802245 Eh     change       -0.3481987E-03 Eh
   gradient norm :     0.0076841 Eh/α   predicted    -0.2305808E-03 ( -33.78%)
   displ. norm   :     0.5691089 α      lambda       -0.7454130E-03
   maximum displ.:     0.2177068 α      in ANC's #2, #44, #36, ...

........................................................................
.............................. CYCLE   47 ..............................
........................................................................
   1   -245.1914957 -0.245191E+03  0.122E-01    0.25       0.0  T
   2   -245.1915187 -0.230220E-04  0.611E-02    0.25       1.0  T
   3   -245.1915065  0.122049E-04  0.152E-02    0.25       1.0  T
   4   -245.1915217 -0.151374E-04  0.833E-03    0.25       1.0  T
   5   -245.1915246 -0.294238E-05  0.351E-03    0.25       2.5  T
   6   -245.1915258 -0.124194E-05  0.138E-03    0.25       6.2  T
   7   -245.1915261 -0.265257E-06  0.575E-04    0.25      15.0  T
   8   -245.1915261 -0.276425E-07  0.347E-04    0.25      24.9  T
     SCC iter.                  ...        0 min,  0.193 sec
     gradient                   ...        0 min,  0.061 sec
 * total energy  :  -241.5807769 Eh     change       -0.5523725E-03 Eh
   gradient norm :     0.0104943 Eh/α   predicted    -0.4934292E-03 ( -10.67%)
   displ. norm   :     0.5281644 α      lambda       -0.5778550E-03
   maximum displ.:     0.2187228 α      in ANC's #2, #44, #6, ...

........................................................................
.............................. CYCLE   48 ..............................
........................................................................
   1   -245.1869926 -0.245187E+03  0.111E-01    0.25       0.0  T
   2   -245.1870114 -0.188281E-04  0.560E-02    0.25       1.0  T
   3   -245.1869999  0.115451E-04  0.138E-02    0.25       1.0  T
   4   -245.1870115 -0.116595E-04  0.801E-03    0.25       1.1  T
   5   -245.1870146 -0.309028E-05  0.441E-03    0.25       2.0  T
   6   -245.1870175 -0.286122E-05  0.124E-03    0.25       7.0  T
   7   -245.1870177 -0.199466E-06  0.540E-04    0.25      16.0  T
   8   -245.1870177 -0.228007E-07  0.298E-04    0.25      29.0  T
     SCC iter.                  ...        0 min,  0.192 sec
     gradient                   ...        0 min,  0.061 sec
 * total energy  :  -241.5811473 Eh     change       -0.3704328E-03 Eh
   gradient norm :     0.0146357 Eh/α   predicted    -0.3695270E-03 (  -0.24%)
   displ. norm   :     0.4539544 α      lambda       -0.7555443E-03
   maximum displ.:     0.2083490 α      in ANC's #2, #6, #1, ...

........................................................................
.............................. CYCLE   49 ..............................
........................................................................
   1   -245.1886044 -0.245189E+03  0.946E-02    0.24       0.0  T
   2   -245.1886192 -0.148428E-04  0.489E-02    0.25       1.0  T
   3   -245.1886107  0.856925E-05  0.126E-02    0.25       1.0  T
   4   -245.1886222 -0.115164E-04  0.603E-03    0.25       1.4  T
   5   -245.1886234 -0.122219E-05  0.297E-03    0.25       2.9  T
   6   -245.1886244 -0.103700E-05  0.792E-04    0.25      10.9  T
   7   -245.1886245 -0.606195E-07  0.338E-04    0.25      25.5  T
   8   -245.1886245 -0.382701E-08  0.217E-04    0.25      39.8  T
     SCC iter.                  ...        0 min,  0.195 sec
     gradient                   ...        0 min,  0.061 sec
 * total energy  :  -241.5816603 Eh     change       -0.5129776E-03 Eh
   gradient norm :     0.0125010 Eh/α   predicted    -0.4556221E-03 ( -11.18%)
   displ. norm   :     0.4771671 α      lambda       -0.8082046E-03
   maximum displ.:     0.2292683 α      in ANC's #2, #6, #1, ...

........................................................................
.............................. CYCLE   50 ..............................
........................................................................
   1   -245.1927956 -0.245193E+03  0.987E-02    0.24       0.0  T
   2   -245.1928117 -0.160451E-04  0.513E-02    0.25       1.0  T
   3   -245.1927868  0.248300E-04  0.155E-02    0.24       1.0  T
   4   -245.1928117 -0.248614E-04  0.762E-03    0.25       1.1  T
   5   -245.1928157 -0.399113E-05  0.436E-03    0.24       2.0  T
   6   -245.1928184 -0.270555E-05  0.129E-03    0.25       6.7  T
   7   -245.1928186 -0.201677E-06  0.633E-04    0.25      13.6  T
   8   -245.1928186 -0.452799E-07  0.293E-04    0.25      29.5  T
     SCC iter.                  ...        0 min,  0.212 sec
     gradient                   ...        0 min,  0.061 sec
 * total energy  :  -241.5822262 Eh     change       -0.5659513E-03 Eh
   gradient norm :     0.0083990 Eh/α   predicted    -0.4961160E-03 ( -12.34%)
   displ. norm   :     0.7278172 α      lambda       -0.8426866E-03
   maximum displ.:     0.3321687 α      in ANC's #2, #6, #1, ...

........................................................................
.............................. CYCLE   51 ..............................
........................................................................
   1   -245.1869431 -0.245187E+03  0.140E-01    0.24       0.0  T
   2   -245.1869729 -0.297953E-04  0.707E-02    0.25       1.0  T
   3   -245.1869520  0.208517E-04  0.176E-02    0.25       1.0  T
   4   -245.1869702 -0.181540E-04  0.109E-02    0.24       1.0  T
   5   -245.1869789 -0.875648E-05  0.496E-03    0.25       1.7  T
   6   -245.1869819 -0.291322E-05  0.180E-03    0.24       4.8  T
   7   -245.1869824 -0.499663E-06  0.751E-04    0.25      11.5  T
   8   -245.1869824 -0.722902E-07  0.346E-04    0.25      25.0  T
     SCC iter.                  ...        0 min,  0.214 sec
     gradient                   ...        0 min,  0.061 sec
 * total energy  :  -241.5827621 Eh     change       -0.5358893E-03 Eh
   gradient norm :     0.0141016 Eh/α   predicted    -0.6445367E-03 (  20.27%)
   displ. norm   :     0.5048715 α      lambda       -0.7241420E-03
   maximum displ.:     0.2522039 α      in ANC's #2, #1, #6, ...

........................................................................
.............................. CYCLE   52 ..............................
........................................................................
   1   -245.1924356 -0.245192E+03  0.888E-02    0.24       0.0  T
   2   -245.1924475 -0.118753E-04  0.456E-02    0.24       1.0  T
   3   -245.1924426  0.491856E-05  0.110E-02    0.25       1.0  T
   4   -245.1924472 -0.463213E-05  0.648E-03    0.24       1.3  T
   5   -245.1924486 -0.140669E-05  0.357E-03    0.25       2.4  T
   6   -245.1924506 -0.201171E-05  0.119E-03    0.24       7.2  T
   7   -245.1924509 -0.230487E-06  0.419E-04    0.24      20.6  T
   8   -245.1924509 -0.130982E-07  0.256E-04    0.24      33.7  T
     SCC iter.                  ...        0 min,  0.229 sec
     gradient                   ...        0 min,  0.062 sec
 * total energy  :  -241.5832915 Eh     change       -0.5294247E-03 Eh
   gradient norm :     0.0118430 Eh/α   predicted    -0.4543653E-03 ( -14.18%)
   displ. norm   :     0.6522106 α      lambda       -0.8796823E-03
   maximum displ.:     0.3222162 α      in ANC's #2, #1, #6, ...

........................................................................
.............................. CYCLE   53 ..............................
........................................................................
   1   -245.1951966 -0.245195E+03  0.116E-01    0.24       0.0  T
   2   -245.1952165 -0.198869E-04  0.596E-02    0.25       1.0  T
   3   -245.1951954  0.211268E-04  0.158E-02    0.23       1.0  T
   4   -245.1952109 -0.155497E-04  0.991E-03    0.25       1.0  T
   5   -245.1952197 -0.876791E-05  0.472E-03    0.24       1.8  T
   6   -245.1952229 -0.317945E-05  0.150E-03    0.24       5.8  T
   7   -245.1952232 -0.316264E-06  0.617E-04    0.24      14.0  T
   8   -245.1952232 -0.402150E-07  0.319E-04    0.24      27.1  T
     SCC iter.                  ...        0 min,  0.219 sec
     gradient                   ...        0 min,  0.061 sec
 * total energy  :  -241.5839175 Eh     change       -0.6259545E-03 Eh
   gradient norm :     0.0084305 Eh/α   predicted    -0.6269420E-03 (   0.16%)
   displ. norm   :     0.6914980 α      lambda       -0.7587345E-03
   maximum displ.:     0.3522747 α      in ANC's #2, #1, #6, ...

........................................................................
.............................. CYCLE   54 ..............................
........................................................................
   1   -245.1978829 -0.245198E+03  0.120E-01    0.24       0.0  T
   2   -245.1979028 -0.199692E-04  0.607E-02    0.24       1.0  T
   3   -245.1978688  0.340087E-04  0.178E-02    0.23       1.0  T
   4   -245.1978953 -0.264284E-04  0.107E-02    0.25       1.0  T
   5   -245.1979070 -0.117435E-04  0.472E-03    0.24       1.8  T
   6   -245.1979100 -0.300780E-05  0.164E-03    0.24       5.3  T
   7   -245.1979104 -0.392392E-06  0.660E-04    0.24      13.1  T
   8   -245.1979105 -0.507816E-07  0.311E-04    0.24      27.8  T
     SCC iter.                  ...        0 min,  0.209 sec
     gradient                   ...        0 min,  0.061 sec
 * total energy  :  -241.5845393 Eh     change       -0.6218134E-03 Eh
   gradient norm :     0.0087777 Eh/α   predicted    -0.5607760E-03 (  -9.82%)
   displ. norm   :     0.7877954 α      lambda       -0.7255853E-03
   maximum displ.:     0.4010225 α      in ANC's #2, #1, #6, ...

........................................................................
.............................. CYCLE   55 ..............................
........................................................................
   1   -245.1929886 -0.245193E+03  0.130E-01    0.24       0.0  T
   2   -245.1930122 -0.236392E-04  0.658E-02    0.24       1.0  T
   3   -245.1929940  0.182704E-04  0.164E-02    0.23       1.0  T
   4   -245.1930049 -0.109196E-04  0.110E-02    0.25       1.0  T
   5   -245.1930145 -0.956170E-05  0.534E-03    0.24       1.6  T
   6   -245.1930191 -0.464923E-05  0.145E-03    0.24       6.0  T
   7   -245.1930194 -0.306608E-06  0.662E-04    0.24      13.0  T
   8   -245.1930195 -0.530645E-07  0.320E-04    0.24      27.0  T
     SCC iter.                  ...        0 min,  0.210 sec
     gradient                   ...        0 min,  0.061 sec
 * total energy  :  -241.5851565 Eh     change       -0.6172299E-03 Eh
   gradient norm :     0.0087609 Eh/α   predicted    -0.5879511E-03 (  -4.74%)
   displ. norm   :     0.7076380 α      lambda       -0.1000357E-02
   maximum displ.:     0.3611666 α      in ANC's #2, #1, #6, ...

........................................................................
.............................. CYCLE   56 ..............................
........................................................................
   1   -245.2049526 -0.245205E+03  0.122E-01    0.24       0.0  T
   2   -245.2049762 -0.236209E-04  0.642E-02    0.24       1.0  T
   3   -245.2049478  0.283804E-04  0.188E-02    0.24       1.0  T
   4   -245.2049795 -0.316944E-04  0.907E-03    0.24       1.0  T
   5   -245.2049827 -0.314961E-05  0.457E-03    0.24       1.9  T
   6   -245.2049852 -0.257038E-05  0.133E-03    0.24       6.5  T
   7   -245.2049854 -0.171181E-06  0.622E-04    0.24      13.9  T
   8   -245.2049854 -0.167951E-07  0.421E-04    0.24      20.5  T
     SCC iter.                  ...        0 min,  0.208 sec
[...]
    12   6 C    3.966 --    11 C    1.470    15 C    1.105    13 C    1.098
    13   6 C    3.947 --    14 N    2.772    12 C    1.098
    14   7 N    2.969 --    13 C    2.772
    15   6 C    3.946 --    16 N    2.760    12 C    1.105
    16   7 N    2.967 --    15 C    2.760
    17   6 C    3.936 --    18 C    1.402     1 C    1.263    24 S    1.094
    18   6 C    3.978 --    17 C    1.402    19 C    1.365    93 H    0.958
    19   6 C    3.949 --    23 C    1.380    18 C    1.365    20 S    1.017
    20  16 S    2.174 --    19 C    1.017    21 C    0.964
    21   6 C    3.969 --    22 C    1.028    94 H    0.974    95 H    0.970
                            20 S    0.964
    22   6 C    3.993 --    21 C    1.028    98 H    0.985    96 H    0.983
                            97 H    0.977
    23   6 C    3.924 --    19 C    1.380    25 C    1.183    24 S    1.152
    24  16 S    2.605 --    23 C    1.152    17 C    1.094
    25   6 C    3.911 --    26 C    1.381    23 C    1.183    66 S    1.082
    26   6 C    3.943 --    25 C    1.381    44 C    1.216    27 N    1.116
    27   7 N    3.509 --    26 C    1.116    36 C    1.051    28 C    1.042
    28   6 C    3.960 --    29 C    1.370    35 C    1.350    27 N    1.042
    29   6 C    3.983 --    30 C    1.448    28 C    1.370    99 H    0.967
                            34 C    0.100
    30   6 C    3.988 --    29 C    1.448    31 C    1.388   100 H    0.965
    31   6 C    3.952 --    30 C    1.388    34 C    1.360    32 S    1.059
    32  16 S    2.264 --    31 C    1.059    33 C    1.010
    33   6 C    3.978 --    32 S    1.010   102 H    0.982   103 H    0.982
                           101 H    0.978
    34   6 C    3.989 --    35 C    1.483    31 C    1.360   104 H    0.967
                            29 C    0.100
    35   6 C    3.980 --    34 C    1.483    28 C    1.350   105 H    0.966
    36   6 C    3.961 --    43 C    1.364    37 C    1.348    27 N    1.051
    37   6 C    3.985 --    38 C    1.484    36 C    1.348   106 H    0.967
    38   6 C    3.987 --    37 C    1.484    39 C    1.358   107 H    0.967
    39   6 C    3.958 --    42 C    1.387    38 C    1.358    40 S    1.056
    40  16 S    2.274 --    39 C    1.056    41 C    1.009
    41   6 C    3.969 --    40 S    1.009   109 H    0.981   108 H    0.978
                           110 H    0.968
    42   6 C    3.989 --    43 C    1.450    39 C    1.387   111 H    0.964
    43   6 C    3.982 --    42 C    1.450    36 C    1.364   112 H    0.966
    44   6 C    3.934 --    65 C    1.377    26 C    1.216    45 S    1.114
    45  16 S    2.547 --    44 C    1.114    46 C    1.097
    46   6 C    3.906 --    47 C    1.411    67 C    1.134    45 S    1.097
    47   6 C    3.948 --    46 C    1.411    65 C    1.213    48 N    1.097
    48   7 N    3.489 --    47 C    1.097    49 C    1.052    57 C    1.040
    49   6 C    3.961 --    50 C    1.364    56 C    1.349    48 N    1.052
    50   6 C    3.984 --    51 C    1.446    49 C    1.364   113 H    0.967
    51   6 C    3.989 --    50 C    1.446    52 C    1.389   114 H    0.965
    52   6 C    3.953 --    51 C    1.389    55 C    1.361    53 S    1.054
    53  16 S    2.257 --    52 C    1.054    54 C    1.010
    54   6 C    3.977 --    53 S    1.010   117 H    0.982   116 H    0.981
                           115 H    0.978
    55   6 C    3.989 --    56 C    1.482    52 C    1.361   118 H    0.967
    56   6 C    3.983 --    55 C    1.482    49 C    1.349   119 H    0.966
    57   6 C    3.963 --    64 C    1.372    58 C    1.356    48 N    1.040
    58   6 C    3.986 --    59 C    1.474    57 C    1.356   120 H    0.966
    59   6 C    3.989 --    58 C    1.474    60 C    1.366   121 H    0.967
                            64 C    0.101
    60   6 C    3.959 --    63 C    1.386    59 C    1.366    61 S    1.051
    61  16 S    2.260 --    60 C    1.051    62 C    1.011
    62   6 C    3.979 --    61 S    1.011   123 H    0.982   124 H    0.979
                           122 H    0.979
    63   6 C    3.989 --    64 C    1.451    60 C    1.386   125 H    0.964
    64   6 C    3.987 --    63 C    1.451    57 C    1.372   126 H    0.967
                            59 C    0.101
    65   6 C    3.933 --    44 C    1.377    47 C    1.213    66 S    1.118
    66  16 S    2.581 --    65 C    1.118    25 C    1.082
    67   6 C    3.942 --    68 C    1.439    74 S    1.178    46 C    1.134
    68   6 C    3.968 --    67 C    1.439    69 C    1.345   127 H    0.959
    69   6 C    3.945 --    68 C    1.345    73 C    1.295    70 S    1.108
    70  16 S    2.382 --    69 C    1.108    71 C    0.978
    71   6 C    3.971 --    72 C    1.025    70 S    0.978   129 H    0.969
                           128 H    0.968
    72   6 C    3.990 --    71 C    1.025   132 H    0.986   130 H    0.983
                           131 H    0.978
    73   6 C    3.939 --    75 C    1.329    69 C    1.295    74 S    1.100
    74  16 S    2.754 --    67 C    1.178    73 C    1.100    78 O    0.124
    75   6 C    3.957 --    76 C    1.478    73 C    1.329   133 H    0.928
    76   6 C    3.960 --    75 C    1.478    85 C    1.139    77 C    1.053
    77   6 C    3.924 --    78 O    1.689    79 C    1.063    76 C    1.053
    78   8 O    2.108 --    77 C    1.689    74 S    0.124
    79   6 C    3.919 --    84 C    1.399    80 S    1.179    77 C    1.063
    80  16 S    2.669 --    79 C    1.179    81 C    1.169
    81   6 C    3.875 --    83 C    1.537    80 S    1.169    82 Cl   1.026
    82  17 Cl   1.181 --    81 C    1.026
    83   6 C    3.974 --    81 C    1.537    84 C    1.276   134 H    0.954
    84   6 C    3.972 --    79 C    1.399    83 C    1.276    85 C    1.086
    85   6 C    3.976 --    86 C    1.480    76 C    1.139    84 C    1.086
    86   6 C    3.962 --    85 C    1.480    87 C    1.099    89 C    1.096
    87   6 C    3.947 --    88 N    2.761    86 C    1.099
    88   7 N    2.968 --    87 C    2.761
    89   6 C    3.945 --    90 N    2.770    86 C    1.096
    90   7 N    2.967 --    89 C    2.770
    91   1 H    0.991 --     1 C    0.950
    92   1 H    0.993 --     9 C    0.954
    93   1 H    0.997 --    18 C    0.958
    94   1 H    0.998 --    21 C    0.974
    95   1 H    0.996 --    21 C    0.970
    96   1 H    0.998 --    22 C    0.983
    97   1 H    0.997 --    22 C    0.977
    98   1 H    0.998 --    22 C    0.985
    99   1 H    0.999 --    29 C    0.967
   100   1 H    0.998 --    30 C    0.965
   101   1 H    0.995 --    33 C    0.978
   102   1 H    0.996 --    33 C    0.982
   103   1 H    0.996 --    33 C    0.982
   104   1 H    0.997 --    34 C    0.967
   105   1 H    0.998 --    35 C    0.966
   106   1 H    0.998 --    37 C    0.967
   107   1 H    0.997 --    38 C    0.967
   108   1 H    0.996 --    41 C    0.978
   109   1 H    0.996 --    41 C    0.981
   110   1 H    0.993 --    41 C    0.968
   111   1 H    0.997 --    42 C    0.964
   112   1 H    0.998 --    43 C    0.966
   113   1 H    0.999 --    50 C    0.967
   114   1 H    0.998 --    51 C    0.965
   115   1 H    0.995 --    54 C    0.978
   116   1 H    0.996 --    54 C    0.981
   117   1 H    0.996 --    54 C    0.982
   118   1 H    0.997 --    55 C    0.967
   119   1 H    0.998 --    56 C    0.966
   120   1 H    0.998 --    58 C    0.966
   121   1 H    0.997 --    59 C    0.967
   122   1 H    0.998 --    62 C    0.979
   123   1 H    0.996 --    62 C    0.982
   124   1 H    0.996 --    62 C    0.979
   125   1 H    0.998 --    63 C    0.964
   126   1 H    0.998 --    64 C    0.967
   127   1 H    0.997 --    68 C    0.959
   128   1 H    0.997 --    71 C    0.968
   129   1 H    0.995 --    71 C    0.969
   130   1 H    0.998 --    72 C    0.983
   131   1 H    0.997 --    72 C    0.978
   132   1 H    0.997 --    72 C    0.986
   133   1 H    0.992 --    75 C    0.928
   134   1 H    0.993 --    83 C    0.954
 ---------------------------------------------------------------------------

Topologies differ in bond orders
Writing corrected topology to xtbtopo.mol

molecular dipole:
                 x           y           z       tot (Debye)
 q only:       -1.725      -0.795       1.102
   full:       -1.565      -1.726       0.612       6.123
molecular quadrupole (traceless):
                xx          xy          yy          xz          yz          zz
 q only:       42.741      32.219     -92.956     -21.704      39.937      50.216
  q+dip:       32.466      21.822     -83.231     -38.729      21.890      50.765
   full:       33.965      23.274     -84.965     -39.004      18.790      51.000

           -------------------------------------------------
          |                Geometry Summary                 |
           -------------------------------------------------

      molecular mass/u    :     1432.8017874
   center of mass at/Å    :        0.2774205      -0.5014390      -0.5671288
  moments of inertia/u·Å² :        0.1968730E+05   0.7185846E+05   0.7851589E+05
rotational constants/cm⁻¹ :        0.8562692E-03   0.2345950E-03   0.2147034E-03

 * 122 selected distances

     #   Z          #   Z                                           value/Å
     1   6 C        2   6 C                                       1.3649555
     3   6 C        4   8 O                                       1.2128749
     5   6 C        6  16 S                                       1.7117302
     6  16 S        7   6 C                                       1.7427445
     7   6 C        8  17 Cl                                      1.7023181
     7   6 C        9   6 C                                       1.3692413
     5   6 C       10   6 C                                       1.3884549
     9   6 C       10   6 C                                       1.4047129
    11   6 C       12   6 C                                       1.3717659
    13   6 C       14   7 N                                       1.1475949
    15   6 C       16   7 N                                       1.1483362
     1   6 C       17   6 C                                       1.4048656
    17   6 C       18   6 C                                       1.3842652
    18   6 C       19   6 C                                       1.3913463
    21   6 C       22   6 C                                       1.5141603
    19   6 C       23   6 C                                       1.3899866
    17   6 C       24  16 S                                       1.7471571
    23   6 C       24  16 S                                       1.7320060
    23   6 C       25   6 C                                       1.4202285
    25   6 C       26   6 C                                       1.3940222
    26   6 C       27   7 N                                       1.3795731
    27   7 N       28   6 C                                       1.4037028
    28   6 C       29   6 C                                       1.3913330
    29   6 C       30   6 C                                       1.3814231
    30   6 C       31   6 C                                       1.3880795
    31   6 C       34   6 C                                       1.3951776
    28   6 C       35   6 C                                       1.3949344
    34   6 C       35   6 C                                       1.3755220
    27   7 N       36   6 C                                       1.4024923
    36   6 C       37   6 C                                       1.3966543
    37   6 C       38   6 C                                       1.3758001
    38   6 C       39   6 C                                       1.3954272
    39   6 C       42   6 C                                       1.3884410
    36   6 C       43   6 C                                       1.3940283
    42   6 C       43   6 C                                       1.3818470
    26   6 C       44   6 C                                       1.4184912
    44   6 C       45  16 S                                       1.7318122
    45  16 S       46   6 C                                       1.7541546
    46   6 C       47   6 C                                       1.3881888
    47   6 C       48   7 N                                       1.3839880
    48   7 N       49   6 C                                       1.4004933
    49   6 C       50   6 C                                       1.3925242
    50   6 C       51   6 C                                       1.3816367
    51   6 C       52   6 C                                       1.3877145
    52   6 C       55   6 C                                       1.3949122
    49   6 C       56   6 C                                       1.3953003
    55   6 C       56   6 C                                       1.3758311
    48   7 N       57   6 C                                       1.4054068
    57   6 C       58   6 C                                       1.3948846
    58   6 C       59   6 C                                       1.3778930
    59   6 C       60   6 C                                       1.3942473
    60   6 C       63   6 C                                       1.3879199
    57   6 C       64   6 C                                       1.3916389
    63   6 C       64   6 C                                       1.3803708
    44   6 C       65   6 C                                       1.3858150
    47   6 C       65   6 C                                       1.4155893
    25   6 C       66  16 S                                       1.7566610 (max)
    65   6 C       66  16 S                                       1.7234715
    46   6 C       67   6 C                                       1.4319459
    67   6 C       68   6 C                                       1.3786686
    68   6 C       69   6 C                                       1.3930614
    69   6 C       70  16 S                                       1.7413470
    71   6 C       72   6 C                                       1.5168081
    69   6 C       73   6 C                                       1.4090144
    67   6 C       74  16 S                                       1.7310235
    73   6 C       74  16 S                                       1.7505393
    73   6 C       75   6 C                                       1.3955333
    75   6 C       76   6 C                                       1.3724935
    77   6 C       78   8 O                                       1.2186118
    79   6 C       80  16 S                                       1.7123193
    80  16 S       81   6 C                                       1.7428862
    81   6 C       82  17 Cl                                      1.7031865
    81   6 C       83   6 C                                       1.3688111
    79   6 C       84   6 C                                       1.3869115
    83   6 C       84   6 C                                       1.4059942
    85   6 C       86   6 C                                       1.3702920
    87   6 C       88   7 N                                       1.1483386
    89   6 C       90   7 N                                       1.1475886
     1   6 C       91   1 H                                       1.0860534
     9   6 C       92   1 H                                       1.0739949
    18   6 C       93   1 H                                       1.0743221
    21   6 C       94   1 H                                       1.0893819
    21   6 C       95   1 H                                       1.0892220
    22   6 C       96   1 H                                       1.0885586
    22   6 C       97   1 H                                       1.0879224
    22   6 C       98   1 H                                       1.0884166
    29   6 C       99   1 H                                       1.0801627
    30   6 C      100   1 H                                       1.0777461
    33   6 C      101   1 H                                       1.0855521
    33   6 C      102   1 H                                       1.0859607
    33   6 C      103   1 H                                       1.0861277
    34   6 C      104   1 H                                       1.0789774
    35   6 C      105   1 H                                       1.0795047
    37   6 C      106   1 H                                       1.0795749
    38   6 C      107   1 H                                       1.0789110
    41   6 C      108   1 H                                       1.0858196
    41   6 C      109   1 H                                       1.0854767
    41   6 C      110   1 H                                       1.0874511
    42   6 C      111   1 H                                       1.0778237
    43   6 C      112   1 H                                       1.0795808
    50   6 C      113   1 H                                       1.0803392
    51   6 C      114   1 H                                       1.0777024
    54   6 C      115   1 H                                       1.0855251
    54   6 C      116   1 H                                       1.0858671
    54   6 C      117   1 H                                       1.0861764
    55   6 C      118   1 H                                       1.0790246
    56   6 C      119   1 H                                       1.0794811
    58   6 C      120   1 H                                       1.0805594
    59   6 C      121   1 H                                       1.0789706
    62   6 C      122   1 H                                       1.0867364
    62   6 C      123   1 H                                       1.0858844
    62   6 C      124   1 H                                       1.0859209
    63   6 C      125   1 H                                       1.0775205
    64   6 C      126   1 H                                       1.0797059
    68   6 C      127   1 H                                       1.0740699
    71   6 C      128   1 H                                       1.0885065
    71   6 C      129   1 H                                       1.0898557
    72   6 C      130   1 H                                       1.0876441
    72   6 C      131   1 H                                       1.0882699
    72   6 C      132   1 H                                       1.0871042
    75   6 C      133   1 H                                       1.0843339
    83   6 C      134   1 H                                       1.0737390 (min)

 * 6 distinct bonds (by element types)

   Z      Z             #   av. dist./Å        max./Å        min./Å
   1 H    6 C          44     1.0829427     1.0898557     1.0737390
   6 C    6 C          51     1.3950817     1.5168081     1.3649555
   6 C    7 N          10     1.2967515     1.4054068     1.1475886
   6 C    8 O           2     1.2157433     1.2186118     1.2128749
   6 C   16 S          13     1.7367579     1.7566610     1.7117302
   6 C   17 Cl          2     1.7027523     1.7031865     1.7023181


optimized geometry written to: xtbopt.mol


           -------------------------------------------------
          | TOTAL ENERGY             -241.612853173456 Eh   |
          | GRADIENT NORM               0.000475316507 Eh/α |
          | HOMO-LUMO GAP               0.567613371518 eV   |
           -------------------------------------------------

------------------------------------------------------------------------
 * finished run on 2022/02/08 at 12:25:40.871     
------------------------------------------------------------------------
 total:
 * wall-time:     0 d,  0 h,  0 min, 47.669 sec
 *  cpu-time:     0 d,  0 h,  6 min, 21.211 sec
 * ratio c/w:     7.997 speedup
 SCF:
 * wall-time:     0 d,  0 h,  0 min,  0.551 sec
 *  cpu-time:     0 d,  0 h,  0 min,  4.408 sec
 * ratio c/w:     7.996 speedup
 ANC optimizer:
 * wall-time:     0 d,  0 h,  0 min, 47.028 sec
 *  cpu-time:     0 d,  0 h,  6 min, 16.186 sec
 * ratio c/w:     7.999 speedup

