      -----------------------------------------------------------      
     |                   =====================                   |     
     |                           x T B                           |     
     |                   =====================                   |     
     |                         S. Grimme                         |     
     |          Mulliken Center for Theoretical Chemistry        |     
     |                    University of Bonn                     |     
      -----------------------------------------------------------      

   * xtb version 6.4.1 (unknown) compiled by 'oda6@login1.crc.pitt.edu' on 2021-06-25

   xtb is free software: you can redistribute it and/or modify it under
   the terms of the GNU Lesser General Public License as published by
   the Free Software Foundation, either version 3 of the License, or
   (at your option) any later version.
   
   xtb is distributed in the hope that it will be useful,
   but WITHOUT ANY WARRANTY; without even the implied warranty of
   MERCHANTABILITY or FITNESS FOR A PARTICULAR PURPOSE.  See the
   GNU Lesser General Public License for more details.
   
   Cite this work as:
   * C. Bannwarth, E. Caldeweyher, S. Ehlert, A. Hansen, P. Pracht,
     J. Seibert, S. Spicher, S. Grimme, WIREs Comput. Mol. Sci., 2020, 11,
     e01493. DOI: 10.1002/wcms.1493
   
   for GFN2-xTB:
   * C. Bannwarth, S. Ehlert and S. Grimme., J. Chem. Theory Comput., 2019,
     15, 1652-1671. DOI: 10.1021/acs.jctc.8b01176
   for GFN1-xTB:
   * S. Grimme, C. Bannwarth, P. Shushkov, J. Chem. Theory Comput., 2017,
     13, 1989-2009. DOI: 10.1021/acs.jctc.7b00118
   for GFN0-xTB:
   * P. Pracht, E. Caldeweyher, S. Ehlert, S. Grimme, ChemRxiv, 2019, preprint.
     DOI: 10.26434/chemrxiv.8326202.v1
   for GFN-FF:
   * S. Spicher and S. Grimme, Angew. Chem. Int. Ed., 2020, 59, 15665-15673.
     DOI: 10.1002/anie.202004239
   
   for DFT-D4:
   * E. Caldeweyher, C. Bannwarth and S. Grimme, J. Chem. Phys., 2017,
     147, 034112. DOI: 10.1063/1.4993215
   * E. Caldeweyher, S. Ehlert, A. Hansen, H. Neugebauer, S. Spicher,
     C. Bannwarth and S. Grimme, J. Chem. Phys., 2019, 150, 154122.
     DOI: 10.1063/1.5090222
   * E. Caldeweyher, J.-M. Mewes, S. Ehlert and S. Grimme, Phys. Chem. Chem. Phys.
     2020, 22, 8499-8512. DOI: 10.1039/D0CP00502A
   
   for sTDA-xTB:
   * S. Grimme and C. Bannwarth, J. Chem. Phys., 2016, 145, 054103.
     DOI: 10.1063/1.4959605
   
   in the mass-spec context:
   * V. Asgeirsson, C. Bauer and S. Grimme, Chem. Sci., 2017, 8, 4879.
     DOI: 10.1039/c7sc00601b
   * J. Koopman and S. Grimme, ACS Omega 2019, 4, 12, 15120-15133.
     DOI: 10.1021/acsomega.9b02011
   
   for metadynamics refer to:
   * S. Grimme, J. Chem. Theory Comput., 2019, 155, 2847-2862
     DOI: 10.1021/acs.jctc.9b00143
   
   for SPH calculations refer to:
   * S. Spicher and S. Grimme, J. Chem. Theory Comput., 2021, 17, 1701-1714
     DOI: 10.1021/acs.jctc.0c01306
   
   with help from (in alphabetical order)
   P. Atkinson, C. Bannwarth, F. Bohle, G. Brandenburg, E. Caldeweyher
   M. Checinski, S. Dohm, S. Ehlert, S. Ehrlich, I. Gerasimov, J. Koopman
   C. Lavigne, S. Lehtola, F. März, M. Müller, F. Musil, H. Neugebauer
   J. Pisarek, C. Plett, P. Pracht, J. Seibert, P. Shushkov, S. Spicher
   M. Stahn, M. Steiner, T. Strunk, J. Stückrath, T. Rose, and J. Unsleber
   
 * started run on 2022/02/08 at 20:36:59.639     

           -------------------------------------------------
          |                Calculation Setup                |
           -------------------------------------------------

          program call               : /ihome/ghutchison/oda6/xtb/xtb-641/bin/xtb ../../FF_optimized/55_127_130_130_55.mol -opt
          hostname                   : smp-n26
          coordinate file            : ../../FF_optimized/55_127_130_130_55.mol
          omp threads                :                     8
          number of atoms            :                   202
          number of electrons        :                   652
          charge                     :                     0
          spin                       :                   0.0
          first test random number   :      0.42342840972888

   ID    Z sym.   atoms
    1    6 C      1-3, 5-7, 9, 11-13, 15, 17, 18, 20, 22, 23, 25-28, 30-34,
                  36-39, 41-47, 49-52, 54, 55, 57-60, 62-68, 70-73, 75, 76,
                  78-81, 83-89, 91-94, 96, 97, 99-102, 104-110, 112-115,
                  117-119, 121-123, 125, 127-129, 131
    2    8 O      4, 120
    3   16 S      8, 40, 48, 53, 61, 69, 74, 82, 90, 95, 103, 111, 116, 124
    4   17 Cl     10, 126
    5    7 N      14, 16, 24, 29, 35, 56, 77, 98, 130, 132
    6    9 F      19, 21
    7    1 H      133-202
########################################################################
[WARNING] Please study the warnings concerning your input carefully
-1- prog_main_parseArguments: the use of '-opt' is discouraged, please use '--opt' next time
########################################################################

           -------------------------------------------------
          |                 G F N 2 - x T B                 |
           -------------------------------------------------

        Reference                      10.1021/acs.jctc.8b01176
      * Hamiltonian:
        H0-scaling (s, p, d)           1.850000    2.230000    2.230000
        zeta-weighting                 0.500000
      * Dispersion:
        s8                             2.700000
        a1                             0.520000
        a2                             5.000000
        s9                             5.000000
      * Repulsion:
        kExp                           1.500000    1.000000
        rExp                           1.000000
      * Coulomb:
        alpha                          2.000000
        third order                    shell-resolved
        anisotropic                    true
        a3                             3.000000
        a5                             4.000000
        cn-shift                       1.200000
        cn-exp                         4.000000
        max-rad                        5.000000


          ...................................................
          :                      SETUP                      :
          :.................................................:
          :  # basis functions                 694          :
          :  # atomic orbitals                 678          :
          :  # shells                          350          :
          :  # electrons                       652          :
          :  max. iterations                   250          :
          :  Hamiltonian                  GFN2-xTB          :
          :  restarted?                      false          :
          :  GBSA solvation                  false          :
          :  PC potential                    false          :
          :  electronic temp.          300.0000000     K    :
          :  accuracy                    1.0000000          :
          :  -> integral cutoff          0.2500000E+02      :
          :  -> integral neglect         0.1000000E-07      :
          :  -> SCF convergence          0.1000000E-05 Eh   :
          :  -> wf. convergence          0.1000000E-03 e    :
          :  Broyden damping             0.4000000          :
          ...................................................

 iter      E             dE          RMSdq      gap      omega  full diag
   1   -359.7261734 -0.359726E+03  0.490E+00    1.23       0.0  T
   2   -359.9620662 -0.235893E+00  0.296E+00    1.25       1.0  T
   3   -359.4982293  0.463837E+00  0.200E+00    0.34       1.0  T
   4   -360.0881734 -0.589944E+00  0.731E-01    0.29       1.0  T
   5   -360.1693129 -0.811394E-01  0.281E-01    0.20       1.0  T
   6   -360.1728610 -0.354812E-02  0.161E-01    0.37       1.0  T
   7   -360.1756738 -0.281282E-02  0.875E-02    0.32       1.0  T
   8   -360.1764500 -0.776235E-03  0.592E-02    0.30       1.0  T
   9   -360.1766393 -0.189217E-03  0.457E-02    0.30       1.0  T
  10   -360.1767544 -0.115166E-03  0.344E-02    0.29       1.0  T
  11   -360.1768585 -0.104080E-03  0.231E-02    0.30       1.0  T
  12   -360.1769001 -0.415547E-04  0.143E-02    0.29       1.0  T
  13   -360.1769202 -0.201341E-04  0.723E-03    0.30       1.0  T
  14   -360.1769245 -0.430319E-05  0.369E-03    0.30       1.9  T
  15   -360.1769263 -0.183228E-05  0.179E-03    0.30       3.9  T
  16   -360.1769265 -0.151362E-06  0.106E-03    0.30       6.6  T
  17   -360.1769266 -0.912099E-07  0.641E-04    0.30      11.0  T
  18   -360.1769266 -0.257513E-07  0.417E-04    0.30      16.9  T

   *** convergence criteria satisfied after 18 iterations ***

         #    Occupation            Energy/Eh            Energy/eV
      -------------------------------------------------------------
         1        2.0000           -1.0828799             -29.4667
       ...           ...                  ...                  ...
       320        2.0000           -0.3680202             -10.0143
       321        2.0000           -0.3664902              -9.9727
       322        2.0000           -0.3633255              -9.8866
       323        2.0000           -0.3608384              -9.8189
       324        1.9978           -0.3560824              -9.6895
       325        1.9973           -0.3559004              -9.6845
       326        1.9958           -0.3554814              -9.6731 (HOMO)
       327        0.0092           -0.3445162              -9.3748 (LUMO)
       328        0.0000           -0.3345208              -9.1028
       329                         -0.3303157              -8.9883
       330                         -0.3212576              -8.7419
       331                         -0.3194761              -8.6934
       ...                                ...                  ...
       678                          1.0774339              29.3185
      -------------------------------------------------------------
                  HL-Gap            0.0109652 Eh            0.2984 eV
             Fermi-level           -0.3496276 Eh           -9.5139 eV

 SCC (total)                   0 d,  0 h,  0 min,  0.951 sec
 SCC setup                      ...        0 min,  0.003 sec (  0.350%)
 Dispersion                     ...        0 min,  0.008 sec (  0.861%)
 classical contributions        ...        0 min,  0.000 sec (  0.039%)
 integral evaluation            ...        0 min,  0.041 sec (  4.350%)
 iterations                     ...        0 min,  0.753 sec ( 79.138%)
 molecular gradient             ...        0 min,  0.141 sec ( 14.848%)
 printout                       ...        0 min,  0.004 sec (  0.405%)

         :::::::::::::::::::::::::::::::::::::::::::::::::::::
         ::                     SUMMARY                     ::
         :::::::::::::::::::::::::::::::::::::::::::::::::::::
         :: total energy            -355.163155568040 Eh    ::
         :: gradient norm              0.334752710573 Eh/a0 ::
         :: HOMO-LUMO gap              0.298378729475 eV    ::
         ::.................................................::
         :: SCC energy              -360.176926592076 Eh    ::
         :: -> isotropic ES            0.173121730683 Eh    ::
         :: -> anisotropic ES          0.015928873600 Eh    ::
         :: -> anisotropic XC          0.225654465811 Eh    ::
         :: -> dispersion             -0.361362611253 Eh    ::
         :: repulsion energy           4.996578403104 Eh    ::
         :: add. restraining           0.000000000000 Eh    ::
         :: total charge              -0.000000000000 e     ::
         :::::::::::::::::::::::::::::::::::::::::::::::::::::

      ----------------------------------------------------------- 
     |                   =====================                   |
     |                        A N C O P T                        |
     |                   =====================                   |
     |               Approximate Normal Coordinate               |
     |                Rational Function Optimizer                |
      ----------------------------------------------------------- 

          ...................................................
          :                      SETUP                      :
          :.................................................:
          :   optimization level            normal          :
          :   max. optcycles                   606          :
          :   ANC micro-cycles                  20          :
          :   degrees of freedom               600          :
          :.................................................:
          :   RF solver                   davidson          :
          :   write xtbopt.log                true          :
          :   linear?                        false          :
          :   energy convergence         0.5000000E-05 Eh   :
          :   grad. convergence          0.1000000E-02 Eh/α :
          :   maximium RF displ.         1.0000000          :
          :   Hlow (freq-cutoff)         0.1000000E-01      :
          :   Hmax (freq-cutoff)         5.0000000          :
          :   S6 in model hess.         20.0000000          :
          ...................................................

generating ANC from model Hessian ...
Using Lindh-Hessian (1995)
 Shifting diagonal of input Hessian by   1.002043395717533E-002
 Lowest  eigenvalues of input Hessian
    0.010000    0.010014    0.000000    0.000000    0.000000    0.000000
    0.000000    0.000000    0.010033    0.010042    0.010064    0.010076
    0.010082    0.010099    0.010133    0.010144    0.010147    0.010183
 Highest eigenvalues
    2.154509    2.158470    2.495914    2.509581    2.554613    2.560350
 

........................................................................
.............................. CYCLE    1 ..............................
........................................................................
   1   -360.1769266 -0.360177E+03  0.278E-04    0.30       0.0  T
   2   -360.1769266 -0.929731E-09  0.239E-04    0.30      29.4  T
   3   -360.1769266 -0.357994E-08  0.191E-04    0.30      36.8  T
     SCC iter.                  ...        0 min,  0.137 sec
     gradient                   ...        0 min,  0.145 sec
 * total energy  :  -355.1631556 Eh     change       -0.1386076E-07 Eh
   gradient norm :     0.3347525 Eh/α   predicted     0.0000000E+00 (-100.00%)
   displ. norm   :     0.4761791 α      lambda       -0.1175149E+00
   maximum displ.:     0.0966854 α      in ANC's #322, #320, #337, ...

........................................................................
.............................. CYCLE    2 ..............................
........................................................................
   1   -360.4153628 -0.360415E+03  0.266E-01    0.31       0.0  T
   2   -360.4172512 -0.188840E-02  0.161E-01    0.28       1.0  T
   3   -360.4169548  0.296413E-03  0.960E-02    0.31       1.0  T
   4   -360.4177271 -0.772304E-03  0.441E-02    0.28       1.0  T
   5   -360.4180785 -0.351383E-03  0.210E-02    0.30       1.0  T
   6   -360.4181334 -0.548652E-04  0.116E-02    0.29       1.0  T
   7   -360.4181424 -0.903826E-05  0.821E-03    0.29       1.0  T
   8   -360.4181470 -0.463029E-05  0.620E-03    0.29       1.1  T
   9   -360.4181490 -0.201013E-05  0.462E-03    0.29       1.5  T
  10   -360.4181513 -0.223633E-05  0.242E-03    0.29       2.9  T
  11   -360.4181520 -0.722659E-06  0.121E-03    0.29       5.8  T
  12   -360.4181521 -0.696683E-07  0.745E-04    0.29       9.4  T
  13   -360.4181521 -0.603677E-07  0.277E-04    0.29      25.4  T
     SCC iter.                  ...        0 min,  0.562 sec
     gradient                   ...        0 min,  0.145 sec
 * total energy  :  -355.2495925 Eh     change       -0.8643691E-01 Eh
   gradient norm :     0.1616869 Eh/α   predicted    -0.7211888E-01 ( -16.56%)
   displ. norm   :     0.4931305 α      lambda       -0.5264040E-01
   maximum displ.:     0.1068235 α      in ANC's #99, #322, #125, ...

........................................................................
.............................. CYCLE    3 ..............................
........................................................................
   1   -360.5718640 -0.360572E+03  0.230E-01    0.27       0.0  T
   2   -360.5733434 -0.147934E-02  0.142E-01    0.24       1.0  T
   3   -360.5734379 -0.944904E-04  0.909E-02    0.29       1.0  T
   4   -360.5742219 -0.784003E-03  0.462E-02    0.26       1.0  T
   5   -360.5746038 -0.381951E-03  0.229E-02    0.27       1.0  T
   6   -360.5746667 -0.628540E-04  0.126E-02    0.27       1.0  T
   7   -360.5746755 -0.882745E-05  0.933E-03    0.27       1.0  T
   8   -360.5746806 -0.509667E-05  0.710E-03    0.27       1.0  T
   9   -360.5746838 -0.316620E-05  0.504E-03    0.27       1.4  T
  10   -360.5746863 -0.255961E-05  0.268E-03    0.27       2.6  T
  11   -360.5746872 -0.911199E-06  0.127E-03    0.27       5.5  T
  12   -360.5746874 -0.117807E-06  0.750E-04    0.27       9.4  T
  13   -360.5746874 -0.383993E-07  0.322E-04    0.27      21.8  T
     SCC iter.                  ...        0 min,  0.571 sec
     gradient                   ...        0 min,  0.145 sec
 * total energy  :  -355.2825578 Eh     change       -0.3296531E-01 Eh
   gradient norm :     0.0490350 Eh/α   predicted    -0.3272070E-01 (  -0.74%)
   displ. norm   :     0.5468283 α      lambda       -0.1450413E-01
   maximum displ.:     0.2098542 α      in ANC's #99, #128, #125, ...

........................................................................
.............................. CYCLE    4 ..............................
........................................................................
   1   -360.6177351 -0.360618E+03  0.186E-01    0.27       0.0  T
   2   -360.6179112 -0.176109E-03  0.113E-01    0.25       1.0  T
   3   -360.6166070  0.130426E-02  0.839E-02    0.28       1.0  T
   4   -360.6183581 -0.175114E-02  0.249E-02    0.27       1.0  T
   5   -360.6184807 -0.122558E-03  0.116E-02    0.26       1.0  T
   6   -360.6184963 -0.156149E-04  0.619E-03    0.26       1.1  T
   7   -360.6184982 -0.195235E-05  0.447E-03    0.26       1.6  T
   8   -360.6184994 -0.110892E-05  0.342E-03    0.26       2.1  T
   9   -360.6185001 -0.717057E-06  0.245E-03    0.26       2.9  T
  10   -360.6185006 -0.568341E-06  0.141E-03    0.26       5.0  T
  11   -360.6185008 -0.194851E-06  0.805E-04    0.26       8.7  T
  12   -360.6185009 -0.542171E-07  0.448E-04    0.26      15.7  T
     SCC iter.                  ...        0 min,  0.520 sec
     gradient                   ...        0 min,  0.146 sec
 * total energy  :  -355.2911628 Eh     change       -0.8604961E-02 Eh
   gradient norm :     0.0363044 Eh/α   predicted    -0.9420806E-02 (   9.48%)
   displ. norm   :     0.6934126 α      lambda       -0.1312546E-01
   maximum displ.:     0.2027724 α      in ANC's #99, #36, #122, ...

........................................................................
.............................. CYCLE    5 ..............................
........................................................................
   1   -360.6691878 -0.360669E+03  0.330E-01    0.24       0.0  T
   2   -360.6695006 -0.312781E-03  0.188E-01    0.23       1.0  T
   3   -360.6651816  0.431905E-02  0.128E-01    0.27       1.0  T
   4   -360.6700973 -0.491577E-02  0.285E-02    0.24       1.0  T
   5   -360.6702679 -0.170554E-03  0.123E-02    0.25       1.0  T
   6   -360.6702848 -0.169162E-04  0.629E-03    0.25       1.1  T
   7   -360.6702875 -0.265747E-05  0.418E-03    0.25       1.7  T
   8   -360.6702883 -0.837135E-06  0.309E-03    0.25       2.3  T
   9   -360.6702889 -0.579613E-06  0.232E-03    0.25       3.0  T
  10   -360.6702892 -0.349889E-06  0.153E-03    0.25       4.6  T
  11   -360.6702895 -0.239821E-06  0.935E-04    0.25       7.5  T
  12   -360.6702895 -0.738529E-07  0.525E-04    0.25      13.4  T
     SCC iter.                  ...        0 min,  0.523 sec
     gradient                   ...        0 min,  0.145 sec
 * total energy  :  -355.2946259 Eh     change       -0.3463093E-02 Eh
   gradient norm :     0.0413655 Eh/α   predicted    -0.9718266E-02 ( 180.62%)
   displ. norm   :     0.3091688 α      lambda       -0.5681334E-02
   maximum displ.:     0.0862797 α      in ANC's #74, #79, #99, ...

........................................................................
.............................. CYCLE    6 ..............................
........................................................................
   1   -360.6645410 -0.360665E+03  0.116E-01    0.26       0.0  T
   2   -360.6645816 -0.406116E-04  0.657E-02    0.25       1.0  T
   3   -360.6643677  0.213913E-03  0.345E-02    0.24       1.0  T
   4   -360.6646091 -0.241462E-03  0.820E-03    0.26       1.0  T
   5   -360.6646191 -0.990651E-05  0.431E-03    0.25       1.6  T
   6   -360.6646208 -0.179405E-05  0.251E-03    0.25       2.8  T
   7   -360.6646214 -0.580624E-06  0.170E-03    0.25       4.1  T
   8   -360.6646216 -0.143346E-06  0.131E-03    0.25       5.4  T
   9   -360.6646217 -0.100598E-06  0.932E-04    0.25       7.6  T
  10   -360.6646218 -0.805928E-07  0.560E-04    0.25      12.6  T
     SCC iter.                  ...        0 min,  0.417 sec
     gradient                   ...        0 min,  0.138 sec
 * total energy  :  -355.2984808 Eh     change       -0.3854917E-02 Eh
   gradient norm :     0.0270727 Eh/α   predicted    -0.3112313E-02 ( -19.26%)
   displ. norm   :     0.4817761 α      lambda       -0.3390389E-02
   maximum displ.:     0.1286647 α      in ANC's #36, #33, #99, ...

........................................................................
.............................. CYCLE    7 ..............................
........................................................................
   1   -360.6445991 -0.360645E+03  0.178E-01    0.23       0.0  T
   2   -360.6446682 -0.690955E-04  0.996E-02    0.26       1.0  T
   3   -360.6439208  0.747438E-03  0.558E-02    0.21       1.0  T
   4   -360.6447322 -0.811370E-03  0.112E-02    0.26       1.0  T
   5   -360.6447485 -0.163176E-04  0.568E-03    0.24       1.2  T
   6   -360.6447515 -0.300995E-05  0.293E-03    0.25       2.4  T
   7   -360.6447524 -0.945050E-06  0.176E-03    0.25       4.0  T
   8   -360.6447527 -0.253495E-06  0.122E-03    0.25       5.7  T
   9   -360.6447528 -0.923754E-07  0.892E-04    0.25       7.9  T
  10   -360.6447528 -0.426724E-07  0.646E-04    0.25      10.9  T
     SCC iter.                  ...        0 min,  0.413 sec
     gradient                   ...        0 min,  0.139 sec
 * total energy  :  -355.2996092 Eh     change       -0.1128452E-02 Eh
   gradient norm :     0.0385228 Eh/α   predicted    -0.2088673E-02 (  85.09%)
   displ. norm   :     0.4912447 α      lambda       -0.4239527E-02
   maximum displ.:     0.1341219 α      in ANC's #74, #59, #39, ...

........................................................................
.............................. CYCLE    8 ..............................
........................................................................
   1   -360.6497437 -0.360650E+03  0.186E-01    0.25       0.0  T
   2   -360.6498098 -0.661612E-04  0.104E-01    0.25       1.0  T
   3   -360.6491678  0.641984E-03  0.534E-02    0.24       1.0  T
   4   -360.6498836 -0.715712E-03  0.975E-03    0.26       1.0  T
   5   -360.6498978 -0.142287E-04  0.507E-03    0.25       1.4  T
   6   -360.6499004 -0.264671E-05  0.210E-03    0.25       3.4  T
   7   -360.6499009 -0.488167E-06  0.112E-03    0.25       6.3  T
   8   -360.6499010 -0.105995E-06  0.721E-04    0.25       9.8  T
   9   -360.6499010 -0.242946E-07  0.514E-04    0.25      13.7  T
     SCC iter.                  ...        0 min,  0.365 sec
     gradient                   ...        0 min,  0.139 sec
 * total energy  :  -355.3008521 Eh     change       -0.1242841E-02 Eh
   gradient norm :     0.0289511 Eh/α   predicted    -0.2631310E-02 ( 111.72%)
   displ. norm   :     0.2700764 α      lambda       -0.2685976E-02
   maximum displ.:     0.0748928 α      in ANC's #39, #59, #33, ...

........................................................................
.............................. CYCLE    9 ..............................
........................................................................
   1   -360.6666644 -0.360667E+03  0.978E-02    0.24       0.0  T
   2   -360.6666876 -0.232609E-04  0.553E-02    0.25       1.0  T
   3   -360.6664205  0.267077E-03  0.365E-02    0.25       1.0  T
   4   -360.6667238 -0.303288E-03  0.734E-03    0.24       1.0  T
   5   -360.6667341 -0.102512E-04  0.356E-03    0.25       2.0  T
   6   -360.6667356 -0.154867E-05  0.173E-03    0.25       4.1  T
   7   -360.6667360 -0.353558E-06  0.942E-04    0.25       7.5  T
   8   -360.6667360 -0.612762E-07  0.661E-04    0.25      10.6  T
     SCC iter.                  ...        0 min,  0.329 sec
     gradient                   ...        0 min,  0.140 sec
 * total energy  :  -355.3025313 Eh     change       -0.1679215E-02 Eh
   gradient norm :     0.0131714 Eh/α   predicted    -0.1440948E-02 ( -14.19%)
   displ. norm   :     0.5173023 α      lambda       -0.2157518E-02
   maximum displ.:     0.1562335 α      in ANC's #39, #59, #33, ...

........................................................................
.............................. CYCLE   10 ..............................
........................................................................
   1   -360.6722639 -0.360672E+03  0.135E-01    0.23       0.0  T
   2   -360.6723041 -0.401988E-04  0.743E-02    0.25       1.0  T
   3   -360.6721530  0.151059E-03  0.290E-02    0.21       1.0  T
   4   -360.6723188 -0.165766E-03  0.885E-03    0.25       1.0  T
   5   -360.6723269 -0.804562E-05  0.512E-03    0.24       1.4  T
   6   -360.6723305 -0.364663E-05  0.206E-03    0.24       3.4  T
   7   -360.6723312 -0.653657E-06  0.104E-03    0.24       6.8  T
   8   -360.6723312 -0.860803E-07  0.725E-04    0.24       9.7  T
   9   -360.6723313 -0.152219E-07  0.576E-04    0.24      12.2  T
     SCC iter.                  ...        0 min,  0.379 sec
     gradient                   ...        0 min,  0.140 sec
 * total energy  :  -355.3041528 Eh     change       -0.1621549E-02 Eh
   gradient norm :     0.0159128 Eh/α   predicted    -0.1367437E-02 ( -15.67%)
   displ. norm   :     0.7437955 α      lambda       -0.2318121E-02
   maximum displ.:     0.2305802 α      in ANC's #39, #59, #33, ...

........................................................................
.............................. CYCLE   11 ..............................
........................................................................
   1   -360.6680489 -0.360668E+03  0.148E-01    0.23       0.0  T
   2   -360.6680899 -0.410385E-04  0.807E-02    0.24       1.0  T
   3   -360.6679089  0.181017E-03  0.307E-02    0.21       1.0  T
   4   -360.6680970 -0.188120E-03  0.114E-02    0.25       1.0  T
   5   -360.6681051 -0.808165E-05  0.695E-03    0.23       1.0  T
   6   -360.6681140 -0.894919E-05  0.232E-03    0.24       3.0  T
   7   -360.6681151 -0.102847E-05  0.961E-04    0.24       7.3  T
   8   -360.6681152 -0.130591E-06  0.556E-04    0.24      12.7  T
   9   -360.6681152 -0.167311E-07  0.406E-04    0.24      17.3  T
     SCC iter.                  ...        0 min,  0.375 sec
     gradient                   ...        0 min,  0.139 sec
 * total energy  :  -355.3060890 Eh     change       -0.1936153E-02 Eh
   gradient norm :     0.0217659 Eh/α   predicted    -0.1800289E-02 (  -7.02%)
   displ. norm   :     0.7791419 α      lambda       -0.2477962E-02
   maximum displ.:     0.2396346 α      in ANC's #39, #59, #51, ...

........................................................................
.............................. CYCLE   12 ..............................
........................................................................
   1   -360.6694835 -0.360669E+03  0.133E-01    0.23       0.0  T
   2   -360.6695147 -0.311582E-04  0.716E-02    0.24       1.0  T
   3   -360.6694123  0.102379E-03  0.235E-02    0.22       1.0  T
   4   -360.6695124 -0.100152E-03  0.112E-02    0.24       1.0  T
   5   -360.6695221 -0.964519E-05  0.641E-03    0.23       1.1  T
   6   -360.6695294 -0.727659E-05  0.230E-03    0.24       3.1  T
   7   -360.6695305 -0.108114E-05  0.760E-04    0.23       9.3  T
   8   -360.6695305 -0.612583E-07  0.423E-04    0.23      16.6  T
   9   -360.6695305 -0.340845E-08  0.306E-04    0.23      23.0  T
     SCC iter.                  ...        0 min,  0.372 sec
     gradient                   ...        0 min,  0.138 sec
 * total energy  :  -355.3081547 Eh     change       -0.2065665E-02 Eh
   gradient norm :     0.0183823 Eh/α   predicted    -0.1991120E-02 (  -3.61%)
   displ. norm   :     0.8021009 α      lambda       -0.2338321E-02
   maximum displ.:     0.2514045 α      in ANC's #39, #59, #51, ...

........................................................................
.............................. CYCLE   13 ..............................
........................................................................
   1   -360.6695499 -0.360670E+03  0.143E-01    0.23       0.0  T
   2   -360.6695862 -0.362932E-04  0.772E-02    0.24       1.0  T
   3   -360.6694232  0.162997E-03  0.280E-02    0.22       1.0  T
   4   -360.6695853 -0.162103E-03  0.122E-02    0.24       1.0  T
   5   -360.6695982 -0.129560E-04  0.730E-03    0.23       1.0  T
   6   -360.6696076 -0.935736E-05  0.250E-03    0.24       2.8  T
   7   -360.6696087 -0.114792E-05  0.852E-04    0.23       8.3  T
   8   -360.6696088 -0.103708E-06  0.430E-04    0.23      16.4  T
   9   -360.6696089 -0.979946E-08  0.291E-04    0.23      24.1  T
     SCC iter.                  ...        0 min,  0.371 sec
     gradient                   ...        0 min,  0.139 sec
 * total energy  :  -355.3101671 Eh     change       -0.2012422E-02 Eh
   gradient norm :     0.0120751 Eh/α   predicted    -0.1921365E-02 (  -4.52%)
   displ. norm   :     0.8030810 α      lambda       -0.2173444E-02
   maximum displ.:     0.2505301 α      in ANC's #39, #51, #59, ...

........................................................................
.............................. CYCLE   14 ..............................
........................................................................
   1   -360.6751489 -0.360675E+03  0.137E-01    0.23       0.0  T
   2   -360.6751857 -0.367509E-04  0.732E-02    0.23       1.0  T
   3   -360.6751049  0.807746E-04  0.212E-02    0.23       1.0  T
   4   -360.6751833 -0.783388E-04  0.105E-02    0.23       1.0  T
   5   -360.6751975 -0.142733E-04  0.479E-03    0.23       1.5  T
   6   -360.6752011 -0.360703E-05  0.194E-03    0.23       3.6  T
   7   -360.6752019 -0.727374E-06  0.812E-04    0.23       8.7  T
   8   -360.6752020 -0.982214E-07  0.470E-04    0.23      15.0  T
     SCC iter.                  ...        0 min,  0.332 sec
     gradient                   ...        0 min,  0.138 sec
 * total energy  :  -355.3120770 Eh     change       -0.1909908E-02 Eh
   gradient norm :     0.0129139 Eh/α   predicted    -0.1787591E-02 (  -6.40%)
   displ. norm   :     0.8245039 α      lambda       -0.2239869E-02
   maximum displ.:     0.2596790 α      in ANC's #39, #51, #59, ...

........................................................................
.............................. CYCLE   15 ..............................
........................................................................
   1   -360.6788024 -0.360679E+03  0.145E-01    0.22       0.0  T
   2   -360.6788444 -0.419520E-04  0.772E-02    0.24       1.0  T
   3   -360.6786393  0.205077E-03  0.334E-02    0.20       1.0  T
   4   -360.6788351 -0.195822E-03  0.145E-02    0.25       1.0  T
   5   -360.6788578 -0.226734E-04  0.685E-03    0.23       1.0  T
   6   -360.6788643 -0.647593E-05  0.283E-03    0.23       2.5  T
   7   -360.6788659 -0.165773E-05  0.931E-04    0.23       7.6  T
   8   -360.6788661 -0.111969E-06  0.489E-04    0.23      14.4  T
   9   -360.6788661 -0.156531E-07  0.329E-04    0.23      21.4  T
     SCC iter.                  ...        0 min,  0.369 sec
     gradient                   ...        0 min,  0.139 sec
 * total energy  :  -355.3139586 Eh     change       -0.1881619E-02 Eh
   gradient norm :     0.0125320 Eh/α   predicted    -0.1881274E-02 (  -0.02%)
   displ. norm   :     0.8100671 α      lambda       -0.2094307E-02
   maximum displ.:     0.2545335 α      in ANC's #39, #51, #22, ...

........................................................................
.............................. CYCLE   16 ..............................
........................................................................
   1   -360.6864885 -0.360686E+03  0.141E-01    0.23       0.0  T
   2   -360.6865341 -0.456395E-04  0.744E-02    0.23       1.0  T
   3   -360.6864589  0.752221E-04  0.234E-02    0.23       1.0  T
   4   -360.6865369 -0.779955E-04  0.108E-02    0.23       1.0  T
   5   -360.6865448 -0.791481E-05  0.577E-03    0.24       1.2  T
   6   -360.6865503 -0.545624E-05  0.281E-03    0.22       2.5  T
   7   -360.6865518 -0.155557E-05  0.101E-03    0.23       7.0  T
   8   -360.6865520 -0.156632E-06  0.414E-04    0.23      17.0  T
   9   -360.6865520 -0.857523E-08  0.275E-04    0.23      25.5  T
     SCC iter.                  ...        0 min,  0.364 sec
     gradient                   ...        0 min,  0.138 sec
 * total energy  :  -355.3158189 Eh     change       -0.1860258E-02 Eh
   gradient norm :     0.0121475 Eh/α   predicted    -0.1734306E-02 (  -6.77%)
   displ. norm   :     0.8097571 α      lambda       -0.2053593E-02
   maximum displ.:     0.2355777 α      in ANC's #39, #51, #54, ...

........................................................................
.............................. CYCLE   17 ..............................
........................................................................
   1   -360.6931493 -0.360693E+03  0.136E-01    0.22       0.0  T
   2   -360.6931928 -0.435467E-04  0.717E-02    0.24       1.0  T
   3   -360.6930762  0.116608E-03  0.312E-02    0.20       1.0  T
   4   -360.6931900 -0.113767E-03  0.133E-02    0.25       1.0  T
   5   -360.6931970 -0.696705E-05  0.797E-03    0.22       1.0  T
   6   -360.6932081 -0.111700E-04  0.312E-03    0.23       2.3  T
   7   -360.6932102 -0.203167E-05  0.101E-03    0.23       7.0  T
   8   -360.6932103 -0.135075E-06  0.553E-04    0.23      12.7  T
   9   -360.6932103 -0.977309E-08  0.411E-04    0.23      17.1  T
     SCC iter.                  ...        0 min,  0.376 sec
     gradient                   ...        0 min,  0.146 sec
 * total energy  :  -355.3176559 Eh     change       -0.1837020E-02 Eh
   gradient norm :     0.0115438 Eh/α   predicted    -0.1700074E-02 (  -7.45%)
   displ. norm   :     0.8610579 α      lambda       -0.2152323E-02
   maximum displ.:     0.2874461 α      in ANC's #39, #51, #54, ...

........................................................................
.............................. CYCLE   18 ..............................
........................................................................
   1   -360.6803588 -0.360680E+03  0.151E-01    0.21       0.0  T
   2   -360.6804109 -0.521791E-04  0.790E-02    0.24       1.0  T
   3   -360.6797354  0.675547E-03  0.653E-02    0.17       1.0  T
   4   -360.6803962 -0.660826E-03  0.192E-02    0.25       1.0  T
   5   -360.6804281 -0.318713E-04  0.108E-02    0.23       1.0  T
   6   -360.6804380 -0.988697E-05  0.532E-03    0.23       1.3  T
   7   -360.6804439 -0.591589E-05  0.153E-03    0.22       4.6  T
   8   -360.6804442 -0.304969E-06  0.723E-04    0.22       9.7  T
   9   -360.6804442 -0.348170E-07  0.508E-04    0.22      13.9  T
     SCC iter.                  ...        0 min,  0.391 sec
     gradient                   ...        0 min,  0.146 sec
 * total energy  :  -355.3193170 Eh     change       -0.1661076E-02 Eh
   gradient norm :     0.0158148 Eh/α   predicted    -0.1874052E-02 (  12.82%)
   displ. norm   :     0.7334611 α      lambda       -0.2314330E-02
   maximum displ.:     0.1783069 α      in ANC's #51, #54, #52, ...

........................................................................
.............................. CYCLE   19 ..............................
........................................................................
   1   -360.6988277 -0.360699E+03  0.120E-01    0.22       0.0  T
   2   -360.6988604 -0.327074E-04  0.644E-02    0.23       1.0  T
   3   -360.6985559  0.304523E-03  0.454E-02    0.18       1.0  T
   4   -360.6988512 -0.295337E-03  0.153E-02    0.25       1.0  T
   5   -360.6988735 -0.222717E-04  0.823E-03    0.22       1.0  T
   6   -360.6988830 -0.950697E-05  0.384E-03    0.23       1.8  T
   7   -360.6988860 -0.297668E-05  0.115E-03    0.22       6.1  T
   8   -360.6988861 -0.123123E-06  0.721E-04    0.22       9.8  T
   9   -360.6988861 -0.306405E-07  0.512E-04    0.22      13.7  T
     SCC iter.                  ...        0 min,  0.391 sec
     gradient                   ...        0 min,  0.144 sec
 * total energy  :  -355.3210009 Eh     change       -0.1683978E-02 Eh
   gradient norm :     0.0157168 Eh/α   predicted    -0.1779684E-02 (   5.68%)
   displ. norm   :     0.8121080 α      lambda       -0.1796125E-02
   maximum displ.:     0.2450594 α      in ANC's #51, #54, #52, ...

........................................................................
.............................. CYCLE   20 ..............................
........................................................................
   1   -360.6814467 -0.360681E+03  0.134E-01    0.21       0.0  T
   2   -360.6814857 -0.389393E-04  0.711E-02    0.24       1.0  T
   3   -360.6804554  0.103025E-02  0.768E-02    0.16       1.0  T
   4   -360.6814752 -0.101977E-02  0.187E-02    0.25       1.0  T
   5   -360.6815055 -0.303526E-04  0.100E-02    0.23       1.0  T
   6   -360.6815132 -0.764400E-05  0.524E-03    0.23       1.3  T
   7   -360.6815187 -0.547997E-05  0.168E-03    0.22       4.2  T
   8   -360.6815191 -0.424032E-06  0.655E-04    0.22      10.7  T
   9   -360.6815191 -0.401790E-07  0.387E-04    0.22      18.2  T
     SCC iter.                  ...        0 min,  0.375 sec
     gradient                   ...        0 min,  0.140 sec
 * total energy  :  -355.3222950 Eh     change       -0.1294046E-02 Eh
   gradient norm :     0.0158818 Eh/α   predicted    -0.1490354E-02 (  15.17%)
   displ. norm   :     0.6759811 α      lambda       -0.1764335E-02
   maximum displ.:     0.1904224 α      in ANC's #54, #39, #41, ...
 * RMSD in coord.:     0.7040709 α      energy gain  -0.1591394E+00 Eh

generating ANC from model Hessian ...
Using Lindh-Hessian (1995)
 Shifting diagonal of input Hessian by   1.007276169005731E-002
 Lowest  eigenvalues of input Hessian
    0.010000    0.010048    0.010059    0.000000    0.000000    0.000000
    0.000000    0.000000    0.000000    0.010077    0.010087    0.010108
    0.010119    0.010126    0.010152    0.010175    0.010198    0.010228
 Highest eigenvalues
    2.301880    2.312713    2.590454    2.599033    2.648493    2.657732
 

........................................................................
.............................. CYCLE   21 ..............................
........................................................................
   1   -360.6849042 -0.360685E+03  0.110E-01    0.21       0.0  T
   2   -360.6849258 -0.215772E-04  0.580E-02    0.24       1.0  T
   3   -360.6841896  0.736263E-03  0.641E-02    0.17       1.0  T
   4   -360.6849203 -0.730769E-03  0.161E-02    0.24       1.0  T
   5   -360.6849454 -0.250393E-04  0.849E-03    0.23       1.0  T
   6   -360.6849518 -0.648720E-05  0.422E-03    0.22       1.7  T
   7   -360.6849559 -0.403717E-05  0.111E-03    0.22       6.3  T
   8   -360.6849561 -0.182583E-06  0.562E-04    0.22      12.5  T
   9   -360.6849561 -0.308516E-07  0.370E-04    0.22      19.0  T
     SCC iter.                  ...        0 min,  0.379 sec
     gradient                   ...        0 min,  0.139 sec
 * total energy  :  -355.3235354 Eh     change       -0.1240423E-02 Eh
   gradient norm :     0.0173989 Eh/α   predicted     0.0000000E+00 (-100.00%)
   displ. norm   :     0.1871991 α      lambda       -0.8456089E-03
   maximum displ.:     0.0605366 α      in ANC's #50, #43, #32, ...

........................................................................
.............................. CYCLE   22 ..............................
........................................................................
   1   -360.6924106 -0.360692E+03  0.608E-02    0.22       0.0  T
   2   -360.6924187 -0.815612E-05  0.337E-02    0.22       1.0  T
   3   -360.6923957  0.230284E-04  0.111E-02    0.22       1.0  T
   4   -360.6924223 -0.265991E-04  0.301E-03    0.22       2.3  T
   5   -360.6924226 -0.315248E-06  0.249E-03    0.22       2.8  T
   6   -360.6924236 -0.987868E-06  0.960E-04    0.22       7.3  T
   7   -360.6924238 -0.153632E-06  0.393E-04    0.22      17.9  T
     SCC iter.                  ...        0 min,  0.298 sec
     gradient                   ...        0 min,  0.139 sec
 * total energy  :  -355.3240536 Eh     change       -0.5182161E-03 Eh
   gradient norm :     0.0074521 Eh/α   predicted    -0.4376793E-03 ( -15.54%)
   displ. norm   :     0.4468578 α      lambda       -0.1436124E-02
   maximum displ.:     0.1361880 α      in ANC's #50, #37, #53, ...

........................................................................
.............................. CYCLE   23 ..............................
........................................................................
   1   -360.7060377 -0.360706E+03  0.110E-01    0.21       0.0  T
   2   -360.7060599 -0.221411E-04  0.610E-02    0.23       1.0  T
   3   -360.7056126  0.447280E-03  0.471E-02    0.18       1.0  T
   4   -360.7060531 -0.440500E-03  0.131E-02    0.24       1.0  T
   5   -360.7060819 -0.288400E-04  0.502E-03    0.22       1.4  T
   6   -360.7060837 -0.172981E-05  0.239E-03    0.22       2.9  T
   7   -360.7060849 -0.119835E-05  0.986E-04    0.22       7.1  T
   8   -360.7060850 -0.145160E-06  0.574E-04    0.22      12.3  T
   9   -360.7060850 -0.240365E-07  0.365E-04    0.22      19.3  T
     SCC iter.                  ...        0 min,  0.371 sec
     gradient                   ...        0 min,  0.139 sec
 * total energy  :  -355.3244194 Eh     change       -0.3658152E-03 Eh
   gradient norm :     0.0277785 Eh/α   predicted    -0.8614474E-03 ( 135.49%)
   displ. norm   :     0.2821543 α      lambda       -0.1208551E-02
   maximum displ.:     0.0962306 α      in ANC's #50, #32, #53, ...

........................................................................
.............................. CYCLE   24 ..............................
........................................................................
   1   -360.7024546 -0.360702E+03  0.727E-02    0.22       0.0  T
   2   -360.7024684 -0.137159E-04  0.402E-02    0.22       1.0  T
   3   -360.7024039  0.644311E-04  0.193E-02    0.20       1.0  T
   4   -360.7024711 -0.672148E-04  0.579E-03    0.23       1.2  T
   5   -360.7024743 -0.314890E-05  0.342E-03    0.22       2.1  T
   6   -360.7024765 -0.216286E-05  0.127E-03    0.22       5.5  T
   7   -360.7024768 -0.310837E-06  0.542E-04    0.22      13.0  T
   8   -360.7024768 -0.496352E-07  0.257E-04    0.22      27.4  T
     SCC iter.                  ...        0 min,  0.335 sec
     gradient                   ...        0 min,  0.139 sec
 * total energy  :  -355.3252334 Eh     change       -0.8139994E-03 Eh
   gradient norm :     0.0157783 Eh/α   predicted    -0.6523836E-03 ( -19.85%)
   displ. norm   :     0.5373355 α      lambda       -0.2146223E-02
   maximum displ.:     0.1981437 α      in ANC's #50, #32, #53, ...

........................................................................
.............................. CYCLE   25 ..............................
........................................................................
   1   -360.6817218 -0.360682E+03  0.161E-01    0.21       0.0  T
   2   -360.6817833 -0.615813E-04  0.891E-02    0.22       1.0  T
   3   -360.6814179  0.365467E-03  0.409E-02    0.19       1.0  T
   4   -360.6817786 -0.360697E-03  0.148E-02    0.24       1.0  T
   5   -360.6818212 -0.426231E-04  0.547E-03    0.22       1.3  T
   6   -360.6818244 -0.317823E-05  0.224E-03    0.22       3.1  T
   7   -360.6818251 -0.727553E-06  0.868E-04    0.22       8.1  T
   8   -360.6818252 -0.676665E-07  0.422E-04    0.22      16.7  T
     SCC iter.                  ...        0 min,  0.338 sec
     gradient                   ...        0 min,  0.139 sec
 * total energy  :  -355.3255397 Eh     change       -0.3062417E-03 Eh
   gradient norm :     0.0309232 Eh/α   predicted    -0.1382951E-02 ( 351.59%)
   displ. norm   :     0.3608468 α      lambda       -0.2055522E-02
   maximum displ.:     0.1101233 α      in ANC's #50, #53, #32, ...

........................................................................
.............................. CYCLE   26 ..............................
........................................................................
   1   -360.6903039 -0.360690E+03  0.107E-01    0.22       0.0  T
   2   -360.6903305 -0.266241E-04  0.590E-02    0.22       1.0  T
   3   -360.6902498  0.807083E-04  0.215E-02    0.21       1.0  T
   4   -360.6903422 -0.923924E-04  0.562E-03    0.22       1.3  T
   5   -360.6903430 -0.793256E-06  0.419E-03    0.21       1.7  T
   6   -360.6903454 -0.243477E-05  0.188E-03    0.22       3.7  T
   7   -360.6903461 -0.748313E-06  0.746E-04    0.22       9.4  T
   8   -360.6903463 -0.117032E-06  0.294E-04    0.22      24.0  T
     SCC iter.                  ...        0 min,  0.338 sec
     gradient                   ...        0 min,  0.139 sec
 * total energy  :  -355.3268802 Eh     change       -0.1340517E-02 Eh
   gradient norm :     0.0139194 Eh/α   predicted    -0.1161591E-02 ( -13.35%)
   displ. norm   :     0.5866632 α      lambda       -0.1206059E-02
   maximum displ.:     0.1970163 α      in ANC's #50, #32, #53, ...

........................................................................
.............................. CYCLE   27 ..............................
........................................................................
   1   -360.6907268 -0.360691E+03  0.940E-02    0.21       0.0  T
   2   -360.6907444 -0.176424E-04  0.510E-02    0.23       1.0  T
   3   -360.6905037  0.240717E-03  0.369E-02    0.18       1.0  T
   4   -360.6907394 -0.235675E-03  0.108E-02    0.23       1.0  T
   5   -360.6907507 -0.113709E-04  0.558E-03    0.22       1.3  T
   6   -360.6907551 -0.438721E-05  0.273E-03    0.22       2.6  T
   7   -360.6907568 -0.171301E-05  0.740E-04    0.22       9.5  T
   8   -360.6907569 -0.863486E-07  0.332E-04    0.22      21.2  T
   9   -360.6907569 -0.104199E-07  0.208E-04    0.22      33.9  T
     SCC iter.                  ...        0 min,  0.379 sec
     gradient                   ...        0 min,  0.139 sec
 * total energy  :  -355.3278987 Eh     change       -0.1018459E-02 Eh
   gradient norm :     0.0103834 Eh/α   predicted    -0.8105780E-03 ( -20.41%)
   displ. norm   :     0.7233816 α      lambda       -0.1481792E-02
   maximum displ.:     0.2280291 α      in ANC's #50, #32, #53, ...

........................................................................
.............................. CYCLE   28 ..............................
........................................................................
   1   -360.6943648 -0.360694E+03  0.117E-01    0.21       0.0  T
   2   -360.6943945 -0.296422E-04  0.625E-02    0.23       1.0  T
   3   -360.6940756  0.318909E-03  0.408E-02    0.18       1.0  T
   4   -360.6943837 -0.308159E-03  0.138E-02    0.23       1.0  T
   5   -360.6944049 -0.211977E-04  0.680E-03    0.22       1.0  T
   6   -360.6944105 -0.557782E-05  0.362E-03    0.22       1.9  T
   7   -360.6944135 -0.299159E-05  0.942E-04    0.22       7.5  T
   8   -360.6944136 -0.133708E-06  0.428E-04    0.22      16.4  T
   9   -360.6944136 -0.198701E-07  0.248E-04    0.22      28.4  T
     SCC iter.                  ...        0 min,  0.370 sec
     gradient                   ...        0 min,  0.139 sec
 * total energy  :  -355.3291679 Eh     change       -0.1269253E-02 Eh
   gradient norm :     0.0111935 Eh/α   predicted    -0.1128607E-02 ( -11.08%)
   displ. norm   :     0.7808683 α      lambda       -0.1481490E-02
   maximum displ.:     0.2416109 α      in ANC's #50, #32, #53, ...

........................................................................
.............................. CYCLE   29 ..............................
........................................................................
   1   -360.6965596 -0.360697E+03  0.121E-01    0.21       0.0  T
   2   -360.6965976 -0.379898E-04  0.645E-02    0.22       1.0  T
   3   -360.6964929  0.104694E-03  0.281E-02    0.19       1.0  T
   4   -360.6965921 -0.992176E-04  0.120E-02    0.23       1.0  T
   5   -360.6965953 -0.315456E-05  0.860E-03    0.21       1.0  T
   6   -360.6966102 -0.148816E-04  0.343E-03    0.22       2.0  T
   7   -360.6966126 -0.242640E-05  0.876E-04    0.22       8.0  T
   8   -360.6966127 -0.119666E-06  0.418E-04    0.22      16.8  T
   9   -360.6966127 -0.191917E-07  0.279E-04    0.22      25.3  T
     SCC iter.                  ...        0 min,  0.367 sec
     gradient                   ...        0 min,  0.140 sec
 * total energy  :  -355.3304899 Eh     change       -0.1322017E-02 Eh
   gradient norm :     0.0119560 Eh/α   predicted    -0.1192422E-02 (  -9.80%)
   displ. norm   :     0.7612407 α      lambda       -0.1575942E-02
   maximum displ.:     0.2174822 α      in ANC's #53, #32, #50, ...

........................................................................
.............................. CYCLE   30 ..............................
........................................................................
   1   -360.7051588 -0.360705E+03  0.119E-01    0.21       0.0  T
   2   -360.7051916 -0.328064E-04  0.630E-02    0.23       1.0  T
   3   -360.7049640  0.227645E-03  0.362E-02    0.18       1.0  T
   4   -360.7051770 -0.212989E-03  0.140E-02    0.24       1.0  T
   5   -360.7051981 -0.211557E-04  0.808E-03    0.21       1.0  T
   6   -360.7052076 -0.942376E-05  0.378E-03    0.22       1.9  T
   7   -360.7052102 -0.267880E-05  0.845E-04    0.22       8.3  T
   8   -360.7052103 -0.775777E-07  0.511E-04    0.22      13.8  T
   9   -360.7052103 -0.308801E-07  0.306E-04    0.22      23.0  T
     SCC iter.                  ...        0 min,  0.374 sec
     gradient                   ...        0 min,  0.139 sec
 * total energy  :  -355.3317901 Eh     change       -0.1300219E-02 Eh
   gradient norm :     0.0081822 Eh/α   predicted    -0.1244597E-02 (  -4.28%)
   displ. norm   :     0.9027769 α      lambda       -0.1587417E-02
   maximum displ.:     0.2933320 α      in ANC's #50, #53, #32, ...

........................................................................
.............................. CYCLE   31 ..............................
........................................................................
   1   -360.6880148 -0.360688E+03  0.138E-01    0.21       0.0  T
   2   -360.6880578 -0.430656E-04  0.744E-02    0.23       1.0  T
   3   -360.6871305  0.927309E-03  0.652E-02    0.16       1.0  T
   4   -360.6880278 -0.897239E-03  0.190E-02    0.24       1.0  T
   5   -360.6880805 -0.527400E-04  0.932E-03    0.22       1.0  T
   6   -360.6880853 -0.475169E-05  0.548E-03    0.22       1.3  T
   7   -360.6880921 -0.683661E-05  0.137E-03    0.22       5.1  T
   8   -360.6880924 -0.279929E-06  0.600E-04    0.21      11.7  T
   9   -360.6880924 -0.472648E-07  0.352E-04    0.21      20.0  T
     SCC iter.                  ...        0 min,  0.372 sec
     gradient                   ...        0 min,  0.140 sec
 * total energy  :  -355.3328254 Eh     change       -0.1035225E-02 Eh
   gradient norm :     0.0166378 Eh/α   predicted    -0.1440589E-02 (  39.16%)
   displ. norm   :     0.5603720 α      lambda       -0.1244478E-02
   maximum displ.:     0.1513716 α      in ANC's #53, #5, #32, ...

........................................................................
.............................. CYCLE   32 ..............................
........................................................................
   1   -360.6949105 -0.360695E+03  0.872E-02    0.21       0.0  T
   2   -360.6949242 -0.137379E-04  0.462E-02    0.22       1.0  T
   3   -360.6947010  0.223210E-03  0.332E-02    0.18       1.0  T
   4   -360.6949162 -0.215266E-03  0.107E-02    0.23       1.0  T
   5   -360.6949326 -0.163275E-04  0.588E-03    0.21       1.2  T
   6   -360.6949373 -0.473186E-05  0.215E-03    0.21       3.3  T
   7   -360.6949382 -0.858852E-06  0.565E-04    0.21      12.4  T
   8   -360.6949382 -0.338737E-07  0.322E-04    0.21      21.8  T
     SCC iter.                  ...        0 min,  0.334 sec
     gradient                   ...        0 min,  0.139 sec
 * total energy  :  -355.3338646 Eh     change       -0.1039210E-02 Eh
   gradient norm :     0.0109569 Eh/α   predicted    -0.8176351E-03 ( -21.32%)
   displ. norm   :     0.6750775 α      lambda       -0.1335006E-02
   maximum displ.:     0.1925223 α      in ANC's #5, #32, #53, ...

........................................................................
.............................. CYCLE   33 ..............................
........................................................................
   1   -360.7044797 -0.360704E+03  0.105E-01    0.20       0.0  T
   2   -360.7044950 -0.153279E-04  0.557E-02    0.23       1.0  T
   3   -360.7038291  0.665935E-03  0.539E-02    0.16       1.0  T
   4   -360.7044868 -0.657691E-03  0.137E-02    0.23       1.0  T
   5   -360.7045150 -0.282047E-04  0.695E-03    0.22       1.0  T
   6   -360.7045193 -0.433975E-05  0.283E-03    0.22       2.5  T
   7   -360.7045213 -0.196619E-05  0.703E-04    0.21      10.0  T
   8   -360.7045213 -0.498988E-07  0.390E-04    0.21      18.1  T
   9   -360.7045214 -0.106313E-07  0.258E-04    0.21      27.3  T
     SCC iter.                  ...        0 min,  0.378 sec
     gradient                   ...        0 min,  0.139 sec
 * total energy  :  -355.3349358 Eh     change       -0.1071196E-02 Eh
   gradient norm :     0.0068214 Eh/α   predicted    -0.9717085E-03 (  -9.29%)
   displ. norm   :     0.8494314 α      lambda       -0.1228446E-02
   maximum displ.:     0.2338957 α      in ANC's #53, #32, #5, ...

........................................................................
.............................. CYCLE   34 ..............................
........................................................................
   1   -360.7005698 -0.360701E+03  0.128E-01    0.20       0.0  T
   2   -360.7005892 -0.194966E-04  0.674E-02    0.23       1.0  T
   3   -360.6989775  0.161173E-02  0.799E-02    0.15       1.0  T
   4   -360.7005838 -0.160628E-02  0.174E-02    0.23       1.0  T
   5   -360.7006215 -0.376754E-04  0.926E-03    0.22       1.0  T
   6   -360.7006301 -0.858195E-05  0.418E-03    0.22       1.7  T
   7   -360.7006341 -0.408665E-05  0.130E-03    0.21       5.4  T
   8   -360.7006343 -0.154820E-06  0.627E-04    0.21      11.2  T
   9   -360.7006343 -0.472652E-07  0.316E-04    0.21      22.3  T
     SCC iter.                  ...        0 min,  0.401 sec
     gradient                   ...        0 min,  0.139 sec
 * total energy  :  -355.3359507 Eh     change       -0.1014930E-02 Eh
   gradient norm :     0.0090447 Eh/α   predicted    -0.1057416E-02 (   4.19%)
   displ. norm   :     0.7447778 α      lambda       -0.1105053E-02
   maximum displ.:     0.2325806 α      in ANC's #5, #2, #32, ...

........................................................................
.............................. CYCLE   35 ..............................
........................................................................
   1   -360.7048246 -0.360705E+03  0.112E-01    0.20       0.0  T
   2   -360.7048258 -0.112391E-05  0.598E-02    0.23       1.0  T
   3   -360.7027192  0.210657E-02  0.880E-02    0.14       1.0  T
   4   -360.7048307 -0.211149E-02  0.167E-02    0.23       1.0  T
   5   -360.7048592 -0.285435E-04  0.990E-03    0.22       1.0  T
   6   -360.7048740 -0.147350E-04  0.425E-03    0.21       1.7  T
   7   -360.7048777 -0.368853E-05  0.172E-03    0.21       4.1  T
   8   -360.7048782 -0.537182E-06  0.805E-04    0.21       8.7  T
   9   -360.7048783 -0.689315E-07  0.445E-04    0.21      15.8  T
     SCC iter.                  ...        0 min,  0.382 sec
     gradient                   ...        0 min,  0.145 sec
 * total energy  :  -355.3367769 Eh     change       -0.8261901E-03 Eh
   gradient norm :     0.0095527 Eh/α   predicted    -0.8590153E-03 (   3.97%)
   displ. norm   :     0.7228184 α      lambda       -0.1054302E-02
   maximum displ.:     0.2385745 α      in ANC's #5, #2, #12, ...

........................................................................
.............................. CYCLE   36 ..............................
........................................................................
   1   -360.7060661 -0.360706E+03  0.110E-01    0.20       0.0  T
   2   -360.7060827 -0.165903E-04  0.568E-02    0.22       1.0  T
   3   -360.7052584  0.824272E-03  0.554E-02    0.16       1.0  T
   4   -360.7060727 -0.814259E-03  0.144E-02    0.23       1.0  T
   5   -360.7061064 -0.337197E-04  0.702E-03    0.21       1.0  T
   6   -360.7061109 -0.455267E-05  0.282E-03    0.21       2.5  T
   7   -360.7061130 -0.207852E-05  0.790E-04    0.21       8.9  T
   8   -360.7061131 -0.644960E-07  0.405E-04    0.21      17.4  T
   9   -360.7061131 -0.102804E-07  0.269E-04    0.21      26.2  T
     SCC iter.                  ...        0 min,  0.384 sec
     gradient                   ...        0 min,  0.145 sec
 * total energy  :  -355.3375395 Eh     change       -0.7626575E-03 Eh
   gradient norm :     0.0100403 Eh/α   predicted    -0.8025762E-03 (   5.23%)
   displ. norm   :     0.7062025 α      lambda       -0.9205422E-03
   maximum displ.:     0.2329713 α      in ANC's #5, #2, #12, ...

........................................................................
.............................. CYCLE   37 ..............................
........................................................................
   1   -360.7014348 -0.360701E+03  0.108E-01    0.20       0.0  T
   2   -360.7014558 -0.209960E-04  0.562E-02    0.22       1.0  T
   3   -360.7009035  0.552268E-03  0.451E-02    0.16       1.0  T
   4   -360.7014308 -0.527330E-03  0.148E-02    0.23       1.0  T
   5   -360.7014737 -0.428408E-04  0.692E-03    0.21       1.0  T
   6   -360.7014787 -0.504512E-05  0.285E-03    0.21       2.5  T
   7   -360.7014806 -0.192460E-05  0.855E-04    0.21       8.2  T
   8   -360.7014808 -0.128663E-06  0.420E-04    0.21      16.7  T
   9   -360.7014808 -0.228671E-07  0.258E-04    0.21      27.2  T
     SCC iter.                  ...        0 min,  0.390 sec
     gradient                   ...        0 min,  0.145 sec
 * total energy  :  -355.3381442 Eh     change       -0.6046609E-03 Eh
   gradient norm :     0.0150164 Eh/α   predicted    -0.6898199E-03 (  14.08%)
   displ. norm   :     0.6021035 α      lambda       -0.9834323E-03
   maximum displ.:     0.2230492 α      in ANC's #5, #2, #12, ...

........................................................................
.............................. CYCLE   38 ..............................
........................................................................
   1   -360.7066712 -0.360707E+03  0.828E-02    0.20       0.0  T
   2   -360.7066835 -0.123013E-04  0.427E-02    0.21       1.0  T
   3   -360.7064955  0.188003E-03  0.259E-02    0.18       1.0  T
   4   -360.7066706 -0.175088E-03  0.106E-02    0.22       1.0  T
   5   -360.7066919 -0.213785E-04  0.491E-03    0.21       1.4  T
   6   -360.7066949 -0.300270E-05  0.204E-03    0.21       3.5  T
   7   -360.7066959 -0.978579E-06  0.626E-04    0.21      11.2  T
   8   -360.7066960 -0.720565E-07  0.314E-04    0.21      22.4  T
     SCC iter.                  ...        0 min,  0.348 sec
     gradient                   ...        0 min,  0.145 sec
 * total energy  :  -355.3389021 Eh     change       -0.7579051E-03 Eh
   gradient norm :     0.0101844 Eh/α   predicted    -0.6699785E-03 ( -11.60%)
   displ. norm   :     0.6956463 α      lambda       -0.9769989E-03
   maximum displ.:     0.2677365 α      in ANC's #5, #2, #12, ...

........................................................................
.............................. CYCLE   39 ..............................
........................................................................
   1   -360.7160167 -0.360716E+03  0.102E-01    0.20       0.0  T
   2   -360.7160357 -0.189241E-04  0.528E-02    0.21       1.0  T
   3   -360.7157815  0.254217E-03  0.299E-02    0.18       1.0  T
   4   -360.7160161 -0.234677E-03  0.126E-02    0.22       1.0  T
   5   -360.7160481 -0.319540E-04  0.565E-03    0.21       1.2  T
   6   -360.7160519 -0.379992E-05  0.229E-03    0.21       3.1  T
   7   -360.7160531 -0.121070E-05  0.716E-04    0.21       9.8  T
   8   -360.7160532 -0.813932E-07  0.350E-04    0.21      20.1  T
   9   -360.7160532 -0.868556E-08  0.223E-04    0.21      31.5  T
     SCC iter.                  ...        0 min,  0.400 sec
     gradient                   ...        0 min,  0.145 sec
 * total energy  :  -355.3394848 Eh     change       -0.5827033E-03 Eh
   gradient norm :     0.0144772 Eh/α   predicted    -0.7249006E-03 (  24.40%)
   displ. norm   :     0.7000943 α      lambda       -0.1188920E-02
   maximum displ.:     0.2471755 α      in ANC's #5, #2, #12, ...

........................................................................
.............................. CYCLE   40 ..............................
........................................................................
   1   -360.7030108 -0.360703E+03  0.105E-01    0.20       0.0  T
   2   -360.7030414 -0.306290E-04  0.534E-02    0.21       1.0  T
   3   -360.7029857  0.556831E-04  0.180E-02    0.19       1.0  T
   4   -360.7030214 -0.356711E-04  0.113E-02    0.22       1.0  T
   5   -360.7030397 -0.183456E-04  0.680E-03    0.20       1.0  T
   6   -360.7030505 -0.107573E-04  0.283E-03    0.21       2.5  T
   7   -360.7030526 -0.211452E-05  0.813E-04    0.21       8.7  T
   8   -360.7030527 -0.107645E-06  0.386E-04    0.21      18.2  T
   9   -360.7030527 -0.681257E-08  0.230E-04    0.21      30.6  T
     SCC iter.                  ...        0 min,  0.394 sec
     gradient                   ...        0 min,  0.145 sec
 * total energy  :  -355.3400046 Eh     change       -0.5197504E-03 Eh
   gradient norm :     0.0192292 Eh/α   predicted    -0.8858263E-03 (  70.43%)
   displ. norm   :     0.4264706 α      lambda       -0.1196932E-02
   maximum displ.:     0.1742722 α      in ANC's #5, #2, #12, ...

........................................................................
.............................. CYCLE   41 ..............................
........................................................................
   1   -360.7110806 -0.360711E+03  0.683E-02    0.21       0.0  T
   2   -360.7110950 -0.144395E-04  0.362E-02    0.20       1.0  T
   3   -360.7110484  0.466403E-04  0.145E-02    0.22       1.0  T
   4   -360.7110821 -0.336558E-04  0.839E-03    0.20       1.0  T
   5   -360.7110965 -0.144363E-04  0.478E-03    0.21       1.5  T
   6   -360.7111017 -0.522711E-05  0.166E-03    0.20       4.2  T
   7   -360.7111023 -0.556015E-06  0.628E-04    0.20      11.2  T
   8   -360.7111023 -0.752793E-07  0.301E-04    0.20      23.4  T
     SCC iter.                  ...        0 min,  0.346 sec
     gradient                   ...        0 min,  0.139 sec
 * total energy  :  -355.3404351 Eh     change       -0.4305355E-03 Eh
   gradient norm :     0.0212821 Eh/α   predicted    -0.7073178E-03 (  64.29%)
   displ. norm   :     0.4746760 α      lambda       -0.1295667E-02
   maximum displ.:     0.1816143 α      in ANC's #5, #2, #12, ...

........................................................................
.............................. CYCLE   42 ..............................
........................................................................
   1   -360.7081127 -0.360708E+03  0.771E-02    0.21       0.0  T
   2   -360.7081267 -0.140361E-04  0.403E-02    0.20       1.0  T
   3   -360.7080332  0.934659E-04  0.191E-02    0.23       1.0  T
   4   -360.7081204 -0.871746E-04  0.822E-03    0.20       1.0  T
   5   -360.7081308 -0.104450E-04  0.519E-03    0.21       1.4  T
   6   -360.7081370 -0.616165E-05  0.167E-03    0.21       4.2  T
   7   -360.7081375 -0.474124E-06  0.685E-04    0.21      10.3  T
   8   -360.7081376 -0.946059E-07  0.340E-04    0.21      20.7  T
     SCC iter.                  ...        0 min,  0.332 sec
     gradient                   ...        0 min,  0.138 sec
 * total energy  :  -355.3409792 Eh     change       -0.5441011E-03 Eh
   gradient norm :     0.0167005 Eh/α   predicted    -0.7938067E-03 (  45.89%)
   displ. norm   :     0.4832255 α      lambda       -0.1227522E-02
   maximum displ.:     0.1937958 α      in ANC's #5, #2, #12, ...
 * RMSD in coord.:     0.8389163 α      energy gain  -0.1868422E-01 Eh

generating ANC from model Hessian ...
Using Lindh-Hessian (1995)
 Shifting diagonal of input Hessian by   1.006903437644620E-002
 Lowest  eigenvalues of input Hessian
    0.010000    0.010041    0.010052    0.010065    0.000000    0.000000
    0.000000    0.000000    0.000000    0.000000    0.010083    0.010099
    0.010104    0.010120    0.010142    0.010155    0.010188    0.010195
 Highest eigenvalues
    2.299899    2.309911    2.595229    2.608590    2.657113    2.661416
 

........................................................................
.............................. CYCLE   43 ..............................
........................................................................
   1   -360.7258976 -0.360726E+03  0.740E-02    0.21       0.0  T
   2   -360.7259157 -0.180835E-04  0.397E-02    0.21       1.0  T
   3   -360.7258920  0.236189E-04  0.133E-02    0.21       1.0  T
   4   -360.7259159 -0.239052E-04  0.635E-03    0.20       1.1  T
   5   -360.7259174 -0.151007E-05  0.437E-03    0.21       1.6  T
   6   -360.7259209 -0.344116E-05  0.245E-03    0.20       2.9  T
   7   -360.7259227 -0.179210E-05  0.610E-04    0.21      11.5  T
   8   -360.7259227 -0.456383E-07  0.353E-04    0.21      19.9  T
   9   -360.7259227 -0.623010E-08  0.214E-04    0.21      32.8  T
     SCC iter.                  ...        0 min,  0.376 sec
     gradient                   ...        0 min,  0.139 sec
 * total energy  :  -355.3409670 Eh     change        0.1221542E-04 Eh
   gradient norm :     0.0271389 Eh/α   predicted     0.0000000E+00 (-100.00%)
   displ. norm   :     0.1538417 α      lambda       -0.1549311E-02
   maximum displ.:     0.0497701 α      in ANC's #63, #54, #5, ...

........................................................................
.............................. CYCLE   44 ..............................
........................................................................
   1   -360.7152736 -0.360715E+03  0.451E-02    0.21       0.0  T
   2   -360.7152814 -0.778063E-05  0.249E-02    0.21       1.0  T
   3   -360.7152633  0.180878E-04  0.985E-03    0.20       1.0  T
   4   -360.7152774 -0.140992E-04  0.510E-03    0.21       1.4  T
   5   -360.7152833 -0.585171E-05  0.258E-03    0.20       2.7  T
   6   -360.7152843 -0.103255E-05  0.147E-03    0.21       4.8  T
   7   -360.7152848 -0.491093E-06  0.479E-04    0.21      14.7  T
   8   -360.7152848 -0.449969E-07  0.227E-04    0.21      31.0  T
     SCC iter.                  ...        0 min,  0.334 sec
     gradient                   ...        0 min,  0.139 sec
 * total energy  :  -355.3419479 Eh     change       -0.9809143E-03 Eh
   gradient norm :     0.0074028 Eh/α   predicted    -0.7930016E-03 ( -19.16%)
   displ. norm   :     0.2256578 α      lambda       -0.6273121E-03
   maximum displ.:     0.0832726 α      in ANC's #63, #5, #61, ...

........................................................................
.............................. CYCLE   45 ..............................
........................................................................
   1   -360.7101912 -0.360710E+03  0.676E-02    0.21       0.0  T
   2   -360.7101990 -0.777014E-05  0.368E-02    0.20       1.0  T
   3   -360.7100920  0.106972E-03  0.187E-02    0.23       1.0  T
   4   -360.7102047 -0.112680E-03  0.478E-03    0.20       1.5  T
   5   -360.7102076 -0.297705E-05  0.303E-03    0.21       2.3  T
   6   -360.7102094 -0.172843E-05  0.106E-03    0.21       6.6  T
   7   -360.7102096 -0.212944E-06  0.380E-04    0.21      18.5  T
   8   -360.7102096 -0.151263E-07  0.224E-04    0.21      31.4  T
     SCC iter.                  ...        0 min,  0.334 sec
     gradient                   ...        0 min,  0.139 sec
 * total energy  :  -355.3422297 Eh     change       -0.2817541E-03 Eh
   gradient norm :     0.0079243 Eh/α   predicted    -0.3296277E-03 (  16.99%)
   displ. norm   :     0.2638271 α      lambda       -0.5319856E-03
   maximum displ.:     0.0917914 α      in ANC's #63, #5, #54, ...

........................................................................
.............................. CYCLE   46 ..............................
........................................................................
   1   -360.7085331 -0.360709E+03  0.644E-02    0.21       0.0  T
   2   -360.7085435 -0.104200E-04  0.338E-02    0.21       1.0  T
   3   -360.7085267  0.168309E-04  0.887E-03    0.20       1.0  T
   4   -360.7085370 -0.103263E-04  0.618E-03    0.21       1.1  T
   5   -360.7085459 -0.887534E-05  0.285E-03    0.20       2.5  T
   6   -360.7085476 -0.174926E-05  0.914E-04    0.21       7.7  T
   7   -360.7085478 -0.196156E-06  0.340E-04    0.21      20.7  T
   8   -360.7085478 -0.154400E-07  0.176E-04    0.21      40.1  T
     SCC iter.                  ...        0 min,  0.337 sec
     gradient                   ...        0 min,  0.140 sec
 * total energy  :  -355.3425687 Eh     change       -0.3390916E-03 Eh
   gradient norm :     0.0117612 Eh/α   predicted    -0.2845165E-03 ( -16.09%)
   displ. norm   :     0.3574095 α      lambda       -0.5867676E-03
   maximum displ.:     0.1162350 α      in ANC's #5, #63, #42, ...

........................................................................
.............................. CYCLE   47 ..............................
........................................................................
   1   -360.7085287 -0.360709E+03  0.687E-02    0.21       0.0  T
   2   -360.7085410 -0.122644E-04  0.347E-02    0.20       1.0  T
   3   -360.7085337  0.733491E-05  0.854E-03    0.21       1.0  T
   4   -360.7085406 -0.690401E-05  0.507E-03    0.20       1.4  T
   5   -360.7085401  0.446441E-06  0.394E-03    0.21       1.8  T
   6   -360.7085448 -0.466153E-05  0.104E-03    0.20       6.8  T
   7   -360.7085450 -0.255812E-06  0.486E-04    0.21      14.5  T
   8   -360.7085451 -0.549412E-07  0.210E-04    0.21      33.6  T
     SCC iter.                  ...        0 min,  0.334 sec
     gradient                   ...        0 min,  0.138 sec
 * total energy  :  -355.3430224 Eh     change       -0.4536306E-03 Eh
   gradient norm :     0.0105780 Eh/α   predicted    -0.3308632E-03 ( -27.06%)
   displ. norm   :     0.5818963 α      lambda       -0.9424753E-03
   maximum displ.:     0.1992856 α      in ANC's #5, #63, #11, ...

........................................................................
.............................. CYCLE   48 ..............................
........................................................................
   1   -360.7108639 -0.360711E+03  0.103E-01    0.20       0.0  T
   2   -360.7108941 -0.301787E-04  0.506E-02    0.20       1.0  T
   3   -360.7108855  0.856546E-05  0.119E-02    0.20       1.0  T
   4   -360.7108976 -0.121052E-04  0.687E-03    0.21       1.0  T
   5   -360.7108999 -0.229612E-05  0.340E-03    0.20       2.1  T
   6   -360.7109013 -0.138431E-05  0.205E-03    0.21       3.4  T
   7   -360.7109026 -0.131108E-05  0.649E-04    0.20      10.8  T
   8   -360.7109027 -0.943854E-07  0.303E-04    0.20      23.3  T
   9   -360.7109027 -0.578774E-08  0.197E-04    0.20      35.7  T
     SCC iter.                  ...        0 min,  0.376 sec
     gradient                   ...        0 min,  0.139 sec
 * total energy  :  -355.3436801 Eh     change       -0.6577668E-03 Eh
   gradient norm :     0.0088360 Eh/α   predicted    -0.6308001E-03 (  -4.10%)
   displ. norm   :     0.5447252 α      lambda       -0.7196842E-03
   maximum displ.:     0.2019982 α      in ANC's #5, #11, #22, ...

........................................................................
.............................. CYCLE   49 ..............................
........................................................................
   1   -360.7133616 -0.360713E+03  0.928E-02    0.21       0.0  T
   2   -360.7133852 -0.236320E-04  0.455E-02    0.20       1.0  T
   3   -360.7133635  0.217326E-04  0.126E-02    0.21       1.0  T
   4   -360.7133793 -0.158356E-04  0.802E-03    0.20       1.0  T
   5   -360.7133813 -0.198609E-05  0.630E-03    0.21       1.1  T
   6   -360.7133930 -0.116773E-04  0.139E-03    0.20       5.1  T
   7   -360.7133934 -0.349112E-06  0.719E-04    0.20       9.8  T
   8   -360.7133935 -0.120798E-06  0.309E-04    0.20      22.8  T
     SCC iter.                  ...        0 min,  0.333 sec
     gradient                   ...        0 min,  0.139 sec
 * total energy  :  -355.3441999 Eh     change       -0.5197456E-03 Eh
   gradient norm :     0.0095633 Eh/α   predicted    -0.4666171E-03 ( -10.22%)
   displ. norm   :     0.5626590 α      lambda       -0.7427786E-03
   maximum displ.:     0.2262026 α      in ANC's #5, #11, #22, ...

........................................................................
.............................. CYCLE   50 ..............................
........................................................................
   1   -360.7156500 -0.360716E+03  0.966E-02    0.20       0.0  T
   2   -360.7156754 -0.253688E-04  0.481E-02    0.20       1.0  T
   3   -360.7156403  0.351252E-04  0.140E-02    0.21       1.0  T
   4   -360.7156620 -0.217828E-04  0.928E-03    0.20       1.0  T
   5   -360.7156723 -0.102845E-04  0.675E-03    0.21       1.0  T
   6   -360.7156848 -0.124511E-04  0.139E-03    0.20       5.1  T
   7   -360.7156851 -0.345888E-06  0.693E-04    0.20      10.2  T
   8   -360.7156852 -0.972166E-07  0.305E-04    0.20      23.1  T
     SCC iter.                  ...        0 min,  0.338 sec
     gradient                   ...        0 min,  0.139 sec
 * total energy  :  -355.3447219 Eh     change       -0.5220153E-03 Eh
   gradient norm :     0.0084797 Eh/α   predicted    -0.4889675E-03 (  -6.33%)
   displ. norm   :     0.6212739 α      lambda       -0.6948216E-03
   maximum displ.:     0.2557284 α      in ANC's #5, #11, #22, ...

........................................................................
.............................. CYCLE   51 ..............................
........................................................................
   1   -360.7145498 -0.360715E+03  0.964E-02    0.20       0.0  T
   2   -360.7145718 -0.219719E-04  0.463E-02    0.21       1.0  T
   3   -360.7143929  0.178943E-03  0.249E-02    0.18       1.0  T
   4   -360.7145558 -0.162902E-03  0.111E-02    0.22       1.0  T
   5   -360.7145820 -0.262338E-04  0.500E-03    0.20       1.4  T
   6   -360.7145852 -0.320190E-05  0.183E-03    0.20       3.9  T
   7   -360.7145860 -0.767018E-06  0.715E-04    0.20       9.8  T
   8   -360.7145861 -0.109613E-06  0.304E-04    0.20      23.1  T
     SCC iter.                  ...        0 min,  0.331 sec
     gradient                   ...        0 min,  0.139 sec
 * total energy  :  -355.3453053 Eh     change       -0.5833550E-03 Eh
   gradient norm :     0.0067795 Eh/α   predicted    -0.4815081E-03 ( -17.46%)
   displ. norm   :     0.6499344 α      lambda       -0.8240954E-03
   maximum displ.:     0.2867567 α      in ANC's #5, #11, #22, ...

........................................................................
.............................. CYCLE   52 ..............................
........................................................................
   1   -360.7221053 -0.360722E+03  0.988E-02    0.19       0.0  T
   2   -360.7221156 -0.102766E-04  0.482E-02    0.21       1.0  T
   3   -360.7211988  0.916843E-03  0.524E-02    0.15       1.0  T
   4   -360.7221101 -0.911326E-03  0.135E-02    0.22       1.0  T
   5   -360.7221419 -0.317862E-04  0.696E-03    0.21       1.0  T
   6   -360.7221478 -0.593660E-05  0.332E-03    0.20       2.1  T
   7   -360.7221508 -0.300378E-05  0.102E-03    0.20       6.9  T
   8   -360.7221511 -0.230413E-06  0.401E-04    0.20      17.6  T
   9   -360.7221511 -0.149809E-07  0.247E-04    0.20      28.5  T
     SCC iter.                  ...        0 min,  0.381 sec
     gradient                   ...        0 min,  0.139 sec
 * total energy  :  -355.3458552 Eh     change       -0.5499375E-03 Eh
   gradient norm :     0.0116419 Eh/α   predicted    -0.5861049E-03 (   6.58%)
   displ. norm   :     0.7536363 α      lambda       -0.9419063E-03
   maximum displ.:     0.3124405 α      in ANC's #5, #11, #22, ...

........................................................................
.............................. CYCLE   53 ..............................
........................................................................
   1   -360.7098462 -0.360710E+03  0.122E-01    0.19       0.0  T
   2   -360.7098797 -0.335547E-04  0.585E-02    0.21       1.0  T
   3   -360.7095117  0.368065E-03  0.351E-02    0.17       1.0  T
   4   -360.7098557 -0.344047E-03  0.141E-02    0.22       1.0  T
   5   -360.7098948 -0.390492E-04  0.663E-03    0.20       1.1  T
   6   -360.7099001 -0.534369E-05  0.303E-03    0.20       2.3  T
   7   -360.7099027 -0.258215E-05  0.951E-04    0.20       7.4  T
   8   -360.7099029 -0.178430E-06  0.428E-04    0.20      16.4  T
   9   -360.7099029 -0.122141E-07  0.273E-04    0.20      25.8  T
     SCC iter.                  ...        0 min,  0.394 sec
     gradient                   ...        0 min,  0.145 sec
 * total energy  :  -355.3464190 Eh     change       -0.5637690E-03 Eh
   gradient norm :     0.0114115 Eh/α   predicted    -0.7384433E-03 (  30.98%)
   displ. norm   :     0.5006804 α      lambda       -0.6318094E-03
   maximum displ.:     0.2282626 α      in ANC's #5, #22, #13, ...

........................................................................
.............................. CYCLE   54 ..............................
........................................................................
   1   -360.7123667 -0.360712E+03  0.714E-02    0.20       0.0  T
   2   -360.7123788 -0.120444E-04  0.339E-02    0.20       1.0  T
   3   -360.7122581  0.120693E-03  0.203E-02    0.18       1.0  T
   4   -360.7123673 -0.109266E-03  0.883E-03    0.21       1.0  T
   5   -360.7123853 -0.179474E-04  0.387E-03    0.20       1.8  T
   6   -360.7123873 -0.206063E-05  0.137E-03    0.20       5.1  T
   7   -360.7123878 -0.424224E-06  0.533E-04    0.20      13.2  T
   8   -360.7123878 -0.547797E-07  0.256E-04    0.20      27.4  T
[...]
   128   6 C    3.958 --   127 C    1.452   131 C    1.111   129 C    1.103
   129   6 C    3.946 --   130 N    2.754   128 C    1.103
   130   7 N    2.970 --   129 C    2.754
   131   6 C    3.943 --   132 N    2.737   128 C    1.111
   132   7 N    2.967 --   131 C    2.737
   133   1 H    0.986 --     1 C    0.935
   134   1 H    0.992 --     7 C    0.961
   135   1 H    0.996 --    26 C    0.971
   136   1 H    0.996 --    26 C    0.966
   137   1 H    0.997 --    27 C    0.985
   138   1 H    0.998 --    27 C    0.980
   139   1 H    0.999 --    27 C    0.984
   140   1 H    0.997 --    31 C    0.970
   141   1 H    0.996 --    31 C    0.968
   142   1 H    0.999 --    32 C    0.987
   143   1 H    0.997 --    32 C    0.987
   144   1 H    0.996 --    32 C    0.984
   145   1 H    0.998 --    37 C    0.967
   146   1 H    0.997 --    38 C    0.967
   147   1 H    0.997 --    41 C    0.984
   148   1 H    0.992 --    41 C    0.973
   149   1 H    0.996 --    41 C    0.975
   150   1 H    0.998 --    42 C    0.965
   151   1 H    0.999 --    43 C    0.963
   152   1 H    0.998 --    45 C    0.967
   153   1 H    0.998 --    46 C    0.966
   154   1 H    0.995 --    49 C    0.979
   155   1 H    0.997 --    49 C    0.983
   156   1 H    0.996 --    49 C    0.983
   157   1 H    0.997 --    50 C    0.967
   158   1 H    0.998 --    51 C    0.965
   159   1 H    0.998 --    58 C    0.964
   160   1 H    0.998 --    59 C    0.965
   161   1 H    0.997 --    62 C    0.983
   162   1 H    0.997 --    62 C    0.983
   163   1 H    0.996 --    62 C    0.980
   164   1 H    0.998 --    63 C    0.965
   165   1 H    0.998 --    64 C    0.960
   166   1 H    0.998 --    66 C    0.965
   167   1 H    0.998 --    67 C    0.965
   168   1 H    0.996 --    70 C    0.982
   169   1 H    0.997 --    70 C    0.983
   170   1 H    0.996 --    70 C    0.979
   171   1 H    0.998 --    71 C    0.966
   172   1 H    0.999 --    72 C    0.963
   173   1 H    0.998 --    79 C    0.967
   174   1 H    0.998 --    80 C    0.965
   175   1 H    0.995 --    83 C    0.979
   176   1 H    0.995 --    83 C    0.978
   177   1 H    0.997 --    83 C    0.982
   178   1 H    0.998 --    84 C    0.964
   179   1 H    0.999 --    85 C    0.967
   180   1 H    0.999 --    87 C    0.966
   181   1 H    0.997 --    88 C    0.962
   182   1 H    0.996 --    91 C    0.978
   183   1 H    0.994 --    91 C    0.973
   184   1 H    0.996 --    91 C    0.978
   185   1 H    0.997 --    92 C    0.967
   186   1 H    0.998 --    93 C    0.966
   187   1 H    0.996 --   100 C    0.959
   188   1 H    0.997 --   101 C    0.967
   189   1 H    0.995 --   104 C    0.979
   190   1 H    0.996 --   104 C    0.982
   191   1 H    0.996 --   104 C    0.981
   192   1 H    0.997 --   105 C    0.964
   193   1 H    0.998 --   106 C    0.967
   194   1 H    0.998 --   108 C    0.967
   195   1 H    0.996 --   109 C    0.955
   196   1 H    0.996 --   112 C    0.981
   197   1 H    0.995 --   112 C    0.978
   198   1 H    0.995 --   112 C    0.977
   199   1 H    0.997 --   113 C    0.967
   200   1 H    0.998 --   114 C    0.966
   201   1 H    0.992 --   117 C    0.941
   202   1 H    0.993 --   123 C    0.962
 ---------------------------------------------------------------------------

Topologies differ in bond orders
Writing corrected topology to xtbtopo.mol

molecular dipole:
                 x           y           z       tot (Debye)
 q only:       -0.106       0.317      -0.496
   full:        0.166       0.871      -0.521       2.614
molecular quadrupole (traceless):
                xx          xy          yy          xz          yz          zz
 q only:      -16.007      78.267      -2.805     -31.158       8.016      18.812
  q+dip:      -58.760      76.550      25.058     -40.260     -33.197      33.702
   full:      -68.890      75.447      31.899     -42.393     -28.879      36.991

           -------------------------------------------------
          |                Geometry Summary                 |
           -------------------------------------------------

      molecular mass/u    :     2025.5264615
   center of mass at/Å    :       -0.0598335      -0.3732236      -0.0373534
  moments of inertia/u·Å² :        0.3853363E+05   0.1132350E+06   0.1181882E+06
rotational constants/cm⁻¹ :        0.4374784E-03   0.1488730E-03   0.1426338E-03

 * 184 selected distances

     #   Z          #   Z                                           value/Å
     1   6 C        2   6 C                                       1.3570217
     3   6 C        4   8 O                                       1.2083923
     5   6 C        6   6 C                                       1.4340697
     6   6 C        7   6 C                                       1.3583375
     7   6 C        8  16 S                                       1.7276358
     5   6 C        9   6 C                                       1.3625619
     8  16 S        9   6 C                                       1.7478578
     9   6 C       10  17 Cl                                      1.6941264
     6   6 C       11   6 C                                       1.4509456
    11   6 C       12   6 C                                       1.3698544
    13   6 C       14   7 N                                       1.1472078
    15   6 C       16   7 N                                       1.1480712
     1   6 C       17   6 C                                       1.4289184
    17   6 C       18   6 C                                       1.3878182
    18   6 C       20   6 C                                       1.3960047
    20   6 C       22   6 C                                       1.3833655
    22   6 C       23   6 C                                       1.4261133
    23   6 C       24   7 N                                       1.3432337
    24   7 N       25   6 C                                       1.3112085
    26   6 C       27   6 C                                       1.5309066
    25   6 C       28   6 C                                       1.4231926
    28   6 C       29   7 N                                       1.3114289
    17   6 C       30   6 C                                       1.4286640
    23   6 C       30   6 C                                       1.4142732
    29   7 N       30   6 C                                       1.3418259
    31   6 C       32   6 C                                       1.5315504
    33   6 C       34   6 C                                       1.3868969
    34   6 C       35   7 N                                       1.3810934
    35   7 N       36   6 C                                       1.4014428
    36   6 C       37   6 C                                       1.3962750
    37   6 C       38   6 C                                       1.3762194
    38   6 C       39   6 C                                       1.3938879
    39   6 C       42   6 C                                       1.3886470
    36   6 C       43   6 C                                       1.3918749
    42   6 C       43   6 C                                       1.3808777
    35   7 N       44   6 C                                       1.4010978
    44   6 C       45   6 C                                       1.3925910
    45   6 C       46   6 C                                       1.3802359
    46   6 C       47   6 C                                       1.3892428
    47   6 C       50   6 C                                       1.3914144
    44   6 C       51   6 C                                       1.3965767
    50   6 C       51   6 C                                       1.3781380
    34   6 C       52   6 C                                       1.4177681
    52   6 C       53  16 S                                       1.7241688
    54   6 C       55   6 C                                       1.3746587
    55   6 C       56   7 N                                       1.3887751
    56   7 N       57   6 C                                       1.3955183
    57   6 C       58   6 C                                       1.3955582
    58   6 C       59   6 C                                       1.3776921
    59   6 C       60   6 C                                       1.3913448
    60   6 C       63   6 C                                       1.3876447
    57   6 C       64   6 C                                       1.3932502
    63   6 C       64   6 C                                       1.3794999
    56   7 N       65   6 C                                       1.4025044
    65   6 C       66   6 C                                       1.3919944
    66   6 C       67   6 C                                       1.3809386
    67   6 C       68   6 C                                       1.3877383
    68   6 C       71   6 C                                       1.3911674
    65   6 C       72   6 C                                       1.3953129
    71   6 C       72   6 C                                       1.3755673
    52   6 C       73   6 C                                       1.3823632
    55   6 C       73   6 C                                       1.4240852
    33   6 C       74  16 S                                       1.7536052
    73   6 C       74  16 S                                       1.7259645
    75   6 C       76   6 C                                       1.3795004
    76   6 C       77   7 N                                       1.3917620
    77   7 N       78   6 C                                       1.3981411
    78   6 C       79   6 C                                       1.3935954
    79   6 C       80   6 C                                       1.3814195
    80   6 C       81   6 C                                       1.3879513
    81   6 C       84   6 C                                       1.3919515
    78   6 C       85   6 C                                       1.3951994
    84   6 C       85   6 C                                       1.3764941
    77   7 N       86   6 C                                       1.4056496
    86   6 C       87   6 C                                       1.3923046
    87   6 C       88   6 C                                       1.3824548
    88   6 C       89   6 C                                       1.3886703
    89   6 C       92   6 C                                       1.3950354
    86   6 C       93   6 C                                       1.3953656
    92   6 C       93   6 C                                       1.3752518
    76   6 C       94   6 C                                       1.4145915
    94   6 C       95  16 S                                       1.7221165
    96   6 C       97   6 C                                       1.4056828
    97   6 C       98   7 N                                       1.3623470
    98   7 N       99   6 C                                       1.4160229
    99   6 C      100   6 C                                       1.3934318
   100   6 C      101   6 C                                       1.3763430
   101   6 C      102   6 C                                       1.3945745
   102   6 C      105   6 C                                       1.3888738
    99   6 C      106   6 C                                       1.3891365
   105   6 C      106   6 C                                       1.3815729
    98   7 N      107   6 C                                       1.4042413
   107   6 C      108   6 C                                       1.3912578
   108   6 C      109   6 C                                       1.3815321
   109   6 C      110   6 C                                       1.3887963
   110   6 C      113   6 C                                       1.3956076
   107   6 C      114   6 C                                       1.3956996
   113   6 C      114   6 C                                       1.3748058
    94   6 C      115   6 C                                       1.3862753
    97   6 C      115   6 C                                       1.4151272
    75   6 C      116  16 S                                       1.7576127 (max)
   115   6 C      116  16 S                                       1.7300379
    96   6 C      117   6 C                                       1.4032048
   117   6 C      118   6 C                                       1.3683838
   119   6 C      120   8 O                                       1.2113749
   121   6 C      122   6 C                                       1.4342259
   122   6 C      123   6 C                                       1.3574997
   123   6 C      124  16 S                                       1.7286498
   121   6 C      125   6 C                                       1.3603445
   124  16 S      125   6 C                                       1.7500537
   125   6 C      126  17 Cl                                      1.6952914
   127   6 C      128   6 C                                       1.3746055
   129   6 C      130   7 N                                       1.1483006
   131   6 C      132   7 N                                       1.1502302
     1   6 C      133   1 H                                       1.0845341
     7   6 C      134   1 H                                       1.0718273
    26   6 C      135   1 H                                       1.0905191
    26   6 C      136   1 H                                       1.0907329
    27   6 C      137   1 H                                       1.0872318
    27   6 C      138   1 H                                       1.0867742
    27   6 C      139   1 H                                       1.0878430
    31   6 C      140   1 H                                       1.0885877
    31   6 C      141   1 H                                       1.0912527
    32   6 C      142   1 H                                       1.0877946
    32   6 C      143   1 H                                       1.0868350
    32   6 C      144   1 H                                       1.0869490
    37   6 C      145   1 H                                       1.0797326
    38   6 C      146   1 H                                       1.0792002
    41   6 C      147   1 H                                       1.0866091
    41   6 C      148   1 H                                       1.0862897
    41   6 C      149   1 H                                       1.0861242
    42   6 C      150   1 H                                       1.0783023
    43   6 C      151   1 H                                       1.0791496
    45   6 C      152   1 H                                       1.0799412
    46   6 C      153   1 H                                       1.0784708
    49   6 C      154   1 H                                       1.0857299
    49   6 C      155   1 H                                       1.0860990
    49   6 C      156   1 H                                       1.0854744
    50   6 C      157   1 H                                       1.0790623
    51   6 C      158   1 H                                       1.0795333
    58   6 C      159   1 H                                       1.0794662
    59   6 C      160   1 H                                       1.0784563
    62   6 C      161   1 H                                       1.0864061
    62   6 C      162   1 H                                       1.0858532
    62   6 C      163   1 H                                       1.0857118
    63   6 C      164   1 H                                       1.0784378
    64   6 C      165   1 H                                       1.0775669
    66   6 C      166   1 H                                       1.0795666
    67   6 C      167   1 H                                       1.0779299
    70   6 C      168   1 H                                       1.0860424
    70   6 C      169   1 H                                       1.0863383
    70   6 C      170   1 H                                       1.0856140
    71   6 C      171   1 H                                       1.0795593
    72   6 C      172   1 H                                       1.0787384
    79   6 C      173   1 H                                       1.0800742
    80   6 C      174   1 H                                       1.0779049
    83   6 C      175   1 H                                       1.0855417
    83   6 C      176   1 H                                       1.0855172
    83   6 C      177   1 H                                       1.0859652
    84   6 C      178   1 H                                       1.0793603
    85   6 C      179   1 H                                       1.0802744
    87   6 C      180   1 H                                       1.0806148
    88   6 C      181   1 H                                       1.0773142
    91   6 C      182   1 H                                       1.0857125
    91   6 C      183   1 H                                       1.0858150
    91   6 C      184   1 H                                       1.0854724
    92   6 C      185   1 H                                       1.0792535
    93   6 C      186   1 H                                       1.0797322
   100   6 C      187   1 H                                       1.0795071
   101   6 C      188   1 H                                       1.0790729
   104   6 C      189   1 H                                       1.0855534
   104   6 C      190   1 H                                       1.0862553
   104   6 C      191   1 H                                       1.0858568
   105   6 C      192   1 H                                       1.0775498
   106   6 C      193   1 H                                       1.0801675
   108   6 C      194   1 H                                       1.0799244
   109   6 C      195   1 H                                       1.0771884
   112   6 C      196   1 H                                       1.0854988
   112   6 C      197   1 H                                       1.0855185
   112   6 C      198   1 H                                       1.0854738
   113   6 C      199   1 H                                       1.0789991
   114   6 C      200   1 H                                       1.0794886
   117   6 C      201   1 H                                       1.0847686
   123   6 C      202   1 H                                       1.0718090 (min)

 * 6 distinct bonds (by element types)

   Z      Z             #   av. dist./Å        max./Å        min./Å
   1 H    6 C          70     1.0826782     1.0912527     1.0718090
   6 C    6 C          80     1.3947478     1.5315504     1.3570217
   6 C    7 N          20     1.3325051     1.4160229     1.1472078
   6 C    8 O           2     1.2098836     1.2113749     1.2083923
   6 C   16 S          10     1.7367703     1.7576127     1.7221165
   6 C   17 Cl          2     1.6947089     1.6952914     1.6941264


optimized geometry written to: xtbopt.mol


           -------------------------------------------------
          | TOTAL ENERGY             -355.402284886092 Eh   |
          | GRADIENT NORM               0.000584766519 Eh/α |
          | HOMO-LUMO GAP               0.225811106245 eV   |
           -------------------------------------------------

------------------------------------------------------------------------
 * finished run on 2022/02/08 at 20:40:02.626     
------------------------------------------------------------------------
 total:
 * wall-time:     0 d,  0 h,  3 min,  2.987 sec
 *  cpu-time:     0 d,  0 h, 24 min, 23.427 sec
 * ratio c/w:     7.997 speedup
 SCF:
 * wall-time:     0 d,  0 h,  0 min,  0.954 sec
 *  cpu-time:     0 d,  0 h,  0 min,  7.621 sec
 * ratio c/w:     7.991 speedup
 ANC optimizer:
 * wall-time:     0 d,  0 h,  3 min,  1.881 sec
 *  cpu-time:     0 d,  0 h, 24 min, 14.949 sec
 * ratio c/w:     7.999 speedup

