      -----------------------------------------------------------      
     |                   =====================                   |     
     |                           x T B                           |     
     |                   =====================                   |     
     |                         S. Grimme                         |     
     |          Mulliken Center for Theoretical Chemistry        |     
     |                    University of Bonn                     |     
      -----------------------------------------------------------      

   * xtb version 6.4.1 (unknown) compiled by 'oda6@login1.crc.pitt.edu' on 2021-06-25

   xtb is free software: you can redistribute it and/or modify it under
   the terms of the GNU Lesser General Public License as published by
   the Free Software Foundation, either version 3 of the License, or
   (at your option) any later version.
   
   xtb is distributed in the hope that it will be useful,
   but WITHOUT ANY WARRANTY; without even the implied warranty of
   MERCHANTABILITY or FITNESS FOR A PARTICULAR PURPOSE.  See the
   GNU Lesser General Public License for more details.
   
   Cite this work as:
   * C. Bannwarth, E. Caldeweyher, S. Ehlert, A. Hansen, P. Pracht,
     J. Seibert, S. Spicher, S. Grimme, WIREs Comput. Mol. Sci., 2020, 11,
     e01493. DOI: 10.1002/wcms.1493
   
   for GFN2-xTB:
   * C. Bannwarth, S. Ehlert and S. Grimme., J. Chem. Theory Comput., 2019,
     15, 1652-1671. DOI: 10.1021/acs.jctc.8b01176
   for GFN1-xTB:
   * S. Grimme, C. Bannwarth, P. Shushkov, J. Chem. Theory Comput., 2017,
     13, 1989-2009. DOI: 10.1021/acs.jctc.7b00118
   for GFN0-xTB:
   * P. Pracht, E. Caldeweyher, S. Ehlert, S. Grimme, ChemRxiv, 2019, preprint.
     DOI: 10.26434/chemrxiv.8326202.v1
   for GFN-FF:
   * S. Spicher and S. Grimme, Angew. Chem. Int. Ed., 2020, 59, 15665-15673.
     DOI: 10.1002/anie.202004239
   
   for DFT-D4:
   * E. Caldeweyher, C. Bannwarth and S. Grimme, J. Chem. Phys., 2017,
     147, 034112. DOI: 10.1063/1.4993215
   * E. Caldeweyher, S. Ehlert, A. Hansen, H. Neugebauer, S. Spicher,
     C. Bannwarth and S. Grimme, J. Chem. Phys., 2019, 150, 154122.
     DOI: 10.1063/1.5090222
   * E. Caldeweyher, J.-M. Mewes, S. Ehlert and S. Grimme, Phys. Chem. Chem. Phys.
     2020, 22, 8499-8512. DOI: 10.1039/D0CP00502A
   
   for sTDA-xTB:
   * S. Grimme and C. Bannwarth, J. Chem. Phys., 2016, 145, 054103.
     DOI: 10.1063/1.4959605
   
   in the mass-spec context:
   * V. Asgeirsson, C. Bauer and S. Grimme, Chem. Sci., 2017, 8, 4879.
     DOI: 10.1039/c7sc00601b
   * J. Koopman and S. Grimme, ACS Omega 2019, 4, 12, 15120-15133.
     DOI: 10.1021/acsomega.9b02011
   
   for metadynamics refer to:
   * S. Grimme, J. Chem. Theory Comput., 2019, 155, 2847-2862
     DOI: 10.1021/acs.jctc.9b00143
   
   for SPH calculations refer to:
   * S. Spicher and S. Grimme, J. Chem. Theory Comput., 2021, 17, 1701-1714
     DOI: 10.1021/acs.jctc.0c01306
   
   with help from (in alphabetical order)
   P. Atkinson, C. Bannwarth, F. Bohle, G. Brandenburg, E. Caldeweyher
   M. Checinski, S. Dohm, S. Ehlert, S. Ehrlich, I. Gerasimov, J. Koopman
   C. Lavigne, S. Lehtola, F. März, M. Müller, F. Musil, H. Neugebauer
   J. Pisarek, C. Plett, P. Pracht, J. Seibert, P. Shushkov, S. Spicher
   M. Stahn, M. Steiner, T. Strunk, J. Stückrath, T. Rose, and J. Unsleber
   
 * started run on 2022/02/04 at 05:30:16.430     

           -------------------------------------------------
          |                Calculation Setup                |
           -------------------------------------------------

          program call               : /ihome/ghutchison/oda6/xtb/xtb-641/bin/xtb ../../FF_optimized/62_158_141_133_62.mol -opt
          hostname                   : smp-n57
          coordinate file            : ../../FF_optimized/62_158_141_133_62.mol
          omp threads                :                     8
          number of atoms            :                   122
          number of electrons        :                   442
          charge                     :                     0
          spin                       :                   0.0
          first test random number   :      0.46720194663488

   ID    Z sym.   atoms
    1    6 C      1-3, 5-9, 11, 13-15, 17, 19-26, 28, 29, 31-37, 39, 40, 42,
                  44, 45, 47, 48, 50, 52, 53, 55-57, 59-63, 67, 68, 72-75,
                  77-81, 83, 85-87, 89
    2    8 O      4, 54, 58, 76
    3   35 Br     10, 82
    4   17 Cl     12, 84
    5    7 N      16, 18, 64, 66, 69, 71, 88, 90
    6   16 S      27, 30, 38, 41, 43, 46, 65, 70
    7    9 F      49, 51
    8    1 H      91-122
########################################################################
[WARNING] Please study the warnings concerning your input carefully
-1- prog_main_parseArguments: the use of '-opt' is discouraged, please use '--opt' next time
########################################################################

           -------------------------------------------------
          |                 G F N 2 - x T B                 |
           -------------------------------------------------

        Reference                      10.1021/acs.jctc.8b01176
      * Hamiltonian:
        H0-scaling (s, p, d)           1.850000    2.230000    2.230000
        zeta-weighting                 0.500000
      * Dispersion:
        s8                             2.700000
        a1                             0.520000
        a2                             5.000000
        s9                             5.000000
      * Repulsion:
        kExp                           1.500000    1.000000
        rExp                           1.000000
      * Coulomb:
        alpha                          2.000000
        third order                    shell-resolved
        anisotropic                    true
        a3                             3.000000
        a5                             4.000000
        cn-shift                       1.200000
        cn-exp                         4.000000
        max-rad                        5.000000


          ...................................................
          :                      SETUP                      :
          :.................................................:
          :  # basis functions                 464          :
          :  # atomic orbitals                 452          :
          :  # shells                          224          :
          :  # electrons                       442          :
          :  max. iterations                   250          :
          :  Hamiltonian                  GFN2-xTB          :
          :  restarted?                      false          :
          :  GBSA solvation                  false          :
          :  PC potential                    false          :
          :  electronic temp.          300.0000000     K    :
          :  accuracy                    1.0000000          :
          :  -> integral cutoff          0.2500000E+02      :
          :  -> integral neglect         0.1000000E-07      :
          :  -> SCF convergence          0.1000000E-05 Eh   :
          :  -> wf. convergence          0.1000000E-03 e    :
          :  Broyden damping             0.4000000          :
          ...................................................

 iter      E             dE          RMSdq      gap      omega  full diag
   1   -248.1214608 -0.248121E+03  0.527E+00    1.33       0.0  T
   2   -248.2969232 -0.175462E+00  0.330E+00    0.91       1.0  T
   3   -248.0877927  0.209130E+00  0.221E+00    0.54       1.0  T
   4   -248.4746831 -0.386890E+00  0.801E-01    0.28       1.0  T
   5   -248.5334186 -0.587355E-01  0.288E-01    0.29       1.0  T
   6   -248.5351347 -0.171612E-02  0.166E-01    0.30       1.0  T
   7   -248.5358130 -0.678304E-03  0.115E-01    0.34       1.0  T
   8   -248.5364203 -0.607254E-03  0.864E-02    0.34       1.0  T
   9   -248.5365664 -0.146067E-03  0.723E-02    0.33       1.0  T
  10   -248.5368390 -0.272627E-03  0.471E-02    0.33       1.0  T
  11   -248.5369497 -0.110688E-03  0.293E-02    0.33       1.0  T
  12   -248.5369938 -0.441404E-04  0.158E-02    0.33       1.0  T
  13   -248.5370049 -0.111171E-04  0.804E-03    0.33       1.1  T
  14   -248.5370078 -0.288866E-05  0.407E-03    0.33       2.2  T
  15   -248.5370090 -0.117451E-05  0.212E-03    0.33       4.3  T
  16   -248.5370092 -0.166939E-06  0.136E-03    0.33       6.7  T
  17   -248.5370092 -0.690904E-07  0.699E-04    0.33      13.0  T
  18   -248.5370092 -0.126803E-07  0.412E-04    0.33      22.0  T

   *** convergence criteria satisfied after 18 iterations ***

         #    Occupation            Energy/Eh            Energy/eV
      -------------------------------------------------------------
         1        2.0000           -1.0800143             -29.3887
       ...           ...                  ...                  ...
       215        2.0000           -0.4036585             -10.9841
       216        2.0000           -0.3995419             -10.8721
       217        2.0000           -0.3981926             -10.8354
       218        2.0000           -0.3961065             -10.7786
       219        1.9999           -0.3734686             -10.1626
       220        1.9989           -0.3706517             -10.0859
       221        1.9970           -0.3696790             -10.0595 (HOMO)
       222        0.0041           -0.3576254              -9.7315 (LUMO)
       223        0.0000           -0.3524643              -9.5910
       224        0.0000           -0.3497498              -9.5172
       225                         -0.3435933              -9.3496
       226                         -0.3391256              -9.2281
       ...                                ...                  ...
       452                          1.0562347              28.7416
      -------------------------------------------------------------
                  HL-Gap            0.0120536 Eh            0.3280 eV
             Fermi-level           -0.3635018 Eh           -9.8914 eV

 SCC (total)                   0 d,  0 h,  0 min,  0.471 sec
 SCC setup                      ...        0 min,  0.001 sec (  0.203%)
 Dispersion                     ...        0 min,  0.006 sec (  1.364%)
 classical contributions        ...        0 min,  0.000 sec (  0.036%)
 integral evaluation            ...        0 min,  0.030 sec (  6.374%)
 iterations                     ...        0 min,  0.381 sec ( 80.794%)
 molecular gradient             ...        0 min,  0.051 sec ( 10.807%)
 printout                       ...        0 min,  0.002 sec (  0.402%)

         :::::::::::::::::::::::::::::::::::::::::::::::::::::
         ::                     SUMMARY                     ::
         :::::::::::::::::::::::::::::::::::::::::::::::::::::
         :: total energy            -245.413155197894 Eh    ::
         :: gradient norm              0.312126826581 Eh/a0 ::
         :: HOMO-LUMO gap              0.327994811215 eV    ::
         ::.................................................::
         :: SCC energy              -248.537009244799 Eh    ::
         :: -> isotropic ES            0.195460780724 Eh    ::
         :: -> anisotropic ES          0.013315293286 Eh    ::
         :: -> anisotropic XC          0.129744822231 Eh    ::
         :: -> dispersion             -0.210857245354 Eh    ::
         :: repulsion energy           3.119684283520 Eh    ::
         :: add. restraining           0.000000000000 Eh    ::
         :: total charge               0.000000000016 e     ::
         :::::::::::::::::::::::::::::::::::::::::::::::::::::

      ----------------------------------------------------------- 
     |                   =====================                   |
     |                        A N C O P T                        |
     |                   =====================                   |
     |               Approximate Normal Coordinate               |
     |                Rational Function Optimizer                |
      ----------------------------------------------------------- 

          ...................................................
          :                      SETUP                      :
          :.................................................:
          :   optimization level            normal          :
          :   max. optcycles                   366          :
          :   ANC micro-cycles                  20          :
          :   degrees of freedom               360          :
          :.................................................:
          :   RF solver                   davidson          :
          :   write xtbopt.log                true          :
          :   linear?                        false          :
          :   energy convergence         0.5000000E-05 Eh   :
          :   grad. convergence          0.1000000E-02 Eh/α :
          :   maximium RF displ.         1.0000000          :
          :   Hlow (freq-cutoff)         0.1000000E-01      :
          :   Hmax (freq-cutoff)         5.0000000          :
          :   S6 in model hess.         20.0000000          :
          ...................................................

generating ANC from model Hessian ...
Using Lindh-Hessian (1995)
 Shifting diagonal of input Hessian by   1.007435824869952E-002
 Lowest  eigenvalues of input Hessian
    0.010000    0.000000    0.000000    0.000000    0.000000    0.000000
    0.000000    0.010079    0.010096    0.010109    0.010116    0.010129
    0.010158    0.010173    0.010254    0.010275    0.010309    0.010336
 Highest eigenvalues
    2.126986    2.133518    2.494450    2.497920    2.550596    2.551436
 

........................................................................
.............................. CYCLE    1 ..............................
........................................................................
   1   -248.5370093 -0.248537E+03  0.248E-04    0.33       0.0  T
   2   -248.5370093 -0.404157E-10  0.206E-04    0.33      43.9  T
   3   -248.5370093 -0.197403E-08  0.154E-04    0.33      58.7  T
     SCC iter.                  ...        0 min,  0.066 sec
     gradient                   ...        0 min,  0.049 sec
 * total energy  :  -245.4131552 Eh     change       -0.7434494E-08 Eh
   gradient norm :     0.3121293 Eh/α   predicted     0.0000000E+00 (-100.00%)
   displ. norm   :     0.4347441 α      lambda       -0.9830082E-01
   maximum displ.:     0.1721000 α      in ANC's #235, #225, #218, ...

........................................................................
.............................. CYCLE    2 ..............................
........................................................................
   1   -248.7335403 -0.248734E+03  0.349E-01    0.37       0.0  T
   2   -248.7349456 -0.140536E-02  0.189E-01    0.36       1.0  T
   3   -248.7346872  0.258467E-03  0.102E-01    0.37       1.0  T
   4   -248.7352215 -0.534342E-03  0.504E-02    0.35       1.0  T
   5   -248.7353427 -0.121215E-03  0.256E-02    0.36       1.0  T
   6   -248.7353674 -0.247349E-04  0.152E-02    0.36       1.0  T
   7   -248.7353788 -0.113586E-04  0.978E-03    0.36       1.0  T
   8   -248.7353837 -0.488369E-05  0.699E-03    0.36       1.3  T
   9   -248.7353858 -0.208617E-05  0.458E-03    0.36       2.0  T
  10   -248.7353865 -0.765716E-06  0.269E-03    0.36       3.4  T
  11   -248.7353869 -0.390044E-06  0.145E-03    0.36       6.3  T
  12   -248.7353870 -0.342609E-07  0.833E-04    0.36      10.9  T
  13   -248.7353870 -0.443104E-07  0.431E-04    0.36      21.0  T
     SCC iter.                  ...        0 min,  0.262 sec
     gradient                   ...        0 min,  0.053 sec
 * total energy  :  -245.4861356 Eh     change       -0.7298035E-01 Eh
   gradient norm :     0.1631073 Eh/α   predicted    -0.5847322E-01 ( -19.88%)
   displ. norm   :     0.4210602 α      lambda       -0.4755178E-01
   maximum displ.:     0.1386743 α      in ANC's #235, #85, #225, ...

........................................................................
.............................. CYCLE    3 ..............................
........................................................................
   1   -248.8472436 -0.248847E+03  0.324E-01    0.39       0.0  T
   2   -248.8486181 -0.137453E-02  0.168E-01    0.39       1.0  T
   3   -248.8484420  0.176047E-03  0.928E-02    0.40       1.0  T
   4   -248.8488225 -0.380416E-03  0.520E-02    0.39       1.0  T
   5   -248.8489421 -0.119666E-03  0.321E-02    0.39       1.0  T
   6   -248.8490313 -0.891500E-04  0.176E-02    0.39       1.0  T
   7   -248.8490552 -0.238840E-04  0.994E-03    0.39       1.0  T
   8   -248.8490591 -0.395522E-05  0.681E-03    0.39       1.3  T
   9   -248.8490605 -0.141731E-05  0.460E-03    0.39       2.0  T
  10   -248.8490612 -0.682623E-06  0.283E-03    0.39       3.2  T
  11   -248.8490617 -0.469873E-06  0.154E-03    0.39       5.9  T
  12   -248.8490617 -0.571632E-07  0.102E-03    0.39       8.8  T
  13   -248.8490618 -0.532205E-07  0.617E-04    0.39      14.7  T
  14   -248.8490618 -0.109598E-07  0.463E-04    0.39      19.5  T
     SCC iter.                  ...        0 min,  0.275 sec
     gradient                   ...        0 min,  0.049 sec
 * total energy  :  -245.5137254 Eh     change       -0.2758982E-01 Eh
   gradient norm :     0.0454951 Eh/α   predicted    -0.2799117E-01 (   1.45%)
   displ. norm   :     0.4126513 α      lambda       -0.7762318E-02
   maximum displ.:     0.1031926 α      in ANC's #24, #85, #99, ...

........................................................................
.............................. CYCLE    4 ..............................
........................................................................
   1   -248.8679074 -0.248868E+03  0.223E-01    0.40       0.0  T
   2   -248.8680474 -0.140064E-03  0.124E-01    0.40       1.0  T
   3   -248.8674244  0.623090E-03  0.688E-02    0.39       1.0  T
   4   -248.8680152 -0.590819E-03  0.279E-02    0.39       1.0  T
   5   -248.8681197 -0.104552E-03  0.127E-02    0.39       1.0  T
   6   -248.8681392 -0.194415E-04  0.497E-03    0.40       1.8  T
   7   -248.8681398 -0.606733E-06  0.340E-03    0.39       2.7  T
   8   -248.8681402 -0.393506E-06  0.219E-03    0.39       4.1  T
   9   -248.8681403 -0.147879E-06  0.146E-03    0.39       6.2  T
  10   -248.8681404 -0.576354E-07  0.913E-04    0.39       9.9  T
  11   -248.8681404 -0.435179E-07  0.473E-04    0.39      19.2  T
     SCC iter.                  ...        0 min,  0.233 sec
     gradient                   ...        0 min,  0.050 sec
 * total energy  :  -245.5170475 Eh     change       -0.3322159E-02 Eh
   gradient norm :     0.0302564 Eh/α   predicted    -0.4542055E-02 (  36.72%)
   displ. norm   :     0.5295073 α      lambda       -0.7901084E-02
   maximum displ.:     0.1403511 α      in ANC's #24, #30, #85, ...

........................................................................
.............................. CYCLE    5 ..............................
........................................................................
   1   -248.8869829 -0.248887E+03  0.337E-01    0.40       0.0  T
   2   -248.8872514 -0.268411E-03  0.187E-01    0.40       1.0  T
   3   -248.8868221  0.429267E-03  0.658E-02    0.41       1.0  T
   4   -248.8873127 -0.490635E-03  0.210E-02    0.40       1.0  T
   5   -248.8873425 -0.297270E-04  0.138E-02    0.40       1.0  T
   6   -248.8873691 -0.266278E-04  0.555E-03    0.40       1.6  T
   7   -248.8873708 -0.167131E-05  0.330E-03    0.40       2.7  T
   8   -248.8873713 -0.527910E-06  0.195E-03    0.40       4.6  T
   9   -248.8873714 -0.116552E-06  0.135E-03    0.40       6.7  T
  10   -248.8873714 -0.416466E-07  0.850E-04    0.40      10.7  T
  11   -248.8873715 -0.327408E-07  0.457E-04    0.40      19.8  T
     SCC iter.                  ...        0 min,  0.220 sec
     gradient                   ...        0 min,  0.050 sec
 * total energy  :  -245.5185021 Eh     change       -0.1454535E-02 Eh
   gradient norm :     0.0343931 Eh/α   predicted    -0.5058196E-02 ( 247.75%)
   displ. norm   :     0.2408507 α      lambda       -0.3538243E-02
   maximum displ.:     0.0898986 α      in ANC's #24, #1, #39, ...

........................................................................
.............................. CYCLE    6 ..............................
........................................................................
   1   -248.8827645 -0.248883E+03  0.172E-01    0.39       0.0  T
   2   -248.8828241 -0.596381E-04  0.954E-02    0.39       1.0  T
   3   -248.8827384  0.857435E-04  0.302E-02    0.39       1.0  T
   4   -248.8828462 -0.107867E-03  0.862E-03    0.39       1.1  T
   5   -248.8828513 -0.502433E-05  0.433E-03    0.39       2.1  T
   6   -248.8828523 -0.101206E-05  0.244E-03    0.39       3.7  T
   7   -248.8828523 -0.593622E-07  0.190E-03    0.39       4.8  T
   8   -248.8828526 -0.277106E-06  0.121E-03    0.39       7.5  T
   9   -248.8828527 -0.564756E-07  0.808E-04    0.39      11.2  T
  10   -248.8828527 -0.214036E-07  0.452E-04    0.39      20.0  T
     SCC iter.                  ...        0 min,  0.205 sec
     gradient                   ...        0 min,  0.049 sec
 * total energy  :  -245.5204726 Eh     change       -0.1970537E-02 Eh
   gradient norm :     0.0164008 Eh/α   predicted    -0.1871744E-02 (  -5.01%)
   displ. norm   :     0.4355549 α      lambda       -0.3241934E-02
   maximum displ.:     0.1915071 α      in ANC's #45, #24, #34, ...

........................................................................
.............................. CYCLE    7 ..............................
........................................................................
   1   -248.8575995 -0.248858E+03  0.299E-01    0.37       0.0  T
   2   -248.8577193 -0.119888E-03  0.167E-01    0.38       1.0  T
   3   -248.8567440  0.975356E-03  0.973E-02    0.37       1.0  T
   4   -248.8578381 -0.109414E-02  0.182E-02    0.38       1.0  T
   5   -248.8578725 -0.343286E-04  0.952E-03    0.38       1.0  T
   6   -248.8578804 -0.791172E-05  0.481E-03    0.38       1.9  T
   7   -248.8578824 -0.197836E-05  0.268E-03    0.38       3.4  T
   8   -248.8578827 -0.380551E-06  0.161E-03    0.38       5.6  T
   9   -248.8578828 -0.688156E-07  0.112E-03    0.38       8.1  T
  10   -248.8578828 -0.304227E-07  0.638E-04    0.38      14.2  T
  11   -248.8578828 -0.156768E-07  0.337E-04    0.38      26.9  T
     SCC iter.                  ...        0 min,  0.219 sec
     gradient                   ...        0 min,  0.049 sec
 * total energy  :  -245.5194961 Eh     change        0.9764777E-03 Eh
   gradient norm :     0.0387313 Eh/α   predicted    -0.1928483E-02 (-297.49%)
   displ. norm   :     0.2492487 α      lambda       -0.4771839E-02
   maximum displ.:     0.0876134 α      in ANC's #45, #46, #24, ...

........................................................................
.............................. CYCLE    8 ..............................
........................................................................
   1   -248.8776421 -0.248878E+03  0.218E-01    0.38       0.0  T
   2   -248.8777169 -0.748542E-04  0.121E-01    0.38       1.0  T
   3   -248.8775142  0.202663E-03  0.468E-02    0.39       1.0  T
   4   -248.8777555 -0.241243E-03  0.900E-03    0.38       1.0  T
   5   -248.8777597 -0.419450E-05  0.641E-03    0.38       1.4  T
   6   -248.8777647 -0.501851E-05  0.279E-03    0.38       3.2  T
   7   -248.8777653 -0.621342E-06  0.156E-03    0.38       5.8  T
   8   -248.8777655 -0.140903E-06  0.930E-04    0.38       9.7  T
   9   -248.8777655 -0.261965E-07  0.654E-04    0.38      13.8  T
     SCC iter.                  ...        0 min,  0.186 sec
     gradient                   ...        0 min,  0.050 sec
 * total energy  :  -245.5220659 Eh     change       -0.2569735E-02 Eh
   gradient norm :     0.0100036 Eh/α   predicted    -0.2534154E-02 (  -1.38%)
   displ. norm   :     0.3626162 α      lambda       -0.1259254E-02
   maximum displ.:     0.1934077 α      in ANC's #24, #19, #27, ...

........................................................................
.............................. CYCLE    9 ..............................
........................................................................
   1   -248.8761018 -0.248876E+03  0.147E-01    0.37       0.0  T
   2   -248.8761337 -0.318695E-04  0.819E-02    0.37       1.0  T
   3   -248.8759369  0.196809E-03  0.366E-02    0.38       1.0  T
   4   -248.8761483 -0.211459E-03  0.881E-03    0.38       1.0  T
   5   -248.8761575 -0.917879E-05  0.440E-03    0.38       2.1  T
   6   -248.8761593 -0.175191E-05  0.185E-03    0.38       4.9  T
   7   -248.8761595 -0.254803E-06  0.888E-04    0.38      10.2  T
   8   -248.8761596 -0.392057E-07  0.536E-04    0.38      16.9  T
     SCC iter.                  ...        0 min,  0.167 sec
     gradient                   ...        0 min,  0.050 sec
 * total energy  :  -245.5227142 Eh     change       -0.6483794E-03 Eh
   gradient norm :     0.0157187 Eh/α   predicted    -0.7124199E-03 (   9.88%)
   displ. norm   :     0.5679466 α      lambda       -0.1966427E-02
   maximum displ.:     0.2972292 α      in ANC's #24, #9, #32, ...

........................................................................
.............................. CYCLE   10 ..............................
........................................................................
   1   -248.8755664 -0.248876E+03  0.146E-01    0.36       0.0  T
   2   -248.8755714 -0.497775E-05  0.836E-02    0.37       1.0  T
   3   -248.8748080  0.763346E-03  0.667E-02    0.37       1.0  T
   4   -248.8756176 -0.809574E-03  0.103E-02    0.37       1.0  T
   5   -248.8756278 -0.102169E-04  0.485E-03    0.37       1.9  T
   6   -248.8756291 -0.124833E-05  0.234E-03    0.37       3.9  T
   7   -248.8756295 -0.440753E-06  0.112E-03    0.37       8.0  T
   8   -248.8756296 -0.522120E-07  0.703E-04    0.37      12.9  T
   9   -248.8756296 -0.107418E-07  0.502E-04    0.37      18.0  T
     SCC iter.                  ...        0 min,  0.183 sec
     gradient                   ...        0 min,  0.049 sec
 * total energy  :  -245.5240143 Eh     change       -0.1300043E-02 Eh
   gradient norm :     0.0231456 Eh/α   predicted    -0.1300368E-02 (   0.03%)
   displ. norm   :     0.6075922 α      lambda       -0.1997811E-02
   maximum displ.:     0.2984851 α      in ANC's #24, #27, #19, ...

........................................................................
.............................. CYCLE   11 ..............................
........................................................................
   1   -248.8823613 -0.248882E+03  0.147E-01    0.35       0.0  T
   2   -248.8823822 -0.209169E-04  0.840E-02    0.35       1.0  T
   3   -248.8818011  0.581116E-03  0.601E-02    0.36       1.0  T
   4   -248.8824111 -0.609937E-03  0.128E-02    0.36       1.0  T
   5   -248.8824303 -0.192053E-04  0.517E-03    0.36       1.8  T
   6   -248.8824317 -0.149391E-05  0.239E-03    0.36       3.8  T
   7   -248.8824322 -0.458127E-06  0.112E-03    0.36       8.1  T
   8   -248.8824323 -0.511666E-07  0.689E-04    0.36      13.1  T
   9   -248.8824323 -0.121737E-07  0.455E-04    0.36      19.9  T
     SCC iter.                  ...        0 min,  0.179 sec
     gradient                   ...        0 min,  0.049 sec
 * total energy  :  -245.5251839 Eh     change       -0.1169580E-02 Eh
   gradient norm :     0.0226650 Eh/α   predicted    -0.1367666E-02 (  16.94%)
   displ. norm   :     0.5864736 α      lambda       -0.1601426E-02
   maximum displ.:     0.3186777 α      in ANC's #24, #19, #9, ...

........................................................................
.............................. CYCLE   12 ..............................
........................................................................
   1   -248.8807130 -0.248881E+03  0.140E-01    0.34       0.0  T
   2   -248.8807297 -0.167045E-04  0.794E-02    0.35       1.0  T
   3   -248.8803398  0.389855E-03  0.485E-02    0.35       1.0  T
   4   -248.8807473 -0.407541E-03  0.111E-02    0.35       1.0  T
   5   -248.8807605 -0.131847E-04  0.517E-03    0.35       1.8  T
   6   -248.8807620 -0.144815E-05  0.258E-03    0.35       3.5  T
   7   -248.8807627 -0.703493E-06  0.995E-04    0.35       9.1  T
   8   -248.8807627 -0.365355E-07  0.648E-04    0.35      14.0  T
     SCC iter.                  ...        0 min,  0.160 sec
     gradient                   ...        0 min,  0.049 sec
 * total energy  :  -245.5264503 Eh     change       -0.1266384E-02 Eh
   gradient norm :     0.0180142 Eh/α   predicted    -0.1076119E-02 ( -15.02%)
   displ. norm   :     0.6677160 α      lambda       -0.1535284E-02
   maximum displ.:     0.3498701 α      in ANC's #24, #19, #9, ...

........................................................................
.............................. CYCLE   13 ..............................
........................................................................
   1   -248.8761748 -0.248876E+03  0.177E-01    0.33       0.0  T
   2   -248.8762104 -0.355228E-04  0.996E-02    0.34       1.0  T
   3   -248.8758520  0.358350E-03  0.472E-02    0.34       1.0  T
   4   -248.8762272 -0.375229E-03  0.124E-02    0.34       1.0  T
   5   -248.8762430 -0.157770E-04  0.617E-03    0.34       1.5  T
   6   -248.8762455 -0.247494E-05  0.284E-03    0.34       3.2  T
   7   -248.8762464 -0.887930E-06  0.110E-03    0.34       8.3  T
   8   -248.8762464 -0.460239E-07  0.697E-04    0.34      13.0  T
   9   -248.8762464 -0.127304E-07  0.470E-04    0.34      19.3  T
     SCC iter.                  ...        0 min,  0.180 sec
     gradient                   ...        0 min,  0.050 sec
 * total energy  :  -245.5275588 Eh     change       -0.1108596E-02 Eh
   gradient norm :     0.0179133 Eh/α   predicted    -0.1109897E-02 (   0.12%)
   displ. norm   :     0.6268842 α      lambda       -0.1196676E-02
   maximum displ.:     0.3142510 α      in ANC's #24, #9, #19, ...

........................................................................
.............................. CYCLE   14 ..............................
........................................................................
   1   -248.8839370 -0.248884E+03  0.123E-01    0.33       0.0  T
   2   -248.8839532 -0.162340E-04  0.703E-02    0.33       1.0  T
   3   -248.8838048  0.148364E-03  0.321E-02    0.34       1.0  T
   4   -248.8839506 -0.145718E-03  0.113E-02    0.34       1.0  T
   5   -248.8839660 -0.154196E-04  0.533E-03    0.34       1.7  T
   6   -248.8839683 -0.232516E-05  0.238E-03    0.34       3.8  T
   7   -248.8839690 -0.654954E-06  0.972E-04    0.34       9.3  T
   8   -248.8839690 -0.290369E-07  0.693E-04    0.34      13.1  T
     SCC iter.                  ...        0 min,  0.167 sec
     gradient                   ...        0 min,  0.050 sec
 * total energy  :  -245.5284571 Eh     change       -0.8982176E-03 Eh
   gradient norm :     0.0148363 Eh/α   predicted    -0.8334733E-03 (  -7.21%)
   displ. norm   :     0.6774464 α      lambda       -0.1107881E-02
   maximum displ.:     0.3313709 α      in ANC's #24, #9, #19, ...

........................................................................
.............................. CYCLE   15 ..............................
........................................................................
   1   -248.8820841 -0.248882E+03  0.140E-01    0.32       0.0  T
   2   -248.8821072 -0.231038E-04  0.800E-02    0.33       1.0  T
   3   -248.8819684  0.138802E-03  0.320E-02    0.33       1.0  T
   4   -248.8821060 -0.137627E-03  0.114E-02    0.33       1.0  T
   5   -248.8821194 -0.133825E-04  0.612E-03    0.33       1.5  T
   6   -248.8821231 -0.367368E-05  0.261E-03    0.33       3.5  T
   7   -248.8821239 -0.787407E-06  0.105E-03    0.33       8.7  T
   8   -248.8821239 -0.365617E-07  0.707E-04    0.33      12.8  T
   9   -248.8821239 -0.163738E-07  0.474E-04    0.33      19.1  T
     SCC iter.                  ...        0 min,  0.187 sec
     gradient                   ...        0 min,  0.050 sec
 * total energy  :  -245.5293147 Eh     change       -0.8576428E-03 Eh
   gradient norm :     0.0097931 Eh/α   predicted    -0.8081558E-03 (  -5.77%)
   displ. norm   :     0.6101908 α      lambda       -0.1058750E-02
   maximum displ.:     0.2553897 α      in ANC's #24, #9, #3, ...

........................................................................
.............................. CYCLE   16 ..............................
........................................................................
   1   -248.8958015 -0.248896E+03  0.125E-01    0.32       0.0  T
   2   -248.8958177 -0.161638E-04  0.712E-02    0.33       1.0  T
   3   -248.8956769  0.140770E-03  0.333E-02    0.32       1.0  T
   4   -248.8958212 -0.144241E-03  0.101E-02    0.33       1.0  T
   5   -248.8958292 -0.808090E-05  0.631E-03    0.33       1.4  T
   6   -248.8958340 -0.472864E-05  0.246E-03    0.33       3.7  T
   7   -248.8958345 -0.499989E-06  0.124E-03    0.33       7.3  T
   8   -248.8958345 -0.448703E-07  0.894E-04    0.33      10.1  T
   9   -248.8958345 -0.211773E-07  0.625E-04    0.33      14.5  T
     SCC iter.                  ...        0 min,  0.176 sec
     gradient                   ...        0 min,  0.049 sec
 * total energy  :  -245.5300027 Eh     change       -0.6879735E-03 Eh
   gradient norm :     0.0118703 Eh/α   predicted    -0.7264791E-03 (   5.60%)
   displ. norm   :     0.7118149 α      lambda       -0.1010099E-02
   maximum displ.:     0.3328883 α      in ANC's #24, #9, #27, ...

........................................................................
.............................. CYCLE   17 ..............................
........................................................................
   1   -248.8798597 -0.248880E+03  0.146E-01    0.30       0.0  T
   2   -248.8798878 -0.281757E-04  0.832E-02    0.31       1.0  T
   3   -248.8797613  0.126541E-03  0.332E-02    0.31       1.0  T
   4   -248.8799002 -0.138945E-03  0.918E-03    0.32       1.0  T
   5   -248.8799035 -0.323340E-05  0.568E-03    0.32       1.6  T
   6   -248.8799055 -0.206573E-05  0.320E-03    0.32       2.8  T
   7   -248.8799071 -0.155886E-05  0.121E-03    0.32       7.5  T
   8   -248.8799072 -0.900010E-07  0.727E-04    0.32      12.4  T
   9   -248.8799072 -0.188299E-07  0.477E-04    0.32      19.0  T
     SCC iter.                  ...        0 min,  0.174 sec
     gradient                   ...        0 min,  0.050 sec
 * total energy  :  -245.5306570 Eh     change       -0.6543352E-03 Eh
   gradient norm :     0.0127513 Eh/α   predicted    -0.7609530E-03 (  16.29%)
   displ. norm   :     0.4924959 α      lambda       -0.7515367E-03
   maximum displ.:     0.2035341 α      in ANC's #9, #3, #24, ...

........................................................................
.............................. CYCLE   18 ..............................
........................................................................
   1   -248.8831858 -0.248883E+03  0.920E-02    0.30       0.0  T
   2   -248.8831943 -0.844751E-05  0.524E-02    0.31       1.0  T
   3   -248.8831181  0.761489E-04  0.250E-02    0.31       1.0  T
   4   -248.8831946 -0.764212E-04  0.799E-03    0.31       1.1  T
   5   -248.8832010 -0.643722E-05  0.463E-03    0.31       2.0  T
   6   -248.8832033 -0.227314E-05  0.187E-03    0.31       4.9  T
   7   -248.8832035 -0.264891E-06  0.109E-03    0.31       8.3  T
   8   -248.8832036 -0.318080E-07  0.806E-04    0.31      11.2  T
   9   -248.8832036 -0.141031E-07  0.507E-04    0.31      17.9  T
     SCC iter.                  ...        0 min,  0.176 sec
     gradient                   ...        0 min,  0.049 sec
 * total energy  :  -245.5311958 Eh     change       -0.5387647E-03 Eh
   gradient norm :     0.0131818 Eh/α   predicted    -0.4669102E-03 ( -13.34%)
   displ. norm   :     0.5747899 α      lambda       -0.8963619E-03
   maximum displ.:     0.2296713 α      in ANC's #9, #3, #24, ...

........................................................................
.............................. CYCLE   19 ..............................
........................................................................
   1   -248.8856973 -0.248886E+03  0.108E-01    0.30       0.0  T
   2   -248.8857063 -0.899336E-05  0.614E-02    0.31       1.0  T
   3   -248.8855806  0.125651E-03  0.296E-02    0.31       1.0  T
   4   -248.8857075 -0.126886E-03  0.920E-03    0.31       1.0  T
   5   -248.8857159 -0.836261E-05  0.524E-03    0.31       1.7  T
   6   -248.8857183 -0.240667E-05  0.236E-03    0.31       3.8  T
   7   -248.8857186 -0.319437E-06  0.146E-03    0.31       6.2  T
   8   -248.8857186 -0.394400E-07  0.106E-03    0.31       8.6  T
   9   -248.8857186 -0.150026E-07  0.648E-04    0.31      14.0  T
  10   -248.8857187 -0.187980E-07  0.321E-04    0.31      28.2  T
     SCC iter.                  ...        0 min,  0.202 sec
     gradient                   ...        0 min,  0.050 sec
 * total energy  :  -245.5318736 Eh     change       -0.6778158E-03 Eh
   gradient norm :     0.0075548 Eh/α   predicted    -0.5962536E-03 ( -12.03%)
   displ. norm   :     0.6877768 α      lambda       -0.7274653E-03
   maximum displ.:     0.2755136 α      in ANC's #9, #3, #8, ...

........................................................................
.............................. CYCLE   20 ..............................
........................................................................
   1   -248.8855746 -0.248886E+03  0.118E-01    0.30       0.0  T
   2   -248.8855857 -0.111539E-04  0.670E-02    0.30       1.0  T
   3   -248.8854935  0.921957E-04  0.268E-02    0.30       1.0  T
   4   -248.8855863 -0.928122E-04  0.907E-03    0.30       1.0  T
   5   -248.8855917 -0.532824E-05  0.584E-03    0.30       1.5  T
   6   -248.8855954 -0.376119E-05  0.264E-03    0.30       3.4  T
   7   -248.8855960 -0.598385E-06  0.142E-03    0.30       6.4  T
   8   -248.8855961 -0.375521E-07  0.101E-03    0.30       8.9  T
   9   -248.8855961 -0.144066E-07  0.624E-04    0.30      14.5  T
  10   -248.8855961 -0.143031E-07  0.313E-04    0.30      28.9  T
     SCC iter.                  ...        0 min,  0.223 sec
     gradient                   ...        0 min,  0.050 sec
 * total energy  :  -245.5324797 Eh     change       -0.6061463E-03 Eh
   gradient norm :     0.0083624 Eh/α   predicted    -0.5357952E-03 ( -11.61%)
   displ. norm   :     0.6959469 α      lambda       -0.8125721E-03
   maximum displ.:     0.2803195 α      in ANC's #9, #3, #8, ...
 * RMSD in coord.:     0.7271686 α      energy gain  -0.1193245E+00 Eh

generating ANC from model Hessian ...
Using Lindh-Hessian (1995)
 Shifting diagonal of input Hessian by   1.001043835130824E-002
 Lowest  eigenvalues of input Hessian
    0.010000    0.000000    0.000000    0.000000    0.000000    0.000000
    0.000000    0.010016    0.010029    0.010049    0.010052    0.010095
    0.010102    0.010132    0.010213    0.010275    0.010289    0.010370
 Highest eigenvalues
    2.291331    2.293047    2.606510    2.611934    2.644262    2.655678
 

........................................................................
.............................. CYCLE   21 ..............................
........................................................................
   1   -248.8891901 -0.248889E+03  0.111E-01    0.30       0.0  T
   2   -248.8892039 -0.137940E-04  0.625E-02    0.30       1.0  T
   3   -248.8891577  0.462493E-04  0.217E-02    0.30       1.0  T
   4   -248.8892090 -0.513121E-04  0.706E-03    0.30       1.3  T
   5   -248.8892109 -0.187719E-05  0.398E-03    0.30       2.3  T
   6   -248.8892116 -0.696054E-06  0.236E-03    0.30       3.8  T
   7   -248.8892120 -0.388069E-06  0.163E-03    0.30       5.6  T
   8   -248.8892121 -0.153886E-06  0.109E-03    0.30       8.3  T
   9   -248.8892121 -0.244948E-07  0.644E-04    0.30      14.1  T
  10   -248.8892122 -0.179412E-07  0.312E-04    0.30      29.0  T
     SCC iter.                  ...        0 min,  0.199 sec
     gradient                   ...        0 min,  0.049 sec
 * total energy  :  -245.5331001 Eh     change       -0.6203839E-03 Eh
   gradient norm :     0.0099370 Eh/α   predicted     0.0000000E+00 (-100.00%)
   displ. norm   :     0.1186688 α      lambda       -0.3217904E-03
   maximum displ.:     0.0441402 α      in ANC's #6, #15, #11, ...

........................................................................
.............................. CYCLE   22 ..............................
........................................................................
   1   -248.8884916 -0.248888E+03  0.659E-02    0.30       0.0  T
   2   -248.8884961 -0.450066E-05  0.367E-02    0.30       1.0  T
   3   -248.8884313  0.647600E-04  0.201E-02    0.30       1.0  T
   4   -248.8885004 -0.690585E-04  0.367E-03    0.30       2.5  T
   5   -248.8885020 -0.162568E-05  0.177E-03    0.30       5.1  T
   6   -248.8885022 -0.226997E-06  0.809E-04    0.30      11.2  T
   7   -248.8885023 -0.295705E-07  0.528E-04    0.30      17.1  T
     SCC iter.                  ...        0 min,  0.140 sec
     gradient                   ...        0 min,  0.049 sec
 * total energy  :  -245.5332383 Eh     change       -0.1381393E-03 Eh
   gradient norm :     0.0060465 Eh/α   predicted    -0.1631630E-03 (  18.11%)
   displ. norm   :     0.2369670 α      lambda       -0.4961989E-03
   maximum displ.:     0.0886147 α      in ANC's #6, #8, #10, ...

........................................................................
.............................. CYCLE   23 ..............................
........................................................................
   1   -248.8879813 -0.248888E+03  0.849E-02    0.30       0.0  T
   2   -248.8879885 -0.722048E-05  0.473E-02    0.30       1.0  T
   3   -248.8878391  0.149362E-03  0.298E-02    0.30       1.0  T
   4   -248.8879972 -0.158052E-03  0.574E-03    0.30       1.6  T
   5   -248.8880006 -0.344061E-05  0.313E-03    0.30       2.9  T
   6   -248.8880012 -0.605163E-06  0.162E-03    0.30       5.6  T
   7   -248.8880013 -0.102266E-06  0.111E-03    0.30       8.1  T
   8   -248.8880013 -0.353269E-07  0.807E-04    0.30      11.2  T
   9   -248.8880014 -0.113375E-07  0.541E-04    0.30      16.7  T
     SCC iter.                  ...        0 min,  0.180 sec
     gradient                   ...        0 min,  0.049 sec
 * total energy  :  -245.5333936 Eh     change       -0.1552902E-03 Eh
   gradient norm :     0.0130724 Eh/α   predicted    -0.2620313E-03 (  68.74%)
   displ. norm   :     0.2325868 α      lambda       -0.5248322E-03
   maximum displ.:     0.0953519 α      in ANC's #6, #15, #11, ...

........................................................................
.............................. CYCLE   24 ..............................
........................................................................
   1   -248.8872233 -0.248887E+03  0.107E-01    0.30       0.0  T
   2   -248.8872376 -0.143681E-04  0.591E-02    0.30       1.0  T
   3   -248.8871902  0.474844E-04  0.176E-02    0.30       1.0  T
   4   -248.8872437 -0.535154E-04  0.443E-03    0.30       2.0  T
   5   -248.8872455 -0.186066E-05  0.244E-03    0.30       3.7  T
   6   -248.8872460 -0.470802E-06  0.104E-03    0.30       8.7  T
   7   -248.8872461 -0.784303E-07  0.572E-04    0.30      15.8  T
   8   -248.8872461 -0.924328E-08  0.398E-04    0.30      22.7  T
     SCC iter.                  ...        0 min,  0.165 sec
     gradient                   ...        0 min,  0.049 sec
 * total energy  :  -245.5335573 Eh     change       -0.1637306E-03 Eh
   gradient norm :     0.0126611 Eh/α   predicted    -0.2766119E-03 (  68.94%)
   displ. norm   :     0.1502414 α      lambda       -0.4155128E-03
   maximum displ.:     0.0668581 α      in ANC's #6, #15, #8, ...

........................................................................
.............................. CYCLE   25 ..............................
........................................................................
   1   -248.8872015 -0.248887E+03  0.438E-02    0.30       0.0  T
   2   -248.8872044 -0.285224E-05  0.245E-02    0.30       1.0  T
   3   -248.8871808  0.236136E-04  0.133E-02    0.30       1.0  T
   4   -248.8872063 -0.255176E-04  0.285E-03    0.30       3.2  T
   5   -248.8872069 -0.643788E-06  0.187E-03    0.30       4.8  T
   6   -248.8872073 -0.398812E-06  0.808E-04    0.30      11.2  T
   7   -248.8872074 -0.449938E-07  0.470E-04    0.30      19.3  T
     SCC iter.                  ...        0 min,  0.148 sec
     gradient                   ...        0 min,  0.049 sec
 * total energy  :  -245.5338528 Eh     change       -0.2955205E-03 Eh
   gradient norm :     0.0070879 Eh/α   predicted    -0.2124465E-03 ( -28.11%)
   displ. norm   :     0.3860978 α      lambda       -0.4017108E-03
   maximum displ.:     0.1726355 α      in ANC's #6, #15, #8, ...

........................................................................
.............................. CYCLE   26 ..............................
........................................................................
   1   -248.8864818 -0.248886E+03  0.573E-02    0.29       0.0  T
   2   -248.8864832 -0.139988E-05  0.319E-02    0.30       1.0  T
   3   -248.8863906  0.925763E-04  0.239E-02    0.30       1.0  T
   4   -248.8864884 -0.977999E-04  0.501E-03    0.30       1.8  T
   5   -248.8864904 -0.200601E-05  0.304E-03    0.30       3.0  T
   6   -248.8864912 -0.794004E-06  0.127E-03    0.30       7.2  T
   7   -248.8864913 -0.103356E-06  0.702E-04    0.30      12.9  T
   8   -248.8864913 -0.910330E-08  0.525E-04    0.30      17.2  T
     SCC iter.                  ...        0 min,  0.172 sec
     gradient                   ...        0 min,  0.049 sec
 * total energy  :  -245.5341773 Eh     change       -0.3244730E-03 Eh
   gradient norm :     0.0067631 Eh/α   predicted    -0.2307978E-03 ( -28.87%)
   displ. norm   :     0.5997549 α      lambda       -0.4777162E-03
   maximum displ.:     0.2740382 α      in ANC's #6, #8, #15, ...

........................................................................
.............................. CYCLE   27 ..............................
........................................................................
   1   -248.8842566 -0.248884E+03  0.910E-02    0.29       0.0  T
   2   -248.8842626 -0.608089E-05  0.503E-02    0.29       1.0  T
   3   -248.8840892  0.173400E-03  0.331E-02    0.29       1.0  T
   4   -248.8842719 -0.182659E-03  0.741E-03    0.29       1.2  T
   5   -248.8842760 -0.408949E-05  0.468E-03    0.29       1.9  T
   6   -248.8842781 -0.205673E-05  0.170E-03    0.29       5.3  T
   7   -248.8842782 -0.180270E-06  0.957E-04    0.29       9.5  T
   8   -248.8842782 -0.142801E-07  0.703E-04    0.29      12.9  T
     SCC iter.                  ...        0 min,  0.158 sec
     gradient                   ...        0 min,  0.049 sec
 * total energy  :  -245.5345580 Eh     change       -0.3807541E-03 Eh
   gradient norm :     0.0089375 Eh/α   predicted    -0.3247830E-03 ( -14.70%)
   displ. norm   :     0.7179457 α      lambda       -0.6359301E-03
   maximum displ.:     0.3256646 α      in ANC's #6, #8, #11, ...

........................................................................
.............................. CYCLE   28 ..............................
........................................................................
   1   -248.8827778 -0.248883E+03  0.100E-01    0.28       0.0  T
   2   -248.8827859 -0.807367E-05  0.558E-02    0.29       1.0  T
   3   -248.8826126  0.173342E-03  0.339E-02    0.29       1.0  T
   4   -248.8827918 -0.179180E-03  0.897E-03    0.29       1.0  T
   5   -248.8827989 -0.711899E-05  0.542E-03    0.29       1.7  T
   6   -248.8828017 -0.283131E-05  0.193E-03    0.29       4.7  T
   7   -248.8828019 -0.216165E-06  0.109E-03    0.29       8.3  T
   8   -248.8828019 -0.143253E-07  0.798E-04    0.29      11.3  T
   9   -248.8828020 -0.135661E-07  0.508E-04    0.29      17.8  T
     SCC iter.                  ...        0 min,  0.179 sec
     gradient                   ...        0 min,  0.049 sec
 * total energy  :  -245.5349290 Eh     change       -0.3709426E-03 Eh
   gradient norm :     0.0100741 Eh/α   predicted    -0.4818601E-03 (  29.90%)
   displ. norm   :     0.5332853 α      lambda       -0.5679645E-03
   maximum displ.:     0.2620086 α      in ANC's #6, #8, #11, ...

........................................................................
.............................. CYCLE   29 ..............................
........................................................................
   1   -248.8839149 -0.248884E+03  0.864E-02    0.28       0.0  T
   2   -248.8839233 -0.836152E-05  0.478E-02    0.28       1.0  T
   3   -248.8838682  0.551192E-04  0.205E-02    0.28       1.0  T
   4   -248.8839258 -0.576584E-04  0.612E-03    0.28       1.5  T
   5   -248.8839282 -0.233876E-05  0.419E-03    0.28       2.2  T
   6   -248.8839303 -0.212031E-05  0.143E-03    0.28       6.3  T
   7   -248.8839304 -0.162221E-06  0.728E-04    0.28      12.4  T
   8   -248.8839305 -0.934122E-08  0.499E-04    0.28      18.1  T
     SCC iter.                  ...        0 min,  0.164 sec
     gradient                   ...        0 min,  0.049 sec
 * total energy  :  -245.5353712 Eh     change       -0.4422708E-03 Eh
   gradient norm :     0.0090151 Eh/α   predicted    -0.3647454E-03 ( -17.53%)
   displ. norm   :     0.5483047 α      lambda       -0.7025446E-03
   maximum displ.:     0.2752617 α      in ANC's #6, #8, #11, ...

........................................................................
.............................. CYCLE   30 ..............................
........................................................................
   1   -248.8863993 -0.248886E+03  0.113E-01    0.28       0.0  T
   2   -248.8864192 -0.199420E-04  0.623E-02    0.28       1.0  T
   3   -248.8863826  0.366679E-04  0.205E-02    0.28       1.0  T
   4   -248.8864286 -0.460014E-04  0.490E-03    0.28       1.8  T
   5   -248.8864284  0.143189E-06  0.344E-03    0.28       2.6  T
   6   -248.8864295 -0.106966E-05  0.182E-03    0.28       5.0  T
   7   -248.8864298 -0.343098E-06  0.102E-03    0.28       8.9  T
   8   -248.8864299 -0.670705E-07  0.619E-04    0.28      14.6  T
   9   -248.8864299 -0.689093E-08  0.420E-04    0.28      21.6  T
     SCC iter.                  ...        0 min,  0.188 sec
     gradient                   ...        0 min,  0.049 sec
 * total energy  :  -245.5357207 Eh     change       -0.3494295E-03 Eh
   gradient norm :     0.0121329 Eh/α   predicted    -0.4568821E-03 (  30.75%)
   displ. norm   :     0.5781423 α      lambda       -0.5507072E-03
   maximum displ.:     0.2795449 α      in ANC's #6, #8, #11, ...

........................................................................
.............................. CYCLE   31 ..............................
........................................................................
   1   -248.8849731 -0.248885E+03  0.742E-02    0.27       0.0  T
   2   -248.8849794 -0.631712E-05  0.412E-02    0.28       1.0  T
   3   -248.8849318  0.475997E-04  0.195E-02    0.28       1.0  T
   4   -248.8849801 -0.483197E-04  0.646E-03    0.28       1.4  T
   5   -248.8849825 -0.240526E-05  0.442E-03    0.28       2.0  T
   6   -248.8849850 -0.246411E-05  0.153E-03    0.28       5.9  T
   7   -248.8849852 -0.198339E-06  0.778E-04    0.28      11.6  T
   8   -248.8849852 -0.128003E-07  0.555E-04    0.28      16.3  T
     SCC iter.                  ...        0 min,  0.174 sec
     gradient                   ...        0 min,  0.049 sec
 * total energy  :  -245.5361817 Eh     change       -0.4610151E-03 Eh
   gradient norm :     0.0062257 Eh/α   predicted    -0.3673916E-03 ( -20.31%)
   displ. norm   :     0.7172192 α      lambda       -0.5842513E-03
   maximum displ.:     0.3635993 α      in ANC's #6, #8, #11, ...

........................................................................
.............................. CYCLE   32 ..............................
........................................................................
   1   -248.8865889 -0.248887E+03  0.896E-02    0.27       0.0  T
   2   -248.8865987 -0.977844E-05  0.497E-02    0.27       1.0  T
   3   -248.8865542  0.444866E-04  0.211E-02    0.27       1.0  T
   4   -248.8866041 -0.499173E-04  0.603E-03    0.27       1.5  T
   5   -248.8866050 -0.870736E-06  0.335E-03    0.27       2.7  T
   6   -248.8866055 -0.532783E-06  0.215E-03    0.27       4.2  T
   7   -248.8866061 -0.611452E-06  0.105E-03    0.27       8.7  T
   8   -248.8866062 -0.514405E-07  0.713E-04    0.27      12.7  T
   9   -248.8866062 -0.109613E-07  0.436E-04    0.27      20.8  T
     SCC iter.                  ...        0 min,  0.187 sec
     gradient                   ...        0 min,  0.049 sec
 * total energy  :  -245.5366838 Eh     change       -0.5021550E-03 Eh
   gradient norm :     0.0082292 Eh/α   predicted    -0.4423993E-03 ( -11.90%)
   displ. norm   :     0.7828277 α      lambda       -0.5748901E-03
   maximum displ.:     0.4035879 α      in ANC's #6, #8, #11, ...

........................................................................
.............................. CYCLE   33 ..............................
........................................................................
   1   -248.8842190 -0.248884E+03  0.974E-02    0.26       0.0  T
   2   -248.8842311 -0.121539E-04  0.539E-02    0.27       1.0  T
   3   -248.8841772  0.539584E-04  0.234E-02    0.26       1.0  T
   4   -248.8842383 -0.611776E-04  0.650E-03    0.27       1.4  T
   5   -248.8842399 -0.152679E-05  0.302E-03    0.27       3.0  T
   6   -248.8842403 -0.408629E-06  0.162E-03    0.27       5.6  T
   7   -248.8842404 -0.140630E-06  0.112E-03    0.27       8.1  T
   8   -248.8842405 -0.492287E-07  0.818E-04    0.27      11.1  T
   9   -248.8842405 -0.319819E-07  0.494E-04    0.27      18.3  T
     SCC iter.                  ...        0 min,  0.176 sec
     gradient                   ...        0 min,  0.049 sec
 * total energy  :  -245.5371998 Eh     change       -0.5159653E-03 Eh
   gradient norm :     0.0078907 Eh/α   predicted    -0.4635987E-03 ( -10.15%)
   displ. norm   :     0.7215309 α      lambda       -0.6678332E-03
   maximum displ.:     0.3755521 α      in ANC's #6, #8, #3, ...

........................................................................
.............................. CYCLE   34 ..............................
........................................................................
   1   -248.8964233 -0.248896E+03  0.107E-01    0.25       0.0  T
   2   -248.8964369 -0.136087E-04  0.592E-02    0.26       1.0  T
   3   -248.8962929  0.143951E-03  0.328E-02    0.26       1.0  T
   4   -248.8964423 -0.149390E-03  0.968E-03    0.26       1.0  T
   5   -248.8964484 -0.605041E-05  0.664E-03    0.26       1.4  T
   6   -248.8964540 -0.559825E-05  0.243E-03    0.26       3.7  T
   7   -248.8964544 -0.420791E-06  0.131E-03    0.26       6.9  T
   8   -248.8964544 -0.708015E-07  0.914E-04    0.26       9.9  T
   9   -248.8964545 -0.140414E-07  0.586E-04    0.26      15.4  T
     SCC iter.                  ...        0 min,  0.178 sec
     gradient                   ...        0 min,  0.049 sec
 * total energy  :  -245.5376345 Eh     change       -0.4347028E-03 Eh
   gradient norm :     0.0114334 Eh/α   predicted    -0.5077607E-03 (  16.81%)
   displ. norm   :     0.7529439 α      lambda       -0.6357532E-03
   maximum displ.:     0.3909190 α      in ANC's #6, #8, #11, ...

........................................................................
.............................. CYCLE   35 ..............................
........................................................................
   1   -248.8842473 -0.248884E+03  0.978E-02    0.25       0.0  T
   2   -248.8842616 -0.142549E-04  0.543E-02    0.26       1.0  T
   3   -248.8841907  0.708632E-04  0.264E-02    0.25       1.0  T
   4   -248.8842698 -0.791052E-04  0.693E-03    0.26       1.3  T
   5   -248.8842702 -0.376505E-06  0.480E-03    0.26       1.9  T
   6   -248.8842723 -0.212602E-05  0.257E-03    0.26       3.5  T
   7   -248.8842731 -0.810220E-06  0.126E-03    0.26       7.2  T
   8   -248.8842732 -0.654192E-07  0.871E-04    0.26      10.4  T
   9   -248.8842732 -0.128919E-07  0.575E-04    0.26      15.7  T
     SCC iter.                  ...        0 min,  0.182 sec
     gradient                   ...        0 min,  0.049 sec
 * total energy  :  -245.5381373 Eh     change       -0.5027438E-03 Eh
   gradient norm :     0.0070135 Eh/α   predicted    -0.4980898E-03 (  -0.93%)
   displ. norm   :     0.6997926 α      lambda       -0.4403919E-03
   maximum displ.:     0.3733250 α      in ANC's #6, #8, #3, ...

........................................................................
.............................. CYCLE   36 ..............................
........................................................................
   1   -248.8799799 -0.248880E+03  0.849E-02    0.24       0.0  T
   2   -248.8799898 -0.993055E-05  0.470E-02    0.25       1.0  T
   3   -248.8799356  0.542272E-04  0.236E-02    0.25       1.0  T
   4   -248.8799970 -0.614117E-04  0.608E-03    0.25       1.5  T
   5   -248.8799975 -0.574069E-06  0.372E-03    0.25       2.4  T
   6   -248.8799983 -0.763952E-06  0.229E-03    0.25       4.0  T
   7   -248.8799990 -0.671437E-06  0.113E-03    0.25       8.0  T
   8   -248.8799990 -0.619129E-07  0.780E-04    0.25      11.6  T
   9   -248.8799990 -0.124764E-07  0.502E-04    0.25      18.0  T
     SCC iter.                  ...        0 min,  0.185 sec
     gradient                   ...        0 min,  0.049 sec
 * total energy  :  -245.5385260 Eh     change       -0.3887540E-03 Eh
   gradient norm :     0.0068046 Eh/α   predicted    -0.3280308E-03 ( -15.62%)
   displ. norm   :     0.7044409 α      lambda       -0.4928511E-03
   maximum displ.:     0.3900666 α      in ANC's #6, #8, #3, ...

........................................................................
.............................. CYCLE   37 ..............................
........................................................................
   1   -248.8824372 -0.248882E+03  0.845E-02    0.24       0.0  T
   2   -248.8824472 -0.100558E-04  0.468E-02    0.25       1.0  T
   3   -248.8823841  0.631571E-04  0.249E-02    0.24       1.0  T
   4   -248.8824546 -0.705063E-04  0.656E-03    0.25       1.4  T
   5   -248.8824546 -0.214085E-07  0.484E-03    0.25       1.9  T
   6   -248.8824571 -0.252437E-05  0.233E-03    0.25       3.9  T
   7   -248.8824578 -0.683505E-06  0.105E-03    0.25       8.6  T
   8   -248.8824578 -0.398531E-07  0.739E-04    0.25      12.3  T
   9   -248.8824578 -0.105921E-07  0.471E-04    0.25      19.2  T
     SCC iter.                  ...        0 min,  0.190 sec
     gradient                   ...        0 min,  0.049 sec
 * total energy  :  -245.5389554 Eh     change       -0.4293631E-03 Eh
   gradient norm :     0.0064964 Eh/α   predicted    -0.3687137E-03 ( -14.13%)
   displ. norm   :     0.7713466 α      lambda       -0.4975388E-03
   maximum displ.:     0.4330502 α      in ANC's #6, #8, #3, ...

........................................................................
.............................. CYCLE   38 ..............................
........................................................................
   1   -248.8846461 -0.248885E+03  0.930E-02    0.23       0.0  T
   2   -248.8846588 -0.126800E-04  0.512E-02    0.24       1.0  T
   3   -248.8845820  0.768609E-04  0.275E-02    0.23       1.0  T
   4   -248.8846681 -0.860873E-04  0.726E-03    0.24       1.2  T
   5   -248.8846680  0.580062E-07  0.536E-03    0.24       1.7  T
   6   -248.8846712 -0.320788E-05  0.252E-03    0.24       3.6  T
   7   -248.8846720 -0.813233E-06  0.112E-03    0.24       8.1  T
   8   -248.8846721 -0.454008E-07  0.766E-04    0.24      11.8  T
   9   -248.8846721 -0.100297E-07  0.504E-04    0.24      18.0  T
     SCC iter.                  ...        0 min,  0.180 sec
     gradient                   ...        0 min,  0.049 sec
 * total energy  :  -245.5393944 Eh     change       -0.4390562E-03 Eh
   gradient norm :     0.0047393 Eh/α   predicted    -0.3967835E-03 (  -9.63%)
   displ. norm   :     0.7860008 α      lambda       -0.5069615E-03
   maximum displ.:     0.4554240 α      in ANC's #6, #8, #3, ...

........................................................................
.............................. CYCLE   39 ..............................
........................................................................
   1   -248.8886108 -0.248889E+03  0.967E-02    0.23       0.0  T
   2   -248.8886241 -0.133050E-04  0.532E-02    0.24       1.0  T
   3   -248.8885409  0.831292E-04  0.278E-02    0.23       1.0  T
   4   -248.8886326 -0.916292E-04  0.771E-03    0.23       1.2  T
   5   -248.8886327 -0.158511E-06  0.592E-03    0.24       1.5  T
   6   -248.8886371 -0.434339E-05  0.248E-03    0.23       3.7  T
   7   -248.8886378 -0.727526E-06  0.113E-03    0.23       8.0  T
   8   -248.8886378 -0.407142E-07  0.781E-04    0.24      11.6  T
   9   -248.8886379 -0.922580E-08  0.512E-04    0.23      17.7  T
     SCC iter.                  ...        0 min,  0.179 sec
     gradient                   ...        0 min,  0.049 sec
 * total energy  :  -245.5398416 Eh     change       -0.4471946E-03 Eh
   gradient norm :     0.0056614 Eh/α   predicted    -0.4100872E-03 (  -8.30%)
   displ. norm   :     0.8320853 α      lambda       -0.5030428E-03
   maximum displ.:     0.4815710 α      in ANC's #6, #8, #3, ...

........................................................................
.............................. CYCLE   40 ..............................
........................................................................
   1   -248.8873504 -0.248887E+03  0.103E-01    0.22       0.0  T
   2   -248.8873660 -0.156437E-04  0.566E-02    0.23       1.0  T
   3   -248.8872903  0.756781E-04  0.274E-02    0.22       1.0  T
   4   -248.8873767 -0.863840E-04  0.732E-03    0.23       1.2  T
   5   -248.8873786 -0.188707E-05  0.377E-03    0.23       2.4  T
   6   -248.8873791 -0.515628E-06  0.225E-03    0.23       4.0  T
   7   -248.8873796 -0.496187E-06  0.129E-03    0.23       7.0  T
   8   -248.8873797 -0.841138E-07  0.911E-04    0.23       9.9  T
   9   -248.8873797 -0.263760E-07  0.606E-04    0.23      14.9  T
     SCC iter.                  ...        0 min,  0.175 sec
     gradient                   ...        0 min,  0.049 sec
 * total energy  :  -245.5403021 Eh     change       -0.4604836E-03 Eh
   gradient norm :     0.0055026 Eh/α   predicted    -0.4256690E-03 (  -7.56%)
   displ. norm   :     0.7773045 α      lambda       -0.5653232E-03
   maximum displ.:     0.4592654 α      in ANC's #6, #3, #8, ...

........................................................................
.............................. CYCLE   41 ..............................
........................................................................
   1   -248.8961014 -0.248896E+03  0.105E-01    0.22       0.0  T
   2   -248.8961184 -0.169709E-04  0.572E-02    0.23       1.0  T
   3   -248.8960739  0.445105E-04  0.225E-02    0.22       1.0  T
   4   -248.8961258 -0.519044E-04  0.721E-03    0.23       1.3  T
   5   -248.8961271 -0.128744E-05  0.409E-03    0.23       2.2  T
   6   -248.8961279 -0.893722E-06  0.251E-03    0.23       3.6  T
   7   -248.8961287 -0.739560E-06  0.135E-03    0.23       6.7  T
   8   -248.8961288 -0.883415E-07  0.903E-04    0.23      10.0  T
   9   -248.8961288 -0.196750E-07  0.555E-04    0.23      16.3  T
     SCC iter.                  ...        0 min,  0.180 sec
     gradient                   ...        0 min,  0.049 sec
 * total energy  :  -245.5407402 Eh     change       -0.4380403E-03 Eh
   gradient norm :     0.0074972 Eh/α   predicted    -0.4534502E-03 (   3.52%)
   displ. norm   :     0.8448261 α      lambda       -0.5562527E-03
   maximum displ.:     0.4957648 α      in ANC's #6, #3, #8, ...

........................................................................
.............................. CYCLE   42 ..............................
........................................................................
   1   -248.8866622 -0.248887E+03  0.106E-01    0.22       0.0  T
   2   -248.8866770 -0.148328E-04  0.583E-02    0.23       1.0  T
   3   -248.8865839  0.931313E-04  0.286E-02    0.21       1.0  T
   4   -248.8866844 -0.100539E-03  0.852E-03    0.23       1.1  T
   5   -248.8866854 -0.998541E-06  0.629E-03    0.22       1.4  T
   6   -248.8866905 -0.510604E-05  0.268E-03    0.22       3.4  T
   7   -248.8866912 -0.673225E-06  0.143E-03    0.22       6.3  T
   8   -248.8866912 -0.596245E-07  0.105E-03    0.22       8.6  T
   9   -248.8866913 -0.286211E-07  0.693E-04    0.22      13.1  T
  10   -248.8866913 -0.234786E-07  0.363E-04    0.22      25.0  T
     SCC iter.                  ...        0 min,  0.204 sec
     gradient                   ...        0 min,  0.049 sec
 * total energy  :  -245.5411926 Eh     change       -0.4524798E-03 Eh
   gradient norm :     0.0072808 Eh/α   predicted    -0.4766359E-03 (   5.34%)
   displ. norm   :     0.7590024 α      lambda       -0.4630280E-03
   maximum displ.:     0.4514588 α      in ANC's #6, #3, #8, ...
 * RMSD in coord.:     1.1295998 α      energy gain  -0.8712888E-02 Eh

generating ANC from model Hessian ...
Using Lindh-Hessian (1995)
 Shifting diagonal of input Hessian by   1.003832503445407E-002
 Lowest  eigenvalues of input Hessian
    0.010000    0.010008    0.000000    0.000000    0.000000    0.000000
    0.000000    0.000000    0.010054    0.010061    0.010078    0.010096
    0.010112    0.010141    0.010253    0.010295    0.010299    0.010349
 Highest eigenvalues
    2.282495    2.284954    2.607326    2.614065    2.646228    2.647927
 

........................................................................
.............................. CYCLE   43 ..............................
........................................................................
   1   -248.8827754 -0.248883E+03  0.918E-02    0.22       0.0  T
   2   -248.8827860 -0.105981E-04  0.501E-02    0.23       1.0  T
   3   -248.8827149  0.710835E-04  0.243E-02    0.21       1.0  T
   4   -248.8827865 -0.716465E-04  0.870E-03    0.23       1.0  T
   5   -248.8827909 -0.433540E-05  0.592E-03    0.22       1.5  T
   6   -248.8827955 -0.464960E-05  0.223E-03    0.22       4.1  T
   7   -248.8827959 -0.362248E-06  0.118E-03    0.22       7.7  T
   8   -248.8827959 -0.159497E-07  0.887E-04    0.22      10.2  T
   9   -248.8827959 -0.133803E-07  0.575E-04    0.22      15.8  T
     SCC iter.                  ...        0 min,  0.192 sec
     gradient                   ...        0 min,  0.049 sec
 * total energy  :  -245.5415915 Eh     change       -0.3988299E-03 Eh
   gradient norm :     0.0071148 Eh/α   predicted     0.0000000E+00 (-100.00%)
   displ. norm   :     0.0789274 α      lambda       -0.1730786E-03
   maximum displ.:     0.0310699 α      in ANC's #7, #3, #8, ...

........................................................................
.............................. CYCLE   44 ..............................
........................................................................
   1   -248.8887782 -0.248889E+03  0.225E-02    0.22       0.0  T
   2   -248.8887791 -0.918247E-06  0.128E-02    0.22       1.0  T
   3   -248.8887731  0.608758E-05  0.666E-03    0.22       1.4  T
   4   -248.8887796 -0.651222E-05  0.193E-03    0.22       4.7  T
   5   -248.8887799 -0.334515E-06  0.107E-03    0.22       8.5  T
   6   -248.8887800 -0.613148E-07  0.706E-04    0.22      12.8  T
   7   -248.8887800 -0.322547E-07  0.465E-04    0.22      19.5  T
     SCC iter.                  ...        0 min,  0.138 sec
     gradient                   ...        0 min,  0.049 sec
 * total energy  :  -245.5417128 Eh     change       -0.1213133E-03 Eh
   gradient norm :     0.0034262 Eh/α   predicted    -0.8757098E-04 ( -27.81%)
   displ. norm   :     0.2502781 α      lambda       -0.3484339E-03
   maximum displ.:     0.0922883 α      in ANC's #7, #2, #3, ...

........................................................................
.............................. CYCLE   45 ..............................
........................................................................
   1   -248.8994157 -0.248899E+03  0.106E-01    0.22       0.0  T
   2   -248.8994326 -0.169104E-04  0.591E-02    0.22       1.0  T
   3   -248.8993742  0.583858E-04  0.207E-02    0.23       1.0  T
   4   -248.8994409 -0.667484E-04  0.507E-03    0.22       1.8  T
   5   -248.8994428 -0.184503E-05  0.297E-03    0.22       3.0  T
   6   -248.8994433 -0.478047E-06  0.188E-03    0.22       4.8  T
   7   -248.8994435 -0.282034E-06  0.118E-03    0.22       7.7  T
   8   -248.8994436 -0.918650E-07  0.800E-04    0.22      11.3  T
   9   -248.8994437 -0.209187E-07  0.541E-04    0.22      16.7  T
     SCC iter.                  ...        0 min,  0.181 sec
     gradient                   ...        0 min,  0.049 sec
 * total energy  :  -245.5415838 Eh     change        0.1289337E-03 Eh
   gradient norm :     0.0114999 Eh/α   predicted    -0.1851297E-03 (-243.59%)
   displ. norm   :     0.0871720 α      lambda       -0.5498136E-03
   maximum displ.:     0.0313720 α      in ANC's #12, #15, #6, ...

........................................................................
.............................. CYCLE   46 ..............................
........................................................................
   1   -248.8960109 -0.248896E+03  0.752E-02    0.22       0.0  T
   2   -248.8960193 -0.843586E-05  0.415E-02    0.22       1.0  T
   3   -248.8960127  0.665030E-05  0.835E-03    0.22       1.1  T
   4   -248.8960227 -0.100756E-04  0.221E-03    0.22       4.1  T
   5   -248.8960228 -0.692553E-07  0.166E-03    0.22       5.5  T
   6   -248.8960231 -0.297565E-06  0.742E-04    0.22      12.2  T
   7   -248.8960232 -0.586672E-07  0.386E-04    0.22      23.5  T
     SCC iter.                  ...        0 min,  0.143 sec
     gradient                   ...        0 min,  0.049 sec
 * total energy  :  -245.5418942 Eh     change       -0.3103298E-03 Eh
   gradient norm :     0.0046270 Eh/α   predicted    -0.2769992E-03 ( -10.74%)
   displ. norm   :     0.1179378 α      lambda       -0.1238029E-03
   maximum displ.:     0.0520403 α      in ANC's #7, #3, #8, ...

........................................................................
.............................. CYCLE   47 ..............................
........................................................................
   1   -248.8923401 -0.248892E+03  0.351E-02    0.22       0.0  T
   2   -248.8923417 -0.160274E-05  0.194E-02    0.22       1.0  T
   3   -248.8923382  0.345066E-05  0.501E-03    0.22       1.8  T
   4   -248.8923421 -0.384783E-05  0.189E-03    0.22       4.8  T
   5   -248.8923424 -0.310739E-06  0.113E-03    0.22       8.0  T
   6   -248.8923425 -0.113330E-06  0.515E-04    0.22      17.6  T
   7   -248.8923425 -0.186842E-07  0.312E-04    0.22      29.0  T
     SCC iter.                  ...        0 min,  0.147 sec
     gradient                   ...        0 min,  0.049 sec
 * total energy  :  -245.5419748 Eh     change       -0.8063339E-04 Eh
   gradient norm :     0.0032686 Eh/α   predicted    -0.6276262E-04 ( -22.16%)
   displ. norm   :     0.3418016 α      lambda       -0.2562866E-03
   maximum displ.:     0.1460139 α      in ANC's #7, #3, #8, ...

........................................................................
.............................. CYCLE   48 ..............................
........................................................................
   1   -248.8854998 -0.248885E+03  0.554E-02    0.23       0.0  T
   2   -248.8855038 -0.402133E-05  0.304E-02    0.23       1.0  T
   3   -248.8854949  0.888658E-05  0.854E-03    0.23       1.1  T
   4   -248.8855029 -0.791400E-05  0.466E-03    0.23       1.9  T
   5   -248.8855050 -0.211759E-05  0.267E-03    0.23       3.4  T
   6   -248.8855058 -0.787555E-06  0.102E-03    0.23       8.8  T
   7   -248.8855058 -0.661173E-07  0.639E-04    0.23      14.2  T
   8   -248.8855058 -0.916930E-08  0.452E-04    0.23      20.0  T
     SCC iter.                  ...        0 min,  0.171 sec
     gradient                   ...        0 min,  0.049 sec
 * total energy  :  -245.5421492 Eh     change       -0.1743752E-03 Eh
   gradient norm :     0.0049984 Eh/α   predicted    -0.1431153E-03 ( -17.93%)
   displ. norm   :     0.5287153 α      lambda       -0.3507102E-03
   maximum displ.:     0.2345481 α      in ANC's #7, #3, #8, ...

........................................................................
.............................. CYCLE   49 ..............................
........................................................................
   1   -248.8803971 -0.248880E+03  0.920E-02    0.23       0.0  T
   2   -248.8804076 -0.104497E-04  0.506E-02    0.23       1.0  T
   3   -248.8803901  0.174449E-04  0.125E-02    0.23       1.0  T
   4   -248.8804070 -0.168427E-04  0.662E-03    0.23       1.4  T
   5   -248.8804104 -0.336322E-05  0.412E-03    0.23       2.2  T
   6   -248.8804125 -0.214188E-05  0.143E-03    0.23       6.3  T
   7   -248.8804127 -0.161175E-06  0.824E-04    0.23      11.0  T
   8   -248.8804127 -0.146055E-07  0.576E-04    0.23      15.7  T
     SCC iter.                  ...        0 min,  0.176 sec
     gradient                   ...        0 min,  0.049 sec
 * total energy  :  -245.5422287 Eh     change       -0.7955290E-04 Eh
   gradient norm :     0.0092538 Eh/α   predicted    -0.2243784E-03 ( 182.05%)
   displ. norm   :     0.3348952 α      lambda       -0.4574982E-03
   maximum displ.:     0.1435992 α      in ANC's #7, #2, #3, ...

........................................................................
.............................. CYCLE   50 ..............................
........................................................................
   1   -248.8840493 -0.248884E+03  0.817E-02    0.23       0.0  T
   2   -248.8840584 -0.914461E-05  0.448E-02    0.23       1.0  T
   3   -248.8840452  0.132589E-04  0.110E-02    0.23       1.0  T
   4   -248.8840610 -0.158349E-04  0.411E-03    0.23       2.2  T
   5   -248.8840618 -0.789491E-06  0.278E-03    0.23       3.3  T
   6   -248.8840628 -0.976521E-06  0.112E-03    0.23       8.1  T
   7   -248.8840629 -0.137133E-06  0.580E-04    0.23      15.6  T
   8   -248.8840629 -0.956064E-08  0.431E-04    0.23      21.0  T
     SCC iter.                  ...        0 min,  0.164 sec
     gradient                   ...        0 min,  0.049 sec
 * total energy  :  -245.5425422 Eh     change       -0.3134409E-03 Eh
   gradient norm :     0.0060832 Eh/α   predicted    -0.2544057E-03 ( -18.83%)
   displ. norm   :     0.4624764 α      lambda       -0.2870552E-03
   maximum displ.:     0.2118931 α      in ANC's #7, #3, #8, ...

........................................................................
.............................. CYCLE   51 ..............................
........................................................................
   1   -248.8870949 -0.248887E+03  0.677E-02    0.23       0.0  T
   2   -248.8871006 -0.566769E-05  0.369E-02    0.23       1.0  T
   3   -248.8870902  0.103425E-04  0.997E-03    0.23       1.0  T
   4   -248.8870999 -0.963221E-05  0.525E-03    0.23       1.7  T
   5   -248.8871017 -0.183425E-05  0.328E-03    0.23       2.8  T
   6   -248.8871032 -0.147363E-05  0.115E-03    0.23       7.9  T
   7   -248.8871033 -0.107990E-06  0.656E-04    0.23      13.8  T
   8   -248.8871033 -0.486099E-08  0.497E-04    0.23      18.2  T
     SCC iter.                  ...        0 min,  0.166 sec
     gradient                   ...        0 min,  0.049 sec
 * total energy  :  -245.5427862 Eh     change       -0.2440043E-03 Eh
   gradient norm :     0.0046915 Eh/α   predicted    -0.1742270E-03 ( -28.60%)
   displ. norm   :     0.6588635 α      lambda       -0.4099805E-03
   maximum displ.:     0.3112302 α      in ANC's #7, #3, #8, ...

........................................................................
.............................. CYCLE   52 ..............................
........................................................................
   1   -248.8935114 -0.248894E+03  0.809E-02    0.23       0.0  T
   2   -248.8935196 -0.821230E-05  0.437E-02    0.23       1.0  T
   3   -248.8935027  0.169080E-04  0.134E-02    0.22       1.0  T
   4   -248.8935184 -0.156453E-04  0.688E-03    0.23       1.3  T
   5   -248.8935205 -0.212928E-05  0.447E-03    0.23       2.0  T
   6   -248.8935233 -0.281110E-05  0.175E-03    0.23       5.2  T
   7   -248.8935236 -0.285945E-06  0.955E-04    0.23       9.5  T
   8   -248.8935236 -0.125972E-07  0.718E-04    0.23      12.6  T
     SCC iter.                  ...        0 min,  0.167 sec
     gradient                   ...        0 min,  0.049 sec
 * total energy  :  -245.5431455 Eh     change       -0.3593492E-03 Eh
   gradient norm :     0.0046268 Eh/α   predicted    -0.2939795E-03 ( -18.19%)
   displ. norm   :     0.7884194 α      lambda       -0.4863438E-03
   maximum displ.:     0.3753239 α      in ANC's #7, #3, #8, ...

........................................................................
.............................. CYCLE   53 ..............................
........................................................................
   1   -248.8950536 -0.248895E+03  0.105E-01    0.22       0.0  T
   2   -248.8950670 -0.134071E-04  0.569E-02    0.23       1.0  T
   3   -248.8950359  0.310985E-04  0.176E-02    0.22       1.0  T
   4   -248.8950693 -0.333988E-04  0.755E-03    0.23       1.2  T
   5   -248.8950715 -0.212359E-05  0.453E-03    0.23       2.0  T
   6   -248.8950737 -0.221757E-05  0.229E-03    0.23       4.0  T
   7   -248.8950742 -0.558840E-06  0.128E-03    0.23       7.1  T
   8   -248.8950743 -0.382782E-07  0.956E-04    0.23       9.5  T
   9   -248.8950743 -0.340797E-07  0.583E-04    0.23      15.5  T
     SCC iter.                  ...        0 min,  0.188 sec
     gradient                   ...        0 min,  0.051 sec
 * total energy  :  -245.5435567 Eh     change       -0.4111434E-03 Eh
   gradient norm :     0.0070762 Eh/α   predicted    -0.3943361E-03 (  -4.09%)
   displ. norm   :     0.7267213 α      lambda       -0.5272288E-03
   maximum displ.:     0.3419516 α      in ANC's #7, #3, #8, ...

........................................................................
.............................. CYCLE   54 ..............................
........................................................................
   1   -248.8959278 -0.248896E+03  0.948E-02    0.22       0.0  T
   2   -248.8959388 -0.109810E-04  0.514E-02    0.23       1.0  T
   3   -248.8958871  0.516312E-04  0.202E-02    0.21       1.0  T
   4   -248.8959436 -0.564577E-04  0.687E-03    0.23       1.3  T
   5   -248.8959456 -0.201203E-05  0.389E-03    0.23       2.3  T
   6   -248.8959467 -0.111209E-05  0.201E-03    0.23       4.5  T
   7   -248.8959471 -0.362232E-06  0.121E-03    0.23       7.5  T
   8   -248.8959471 -0.367537E-07  0.938E-04    0.23       9.7  T
   9   -248.8959471 -0.342734E-07  0.608E-04    0.23      14.9  T
     SCC iter.                  ...        0 min,  0.196 sec
     gradient                   ...        0 min,  0.049 sec
 * total energy  :  -245.5439674 Eh     change       -0.4107790E-03 Eh
[...]

 Mol. C6AA /au·bohr⁶  :     340548.817753
 Mol. C8AA /au·bohr⁸  :   10501033.434128
 Mol. α(0) /au        :        931.020819


Wiberg/Mayer (AO) data.
largest (>0.10) Wiberg bond orders for each atom

 ---------------------------------------------------------------------------
     #   Z sym  total        # sym  WBO       # sym  WBO       # sym  WBO
 ---------------------------------------------------------------------------
     1   6 C    3.943 --     2 C    1.518    19 C    1.273    91 H    0.939
     2   6 C    3.948 --     1 C    1.518    13 C    1.140     3 C    1.048
     3   6 C    3.924 --     4 O    1.744     2 C    1.048     5 C    1.018
     4   8 O    2.134 --     3 C    1.744    43 S    0.108
     5   6 C    3.972 --    11 C    1.379     6 C    1.288     3 C    1.018
     6   6 C    3.981 --     7 C    1.399     5 C    1.288    13 C    1.084
     7   6 C    3.974 --     8 C    1.422     6 C    1.399    92 H    0.957
     8   6 C    3.977 --     7 C    1.422     9 C    1.414    93 H    0.964
     9   6 C    3.933 --     8 C    1.414    11 C    1.329    10 Br   1.013
    10  35 Br   1.163 --     9 C    1.013
    11   6 C    3.930 --     5 C    1.379     9 C    1.329    12 Cl   1.038
    12  17 Cl   1.228 --    11 C    1.038
    13   6 C    3.968 --    14 C    1.484     2 C    1.140     6 C    1.084
    14   6 C    3.952 --    13 C    1.484    17 C    1.098    15 C    1.095
    15   6 C    3.945 --    16 N    2.766    14 C    1.095
    16   7 N    2.968 --    15 C    2.766
    17   6 C    3.945 --    18 N    2.754    14 C    1.098
    18   7 N    2.965 --    17 C    2.754
    19   6 C    3.938 --    20 C    1.412     1 C    1.273    43 S    1.100
    20   6 C    3.963 --    19 C    1.412    21 C    1.317    94 H    0.952
                            43 S    0.104
    21   6 C    3.967 --    20 C    1.317    42 C    1.227    22 C    1.220
    22   6 C    3.934 --    31 C    1.354    21 C    1.220    23 C    1.140
    23   6 C    3.927 --    24 C    1.489    22 C    1.140    30 S    1.095
    24   6 C    3.950 --    23 C    1.489    25 C    1.332    95 H    0.952
    25   6 C    3.966 --    26 C    1.493    24 C    1.332    96 H    0.962
    26   6 C    3.903 --    25 C    1.493    30 S    1.157    27 S    1.103
    27  16 S    2.308 --    26 C    1.103    28 C    0.977
    28   6 C    3.968 --    29 C    1.026    27 S    0.977    97 H    0.970
                            98 H    0.965
    29   6 C    3.991 --    28 C    1.026    99 H    0.986   101 H    0.982
                           100 H    0.977
    30  16 S    2.586 --    26 C    1.157    23 C    1.095
    31   6 C    3.943 --    22 C    1.354    32 C    1.253    46 S    1.110
    32   6 C    3.957 --    33 C    1.256    31 C    1.253    44 C    1.233
    33   6 C    3.934 --    42 C    1.352    32 C    1.256    34 C    1.113
    34   6 C    3.933 --    35 C    1.508    41 S    1.121    33 C    1.113
    35   6 C    3.969 --    34 C    1.508    36 C    1.311   102 H    0.959
    36   6 C    3.967 --    37 C    1.509    35 C    1.311   103 H    0.961
    37   6 C    3.909 --    36 C    1.509    41 S    1.162    38 S    1.088
    38  16 S    2.281 --    37 C    1.088    39 C    0.976
    39   6 C    3.974 --    40 C    1.026    38 S    0.976   104 H    0.972
                           105 H    0.970
    40   6 C    3.991 --    39 C    1.026   107 H    0.986   106 H    0.984
                           108 H    0.978
    41  16 S    2.608 --    37 C    1.162    34 C    1.121
    42   6 C    3.950 --    33 C    1.352    21 C    1.227    43 S    1.138
    43  16 S    2.685 --    42 C    1.138    19 C    1.100     4 O    0.108
                            20 C    0.104
    44   6 C    3.970 --    45 C    1.564    32 C    1.233   109 H    0.955
    45   6 C    3.922 --    44 C    1.564    46 S    1.112    47 C    1.087
    46  16 S    2.548 --    45 C    1.112    31 C    1.110
    47   6 C    3.978 --    57 C    1.342    48 C    1.312    45 C    1.087
    48   6 C    3.879 --    50 C    1.371    47 C    1.312    49 F    0.975
    49   9 F    1.119 --    48 C    0.975
    50   6 C    3.885 --    48 C    1.371    52 C    1.332    51 F    0.978
    51   9 F    1.112 --    50 C    0.978
    52   6 C    3.966 --    50 C    1.332    53 C    1.327    61 C    1.023
    53   6 C    3.940 --    52 C    1.327    57 C    1.299    54 O    1.099
    54   8 O    2.264 --    53 C    1.099    55 C    0.955
    55   6 C    3.934 --    56 C    1.011   111 H    0.968   110 H    0.958
                            54 O    0.955
    56   6 C    3.990 --    55 C    1.011   113 H    0.985   112 H    0.983
                           114 H    0.979
    57   6 C    3.940 --    47 C    1.342    53 C    1.299    58 O    1.039
    58   8 O    2.144 --    57 C    1.039    59 C    0.945
    59   6 C    3.940 --    60 C    1.012   116 H    0.970   115 H    0.968
                            58 O    0.945
    60   6 C    3.993 --    59 C    1.012   119 H    0.986   118 H    0.984
                           117 H    0.984
    61   6 C    3.941 --    72 C    1.298    62 C    1.282    52 C    1.023
    62   6 C    3.973 --    66 N    1.341    61 C    1.282    63 C    1.131
    63   6 C    3.964 --    64 N    1.372    67 C    1.240    62 C    1.131
    64   7 N    3.072 --    65 S    1.440    63 C    1.372    66 N    0.167
    65  16 S    3.179 --    66 N    1.464    64 N    1.440
    66   7 N    3.058 --    65 S    1.464    62 C    1.341    64 N    0.167
    67   6 C    3.968 --    68 C    1.245    63 C    1.240    73 C    1.201
    68   6 C    3.962 --    69 N    1.369    67 C    1.245    72 C    1.131
    69   7 N    3.079 --    70 S    1.446    68 C    1.369    71 N    0.167
    70  16 S    3.193 --    71 N    1.470    69 N    1.446
    71   7 N    3.063 --    70 S    1.470    72 C    1.331    69 N    0.167
    72   6 C    3.974 --    71 N    1.331    61 C    1.298    68 C    1.131
    73   6 C    3.948 --    74 C    1.563    67 C    1.201   120 H    0.941
    74   6 C    3.960 --    73 C    1.563    85 C    1.136    75 C    1.025
    75   6 C    3.927 --    76 O    1.771    74 C    1.025    77 C    1.016
    76   8 O    2.061 --    75 C    1.771
    77   6 C    3.974 --    83 C    1.381    78 C    1.289    75 C    1.016
    78   6 C    3.983 --    79 C    1.398    77 C    1.289    85 C    1.084
    79   6 C    3.976 --    80 C    1.424    78 C    1.398   121 H    0.957
    80   6 C    3.977 --    79 C    1.424    81 C    1.411   122 H    0.964
    81   6 C    3.933 --    80 C    1.411    83 C    1.333    82 Br   1.012
    82  35 Br   1.163 --    81 C    1.012
    83   6 C    3.930 --    77 C    1.381    81 C    1.333    84 Cl   1.030
    84  17 Cl   1.216 --    83 C    1.030
    85   6 C    3.975 --    86 C    1.493    74 C    1.136    78 C    1.084
    86   6 C    3.945 --    85 C    1.493    89 C    1.095    87 C    1.094
    87   6 C    3.947 --    88 N    2.767    86 C    1.094
    88   7 N    2.970 --    87 C    2.767
    89   6 C    3.946 --    90 N    2.767    86 C    1.095
    90   7 N    2.969 --    89 C    2.767
    91   1 H    0.994 --     1 C    0.939
    92   1 H    0.993 --     7 C    0.957
    93   1 H    0.993 --     8 C    0.964
    94   1 H    0.995 --    20 C    0.952
    95   1 H    0.996 --    24 C    0.952
    96   1 H    0.997 --    25 C    0.962
    97   1 H    0.995 --    28 C    0.970
    98   1 H    0.995 --    28 C    0.965
    99   1 H    0.997 --    29 C    0.986
   100   1 H    0.997 --    29 C    0.977
   101   1 H    0.997 --    29 C    0.982
   102   1 H    0.998 --    35 C    0.959
   103   1 H    0.997 --    36 C    0.961
   104   1 H    0.997 --    39 C    0.972
   105   1 H    0.996 --    39 C    0.970
   106   1 H    0.997 --    40 C    0.984
   107   1 H    0.997 --    40 C    0.986
   108   1 H    0.997 --    40 C    0.978
   109   1 H    0.995 --    44 C    0.955
   110   1 H    0.999 --    55 C    0.958
   111   1 H    0.994 --    55 C    0.968
   112   1 H    0.997 --    56 C    0.983
   113   1 H    0.997 --    56 C    0.985
   114   1 H    0.997 --    56 C    0.979
   115   1 H    0.999 --    59 C    0.968
   116   1 H    0.996 --    59 C    0.970
   117   1 H    0.998 --    60 C    0.984
   118   1 H    0.996 --    60 C    0.984
   119   1 H    0.998 --    60 C    0.986
   120   1 H    0.990 --    73 C    0.941
   121   1 H    0.993 --    79 C    0.957
   122   1 H    0.993 --    80 C    0.964
 ---------------------------------------------------------------------------

Topologies differ in bond orders
Writing corrected topology to xtbtopo.mol

molecular dipole:
                 x           y           z       tot (Debye)
 q only:        0.100       0.285      -2.145
   full:        0.508      -0.243      -2.411       6.293
molecular quadrupole (traceless):
                xx          xy          yy          xz          yz          zz
 q only:      -39.091      44.926      37.042     -30.029      14.248       2.048
  q+dip:      -83.655      64.368      49.363     -39.205      25.815      34.292
   full:      -92.558      68.700      49.802     -41.997      27.042      42.755

           -------------------------------------------------
          |                Geometry Summary                 |
           -------------------------------------------------

      molecular mass/u    :     1502.2204833
   center of mass at/Å    :       -0.4927932      -0.0661071      -0.0686619
  moments of inertia/u·Å² :        0.1841802E+05   0.1219845E+06   0.1321811E+06
rotational constants/cm⁻¹ :        0.9152791E-03   0.1381948E-03   0.1275344E-03

 * 114 selected distances

     #   Z          #   Z                                           value/Å
     1   6 C        2   6 C                                       1.3684490
     3   6 C        4   8 O                                       1.2126800
     5   6 C        6   6 C                                       1.4076464
     6   6 C        7   6 C                                       1.3859807
     7   6 C        8   6 C                                       1.3871658
     8   6 C        9   6 C                                       1.3866043
     9   6 C       10  35 Br                                      1.8884343
     5   6 C       11   6 C                                       1.3856960
     9   6 C       11   6 C                                       1.3999112
    11   6 C       12  17 Cl                                      1.7114553
    13   6 C       14   6 C                                       1.3716692
    15   6 C       16   7 N                                       1.1478920
    17   6 C       18   7 N                                       1.1490540
     1   6 C       19   6 C                                       1.4069149
    19   6 C       20   6 C                                       1.3850131
    20   6 C       21   6 C                                       1.3999007
    21   6 C       22   6 C                                       1.4211775
    23   6 C       24   6 C                                       1.3746333
    24   6 C       25   6 C                                       1.3990638
    25   6 C       26   6 C                                       1.3716613
    26   6 C       27  16 S                                       1.7398039
    28   6 C       29   6 C                                       1.5158025
    23   6 C       30  16 S                                       1.7497295
    26   6 C       30  16 S                                       1.7318877
    22   6 C       31   6 C                                       1.3937483
    31   6 C       32   6 C                                       1.4172415
    32   6 C       33   6 C                                       1.4112279
    34   6 C       35   6 C                                       1.3716424
    35   6 C       36   6 C                                       1.4028158
    36   6 C       37   6 C                                       1.3683327
    37   6 C       38  16 S                                       1.7448008
    39   6 C       40   6 C                                       1.5158906
    34   6 C       41  16 S                                       1.7449532
    37   6 C       41  16 S                                       1.7333017
    21   6 C       42   6 C                                       1.4217578
    33   6 C       42   6 C                                       1.3929405
    19   6 C       43  16 S                                       1.7489861
    42   6 C       43  16 S                                       1.7390697
    32   6 C       44   6 C                                       1.4165804
    44   6 C       45   6 C                                       1.3616793
    31   6 C       46  16 S                                       1.7421978
    45   6 C       46  16 S                                       1.7449048
    47   6 C       48   6 C                                       1.3970153
    48   6 C       50   6 C                                       1.3794210
    50   6 C       52   6 C                                       1.3940193
    52   6 C       53   6 C                                       1.4001992
    53   6 C       54   8 O                                       1.3509238
    54   8 O       55   6 C                                       1.4177489
    55   6 C       56   6 C                                       1.5243555
    47   6 C       57   6 C                                       1.4011800
    53   6 C       57   6 C                                       1.4104356
    57   6 C       58   8 O                                       1.3712039
    58   8 O       59   6 C                                       1.4226606
    59   6 C       60   6 C                                       1.5228349
    61   6 C       62   6 C                                       1.3992354
    62   6 C       63   6 C                                       1.4502063
    63   6 C       64   7 N                                       1.3348684
    64   7 N       65  16 S                                       1.6035298
    62   6 C       66   7 N                                       1.3398068
    65  16 S       66   7 N                                       1.5982319
    63   6 C       67   6 C                                       1.4091362
    67   6 C       68   6 C                                       1.4083281
    68   6 C       69   7 N                                       1.3349740
    69   7 N       70  16 S                                       1.5993691
    70  16 S       71   7 N                                       1.5960952
    61   6 C       72   6 C                                       1.3960179
    68   6 C       72   6 C                                       1.4497960
    71   7 N       72   6 C                                       1.3419603
    67   6 C       73   6 C                                       1.4236741
    73   6 C       74   6 C                                       1.3634370
    75   6 C       76   8 O                                       1.2111230
    77   6 C       78   6 C                                       1.4071593
    78   6 C       79   6 C                                       1.3863328
    79   6 C       80   6 C                                       1.3867684
    80   6 C       81   6 C                                       1.3868217
    81   6 C       82  35 Br                                      1.8891311 (max)
    77   6 C       83   6 C                                       1.3853407
    81   6 C       83   6 C                                       1.3989315
    83   6 C       84  17 Cl                                      1.7112815
    85   6 C       86   6 C                                       1.3697769
    87   6 C       88   7 N                                       1.1479050
    89   6 C       90   7 N                                       1.1477593
     1   6 C       91   1 H                                       1.0834547
     7   6 C       92   1 H                                       1.0770027
     8   6 C       93   1 H                                       1.0791260
    20   6 C       94   1 H                                       1.0747351
    24   6 C       95   1 H                                       1.0744466
    25   6 C       96   1 H                                       1.0740817
    28   6 C       97   1 H                                       1.0895978
    28   6 C       98   1 H                                       1.0898663
    29   6 C       99   1 H                                       1.0875249
    29   6 C      100   1 H                                       1.0876897
    29   6 C      101   1 H                                       1.0874815
    35   6 C      102   1 H                                       1.0749767
    36   6 C      103   1 H                                       1.0743384
    39   6 C      104   1 H                                       1.0889271
    39   6 C      105   1 H                                       1.0896467
    40   6 C      106   1 H                                       1.0877779
    40   6 C      107   1 H                                       1.0873401
    40   6 C      108   1 H                                       1.0881116
    44   6 C      109   1 H                                       1.0735044 (min)
    55   6 C      110   1 H                                       1.0939003
    55   6 C      111   1 H                                       1.0934766
    56   6 C      112   1 H                                       1.0867096
    56   6 C      113   1 H                                       1.0869551
    56   6 C      114   1 H                                       1.0879026
    59   6 C      115   1 H                                       1.0979024
    59   6 C      116   1 H                                       1.0924728
    60   6 C      117   1 H                                       1.0865946
    60   6 C      118   1 H                                       1.0865948
    60   6 C      119   1 H                                       1.0881151
    73   6 C      120   1 H                                       1.0823959
    79   6 C      121   1 H                                       1.0770356
    80   6 C      122   1 H                                       1.0791082

 * 8 distinct bonds (by element types)

   Z      Z             #   av. dist./Å        max./Å        min./Å
   1 H    6 C          32     1.0846498     1.0979024     1.0735044
   6 C    6 C          50     1.4058314     1.5243555     1.3616793
   6 C    7 N           8     1.2430275     1.3419603     1.1477593
   6 C    8 O           6     1.3310567     1.4226606     1.2111230
   6 C   16 S          10     1.7419635     1.7497295     1.7318877
   7 N   16 S           4     1.5993065     1.6035298     1.5960952
   6 C   17 Cl          2     1.7113684     1.7114553     1.7112815
   6 C   35 Br          2     1.8887827     1.8891311     1.8884343


optimized geometry written to: xtbopt.mol


           -------------------------------------------------
          | TOTAL ENERGY             -245.567226184601 Eh   |
          | GRADIENT NORM               0.000300901759 Eh/α |
          | HOMO-LUMO GAP               0.161949820244 eV   |
           -------------------------------------------------

------------------------------------------------------------------------
 * finished run on 2022/02/04 at 05:31:31.169     
------------------------------------------------------------------------
 total:
 * wall-time:     0 d,  0 h,  1 min, 14.739 sec
 *  cpu-time:     0 d,  0 h,  9 min, 57.781 sec
 * ratio c/w:     7.998 speedup
 SCF:
 * wall-time:     0 d,  0 h,  0 min,  0.473 sec
 *  cpu-time:     0 d,  0 h,  0 min,  3.785 sec
 * ratio c/w:     7.996 speedup
 ANC optimizer:
 * wall-time:     0 d,  0 h,  1 min, 14.189 sec
 *  cpu-time:     0 d,  0 h,  9 min, 53.469 sec
 * ratio c/w:     7.999 speedup

