      -----------------------------------------------------------      
     |                   =====================                   |     
     |                           x T B                           |     
     |                   =====================                   |     
     |                         S. Grimme                         |     
     |          Mulliken Center for Theoretical Chemistry        |     
     |                    University of Bonn                     |     
      -----------------------------------------------------------      

   * xtb version 6.4.1 (unknown) compiled by 'oda6@login1.crc.pitt.edu' on 2021-06-25

   xtb is free software: you can redistribute it and/or modify it under
   the terms of the GNU Lesser General Public License as published by
   the Free Software Foundation, either version 3 of the License, or
   (at your option) any later version.
   
   xtb is distributed in the hope that it will be useful,
   but WITHOUT ANY WARRANTY; without even the implied warranty of
   MERCHANTABILITY or FITNESS FOR A PARTICULAR PURPOSE.  See the
   GNU Lesser General Public License for more details.
   
   Cite this work as:
   * C. Bannwarth, E. Caldeweyher, S. Ehlert, A. Hansen, P. Pracht,
     J. Seibert, S. Spicher, S. Grimme, WIREs Comput. Mol. Sci., 2020, 11,
     e01493. DOI: 10.1002/wcms.1493
   
   for GFN2-xTB:
   * C. Bannwarth, S. Ehlert and S. Grimme., J. Chem. Theory Comput., 2019,
     15, 1652-1671. DOI: 10.1021/acs.jctc.8b01176
   for GFN1-xTB:
   * S. Grimme, C. Bannwarth, P. Shushkov, J. Chem. Theory Comput., 2017,
     13, 1989-2009. DOI: 10.1021/acs.jctc.7b00118
   for GFN0-xTB:
   * P. Pracht, E. Caldeweyher, S. Ehlert, S. Grimme, ChemRxiv, 2019, preprint.
     DOI: 10.26434/chemrxiv.8326202.v1
   for GFN-FF:
   * S. Spicher and S. Grimme, Angew. Chem. Int. Ed., 2020, 59, 15665-15673.
     DOI: 10.1002/anie.202004239
   
   for DFT-D4:
   * E. Caldeweyher, C. Bannwarth and S. Grimme, J. Chem. Phys., 2017,
     147, 034112. DOI: 10.1063/1.4993215
   * E. Caldeweyher, S. Ehlert, A. Hansen, H. Neugebauer, S. Spicher,
     C. Bannwarth and S. Grimme, J. Chem. Phys., 2019, 150, 154122.
     DOI: 10.1063/1.5090222
   * E. Caldeweyher, J.-M. Mewes, S. Ehlert and S. Grimme, Phys. Chem. Chem. Phys.
     2020, 22, 8499-8512. DOI: 10.1039/D0CP00502A
   
   for sTDA-xTB:
   * S. Grimme and C. Bannwarth, J. Chem. Phys., 2016, 145, 054103.
     DOI: 10.1063/1.4959605
   
   in the mass-spec context:
   * V. Asgeirsson, C. Bauer and S. Grimme, Chem. Sci., 2017, 8, 4879.
     DOI: 10.1039/c7sc00601b
   * J. Koopman and S. Grimme, ACS Omega 2019, 4, 12, 15120-15133.
     DOI: 10.1021/acsomega.9b02011
   
   for metadynamics refer to:
   * S. Grimme, J. Chem. Theory Comput., 2019, 155, 2847-2862
     DOI: 10.1021/acs.jctc.9b00143
   
   for SPH calculations refer to:
   * S. Spicher and S. Grimme, J. Chem. Theory Comput., 2021, 17, 1701-1714
     DOI: 10.1021/acs.jctc.0c01306
   
   with help from (in alphabetical order)
   P. Atkinson, C. Bannwarth, F. Bohle, G. Brandenburg, E. Caldeweyher
   M. Checinski, S. Dohm, S. Ehlert, S. Ehrlich, I. Gerasimov, J. Koopman
   C. Lavigne, S. Lehtola, F. März, M. Müller, F. Musil, H. Neugebauer
   J. Pisarek, C. Plett, P. Pracht, J. Seibert, P. Shushkov, S. Spicher
   M. Stahn, M. Steiner, T. Strunk, J. Stückrath, T. Rose, and J. Unsleber
   
 * started run on 2022/02/11 at 03:56:52.153     

           -------------------------------------------------
          |                Calculation Setup                |
           -------------------------------------------------

          program call               : /ihome/ghutchison/oda6/xtb/xtb-641/bin/xtb ../../FF_optimized/65_16_130_16_65.mol -opt
          hostname                   : smp-n25
          coordinate file            : ../../FF_optimized/65_16_130_16_65.mol
          omp threads                :                     8
          number of atoms            :                   126
          number of electrons        :                   452
          charge                     :                     0
          spin                       :                   0.0
          first test random number   :      0.59151003429589

   ID    Z sym.   atoms
    1    6 C      1-3, 5, 6, 8, 10, 12, 14-17, 19, 21-24, 26, 27, 29-32,
                  34-40, 42-45, 47, 48, 50-53, 55-61, 63-66, 68-71, 73-75,
                  77, 78, 80, 82, 84, 86-89, 91
    2    8 O      4, 25, 72, 76
    3   17 Cl     7, 9, 11, 13, 79, 81, 83, 85
    4    7 N      18, 20, 28, 49, 90, 92
    5   16 S      33, 41, 46, 54, 62, 67
    6    1 H      93-126
########################################################################
[WARNING] Please study the warnings concerning your input carefully
-1- prog_main_parseArguments: the use of '-opt' is discouraged, please use '--opt' next time
########################################################################

           -------------------------------------------------
          |                 G F N 2 - x T B                 |
           -------------------------------------------------

        Reference                      10.1021/acs.jctc.8b01176
      * Hamiltonian:
        H0-scaling (s, p, d)           1.850000    2.230000    2.230000
        zeta-weighting                 0.500000
      * Dispersion:
        s8                             2.700000
        a1                             0.520000
        a2                             5.000000
        s9                             5.000000
      * Repulsion:
        kExp                           1.500000    1.000000
        rExp                           1.000000
      * Coulomb:
        alpha                          2.000000
        third order                    shell-resolved
        anisotropic                    true
        a3                             3.000000
        a5                             4.000000
        cn-shift                       1.200000
        cn-exp                         4.000000
        max-rad                        5.000000


          ...................................................
          :                      SETUP                      :
          :.................................................:
          :  # basis functions                 486          :
          :  # atomic orbitals                 472          :
          :  # shells                          232          :
          :  # electrons                       452          :
          :  max. iterations                   250          :
          :  Hamiltonian                  GFN2-xTB          :
          :  restarted?                      false          :
          :  GBSA solvation                  false          :
          :  PC potential                    false          :
          :  electronic temp.          300.0000000     K    :
          :  accuracy                    1.0000000          :
          :  -> integral cutoff          0.2500000E+02      :
          :  -> integral neglect         0.1000000E-07      :
          :  -> SCF convergence          0.1000000E-05 Eh   :
          :  -> wf. convergence          0.1000000E-03 e    :
          :  Broyden damping             0.4000000          :
          ...................................................

 iter      E             dE          RMSdq      gap      omega  full diag
   1   -255.3246559 -0.255325E+03  0.531E+00    1.14       0.0  T
   2   -255.4575022 -0.132846E+00  0.323E+00    0.74       1.0  T
   3   -255.0231763  0.434326E+00  0.229E+00    0.06       1.0  T
   4   -255.5604188 -0.537242E+00  0.889E-01    0.44       1.0  T
   5   -255.6447818 -0.843631E-01  0.352E-01    0.30       1.0  T
   6   -255.6506286 -0.584677E-02  0.203E-01    0.26       1.0  T
   7   -255.6501723  0.456336E-03  0.180E-01    0.16       1.0  T
   8   -255.6514606 -0.128829E-02  0.101E-01    0.26       1.0  T
   9   -255.6486591  0.280147E-02  0.218E-01    0.13       1.0  T
  10   -255.6523022 -0.364314E-02  0.586E-02    0.21       1.0  T
  11   -255.6521896  0.112612E-03  0.616E-02    0.19       1.0  T
  12   -255.6524139 -0.224321E-03  0.245E-02    0.22       1.0  T
  13   -255.6524210 -0.702247E-05  0.188E-02    0.22       1.0  T
  14   -255.6524398 -0.188371E-04  0.114E-02    0.22       1.0  T
  15   -255.6524459 -0.609381E-05  0.589E-03    0.22       1.5  T
  16   -255.6524462 -0.299645E-06  0.495E-03    0.21       1.8  T
  17   -255.6524477 -0.150898E-05  0.306E-03    0.21       2.9  T
  18   -255.6524483 -0.582552E-06  0.193E-03    0.21       4.6  T
  19   -255.6524485 -0.160585E-06  0.132E-03    0.21       6.8  T
  20   -255.6524485 -0.943118E-07  0.782E-04    0.21      11.4  T
  21   -255.6524486 -0.267096E-07  0.678E-04    0.21      13.1  T

   *** convergence criteria satisfied after 21 iterations ***

         #    Occupation            Energy/Eh            Energy/eV
      -------------------------------------------------------------
         1        2.0000           -1.0906815             -29.6790
       ...           ...                  ...                  ...
       220        2.0000           -0.4001395             -10.8884
       221        2.0000           -0.3814177             -10.3789
       222        1.9999           -0.3721019             -10.1254
       223        1.9950           -0.3680909             -10.0163
       224        1.9870           -0.3671742              -9.9913
       225        1.9857           -0.3670834              -9.9888
       226        1.9814           -0.3668345              -9.9821 (HOMO)
       227        0.0510           -0.3589377              -9.7672 (LUMO)
       228        0.0000           -0.3486908              -9.4884
       229                         -0.3453350              -9.3970
       230                         -0.3433992              -9.3444
       231                         -0.3039691              -8.2714
       ...                                ...                  ...
       472                          1.0705635              29.1315
      -------------------------------------------------------------
                  HL-Gap            0.0078968 Eh            0.2149 eV
             Fermi-level           -0.3623986 Eh           -9.8614 eV

 SCC (total)                   0 d,  0 h,  0 min,  1.557 sec
 SCC setup                      ...        0 min,  0.002 sec (  0.120%)
 Dispersion                     ...        0 min,  0.004 sec (  0.288%)
 classical contributions        ...        0 min,  0.000 sec (  0.017%)
 integral evaluation            ...        0 min,  0.026 sec (  1.699%)
 iterations                     ...        0 min,  1.455 sec ( 93.458%)
 molecular gradient             ...        0 min,  0.066 sec (  4.240%)
 printout                       ...        0 min,  0.003 sec (  0.172%)

         :::::::::::::::::::::::::::::::::::::::::::::::::::::
         ::                     SUMMARY                     ::
         :::::::::::::::::::::::::::::::::::::::::::::::::::::
         :: total energy            -252.344809535810 Eh    ::
         :: gradient norm              0.281889473210 Eh/a0 ::
         :: HOMO-LUMO gap              0.214883764564 eV    ::
         ::.................................................::
         :: SCC energy              -255.652448573074 Eh    ::
         :: -> isotropic ES            0.135071158664 Eh    ::
         :: -> anisotropic ES          0.009660473390 Eh    ::
         :: -> anisotropic XC          0.146643713656 Eh    ::
         :: -> dispersion             -0.231880987960 Eh    ::
         :: repulsion energy           3.299979247376 Eh    ::
         :: add. restraining           0.000000000000 Eh    ::
         :: total charge               0.000000000002 e     ::
         :::::::::::::::::::::::::::::::::::::::::::::::::::::

      ----------------------------------------------------------- 
     |                   =====================                   |
     |                        A N C O P T                        |
     |                   =====================                   |
     |               Approximate Normal Coordinate               |
     |                Rational Function Optimizer                |
      ----------------------------------------------------------- 

          ...................................................
          :                      SETUP                      :
          :.................................................:
          :   optimization level            normal          :
          :   max. optcycles                   378          :
          :   ANC micro-cycles                  20          :
          :   degrees of freedom               372          :
          :.................................................:
          :   RF solver                   davidson          :
          :   write xtbopt.log                true          :
          :   linear?                        false          :
          :   energy convergence         0.5000000E-05 Eh   :
          :   grad. convergence          0.1000000E-02 Eh/α :
          :   maximium RF displ.         1.0000000          :
          :   Hlow (freq-cutoff)         0.1000000E-01      :
          :   Hmax (freq-cutoff)         5.0000000          :
          :   S6 in model hess.         20.0000000          :
          ...................................................

generating ANC from model Hessian ...
Using Lindh-Hessian (1995)
 Shifting diagonal of input Hessian by   9.996780291432325E-003
 Lowest  eigenvalues of input Hessian
    0.000000    0.000000    0.000000    0.000000    0.000000    0.000000
    0.010000    0.010024    0.010033    0.010060    0.010096    0.010111
    0.010133    0.010177    0.010204    0.010245    0.010314    0.010329
 Highest eigenvalues
    2.161024    2.170030    2.479826    2.503234    2.549135    2.561948
 

........................................................................
.............................. CYCLE    1 ..............................
........................................................................
   1   -255.6524486 -0.255652E+03  0.653E-04    0.22       0.0  T
   2   -255.6524484  0.121577E-06  0.118E-03    0.21       7.6  T
   3   -255.6524486 -0.136575E-06  0.317E-04    0.21      28.1  T
   4   -255.6524486 -0.129360E-07  0.155E-04    0.21      57.6  T
     SCC iter.                  ...        0 min,  0.324 sec
     gradient                   ...        0 min,  0.065 sec
 * total energy  :  -252.3448096 Eh     change       -0.1975454E-07 Eh
   gradient norm :     0.2818891 Eh/α   predicted     0.0000000E+00 (-100.00%)
   displ. norm   :     0.4324340 α      lambda       -0.8220091E-01
   maximum displ.:     0.0862518 α      in ANC's #117, #191, #213, ...

........................................................................
.............................. CYCLE    2 ..............................
........................................................................
   1   -255.8221602 -0.255822E+03  0.277E-01    0.20       0.0  T
   2   -255.8236136 -0.145341E-02  0.182E-01    0.27       1.0  T
   3   -255.8202139  0.339972E-02  0.195E-01    0.14       1.0  T
   4   -255.8235323 -0.331840E-02  0.107E-01    0.33       1.0  T
   5   -255.8245266 -0.994233E-03  0.684E-02    0.24       1.0  T
   6   -255.8244560  0.705198E-04  0.561E-02    0.27       1.0  T
   7   -255.8247041 -0.248087E-03  0.345E-02    0.24       1.0  T
   8   -255.8247997 -0.955436E-04  0.131E-02    0.21       1.0  T
   9   -255.8248024 -0.274777E-05  0.101E-02    0.21       1.0  T
  10   -255.8248064 -0.393643E-05  0.694E-03    0.21       1.3  T
  11   -255.8248091 -0.269635E-05  0.439E-03    0.22       2.0  T
  12   -255.8248104 -0.132209E-05  0.157E-03    0.22       5.7  T
  13   -255.8248105 -0.750431E-07  0.101E-03    0.22       8.8  T
  14   -255.8248105 -0.526726E-07  0.624E-04    0.22      14.3  T
  15   -255.8248105 -0.163268E-07  0.453E-04    0.22      19.6  T
     SCC iter.                  ...        0 min,  1.196 sec
     gradient                   ...        0 min,  0.066 sec
 * total energy  :  -252.4040285 Eh     change       -0.5921892E-01 Eh
   gradient norm :     0.1316212 Eh/α   predicted    -0.4882996E-01 ( -17.54%)
   displ. norm   :     0.4607987 α      lambda       -0.3515183E-01
   maximum displ.:     0.1036588 α      in ANC's #60, #78, #61, ...

........................................................................
.............................. CYCLE    3 ..............................
........................................................................
   1   -255.9188817 -0.255919E+03  0.246E-01    0.20       0.0  T
   2   -255.9198115 -0.929801E-03  0.169E-01    0.31       1.0  T
   3   -255.9186432  0.116827E-02  0.157E-01    0.15       1.0  T
   4   -255.9206742 -0.203101E-02  0.926E-02    0.32       1.0  T
   5   -255.9214553 -0.781046E-03  0.577E-02    0.24       1.0  T
   6   -255.9214332  0.220309E-04  0.456E-02    0.26       1.0  T
   7   -255.9216418 -0.208521E-03  0.214E-02    0.24       1.0  T
   8   -255.9216538 -0.120840E-04  0.181E-02    0.21       1.0  T
   9   -255.9216732 -0.193227E-04  0.992E-03    0.22       1.0  T
  10   -255.9216783 -0.517633E-05  0.519E-03    0.22       1.7  T
  11   -255.9216794 -0.106689E-05  0.320E-03    0.22       2.8  T
  12   -255.9216799 -0.465444E-06  0.199E-03    0.22       4.5  T
  13   -255.9216800 -0.158437E-06  0.103E-03    0.22       8.7  T
  14   -255.9216801 -0.494702E-07  0.731E-04    0.22      12.2  T
  15   -255.9216801 -0.249601E-07  0.540E-04    0.22      16.5  T
     SCC iter.                  ...        0 min,  1.214 sec
     gradient                   ...        0 min,  0.066 sec
 * total energy  :  -252.4255288 Eh     change       -0.2150033E-01 Eh
   gradient norm :     0.0412770 Eh/α   predicted    -0.2130793E-01 (  -0.89%)
   displ. norm   :     0.5034522 α      lambda       -0.9179678E-02
   maximum displ.:     0.1374976 α      in ANC's #60, #78, #61, ...

........................................................................
.............................. CYCLE    4 ..............................
........................................................................
   1   -255.9432351 -0.255943E+03  0.175E-01    0.23       0.0  T
   2   -255.9433492 -0.114120E-03  0.107E-01    0.23       1.0  T
   3   -255.9424780  0.871164E-03  0.842E-02    0.20       1.0  T
   4   -255.9434399 -0.961881E-03  0.393E-02    0.28       1.0  T
   5   -255.9436798 -0.239876E-03  0.159E-02    0.22       1.0  T
   6   -255.9437019 -0.221086E-04  0.993E-03    0.24       1.0  T
   7   -255.9437078 -0.587651E-05  0.625E-03    0.23       1.4  T
   8   -255.9437090 -0.126342E-05  0.436E-03    0.23       2.0  T
   9   -255.9437098 -0.739896E-06  0.288E-03    0.23       3.1  T
  10   -255.9437101 -0.331549E-06  0.174E-03    0.23       5.1  T
  11   -255.9437103 -0.207494E-06  0.965E-04    0.23       9.2  T
  12   -255.9437104 -0.537590E-07  0.595E-04    0.23      15.0  T
     SCC iter.                  ...        0 min,  0.957 sec
     gradient                   ...        0 min,  0.065 sec
 * total energy  :  -252.4316950 Eh     change       -0.6166149E-02 Eh
   gradient norm :     0.0263021 Eh/α   predicted    -0.5753214E-02 (  -6.70%)
   displ. norm   :     0.6438771 α      lambda       -0.7668174E-02
   maximum displ.:     0.1811717 α      in ANC's #61, #21, #60, ...

........................................................................
.............................. CYCLE    5 ..............................
........................................................................
   1   -255.9583398 -0.255958E+03  0.308E-01    0.24       0.0  T
   2   -255.9584704 -0.130608E-03  0.176E-01    0.25       1.0  T
   3   -255.9536261  0.484436E-02  0.158E-01    0.17       1.0  T
   4   -255.9584985 -0.487240E-02  0.525E-02    0.31       1.0  T
   5   -255.9589273 -0.428890E-03  0.205E-02    0.25       1.0  T
   6   -255.9589315 -0.413602E-05  0.141E-02    0.25       1.0  T
   7   -255.9589564 -0.248734E-04  0.538E-03    0.24       1.7  T
   8   -255.9589573 -0.902454E-06  0.393E-03    0.24       2.3  T
   9   -255.9589579 -0.688258E-06  0.275E-03    0.24       3.2  T
  10   -255.9589583 -0.374962E-06  0.195E-03    0.24       4.6  T
  11   -255.9589585 -0.184189E-06  0.129E-03    0.24       6.9  T
  12   -255.9589586 -0.582219E-07  0.957E-04    0.24       9.3  T
  13   -255.9589586 -0.789178E-07  0.503E-04    0.24      17.7  T
     SCC iter.                  ...        0 min,  1.192 sec
     gradient                   ...        0 min,  0.081 sec
 * total energy  :  -252.4354726 Eh     change       -0.3777641E-02 Eh
   gradient norm :     0.0319664 Eh/α   predicted    -0.5423625E-02 (  43.57%)
   displ. norm   :     0.4639771 α      lambda       -0.4438838E-02
   maximum displ.:     0.1473681 α      in ANC's #41, #25, #32, ...

........................................................................
.............................. CYCLE    6 ..............................
........................................................................
   1   -255.9621710 -0.255962E+03  0.171E-01    0.24       0.0  T
   2   -255.9621959 -0.248639E-04  0.977E-02    0.26       1.0  T
   3   -255.9603851  0.181075E-02  0.944E-02    0.18       1.0  T
   4   -255.9621965 -0.181135E-02  0.287E-02    0.28       1.0  T
   5   -255.9623090 -0.112551E-03  0.971E-03    0.25       1.0  T
   6   -255.9623097 -0.657733E-06  0.695E-03    0.25       1.3  T
   7   -255.9623157 -0.602971E-05  0.267E-03    0.24       3.3  T
   8   -255.9623159 -0.168608E-06  0.205E-03    0.24       4.4  T
   9   -255.9623161 -0.211037E-06  0.142E-03    0.24       6.3  T
  10   -255.9623162 -0.915444E-07  0.100E-03    0.24       8.9  T
  11   -255.9623163 -0.502022E-07  0.584E-04    0.24      15.3  T
     SCC iter.                  ...        0 min,  0.889 sec
     gradient                   ...        0 min,  0.080 sec
 * total energy  :  -252.4383862 Eh     change       -0.2913627E-02 Eh
   gradient norm :     0.0354589 Eh/α   predicted    -0.2697213E-02 (  -7.43%)
   displ. norm   :     0.5408690 α      lambda       -0.3715433E-02
   maximum displ.:     0.1690862 α      in ANC's #25, #32, #16, ...

........................................................................
.............................. CYCLE    7 ..............................
........................................................................
   1   -255.9609702 -0.255961E+03  0.139E-01    0.28       0.0  T
   2   -255.9610069 -0.367439E-04  0.810E-02    0.25       1.0  T
   3   -255.9605429  0.463991E-03  0.576E-02    0.27       1.0  T
   4   -255.9610732 -0.530260E-03  0.994E-03    0.26       1.0  T
   5   -255.9610822 -0.902414E-05  0.507E-03    0.26       1.8  T
   6   -255.9610836 -0.143026E-05  0.293E-03    0.26       3.0  T
   7   -255.9610839 -0.245013E-06  0.224E-03    0.26       4.0  T
   8   -255.9610842 -0.361242E-06  0.151E-03    0.26       5.9  T
   9   -255.9610843 -0.823226E-07  0.107E-03    0.26       8.3  T
  10   -255.9610844 -0.598369E-07  0.615E-04    0.26      14.5  T
  11   -255.9610844 -0.284177E-07  0.347E-04    0.26      25.6  T
     SCC iter.                  ...        0 min,  0.943 sec
     gradient                   ...        0 min,  0.072 sec
 * total energy  :  -252.4404510 Eh     change       -0.2064820E-02 Eh
   gradient norm :     0.0336741 Eh/α   predicted    -0.2401174E-02 (  16.29%)
   displ. norm   :     0.5798742 α      lambda       -0.3430124E-02
   maximum displ.:     0.1976002 α      in ANC's #41, #25, #16, ...

........................................................................
.............................. CYCLE    8 ..............................
........................................................................
   1   -255.9499730 -0.255950E+03  0.208E-01    0.24       0.0  T
   2   -255.9500429 -0.698832E-04  0.118E-01    0.29       1.0  T
   3   -255.9472792  0.276372E-02  0.116E-01    0.18       1.0  T
   4   -255.9501225 -0.284326E-02  0.264E-02    0.30       1.0  T
   5   -255.9501945 -0.720758E-04  0.134E-02    0.28       1.0  T
   6   -255.9501984 -0.384150E-05  0.948E-03    0.27       1.0  T
   7   -255.9502094 -0.110333E-04  0.407E-03    0.27       2.2  T
   8   -255.9502104 -0.100486E-05  0.217E-03    0.26       4.1  T
   9   -255.9502105 -0.809413E-07  0.169E-03    0.26       5.3  T
  10   -255.9502106 -0.153015E-06  0.108E-03    0.26       8.3  T
  11   -255.9502107 -0.469983E-07  0.661E-04    0.26      13.5  T
  12   -255.9502107 -0.234373E-07  0.391E-04    0.26      22.8  T
     SCC iter.                  ...        0 min,  1.028 sec
     gradient                   ...        0 min,  0.080 sec
 * total energy  :  -252.4425947 Eh     change       -0.2143677E-02 Eh
   gradient norm :     0.0420233 Eh/α   predicted    -0.2291762E-02 (   6.91%)
   displ. norm   :     0.5071191 α      lambda       -0.2704156E-02
   maximum displ.:     0.1627324 α      in ANC's #16, #25, #32, ...

........................................................................
.............................. CYCLE    9 ..............................
........................................................................
   1   -255.9607815 -0.255961E+03  0.116E-01    0.27       0.0  T
   2   -255.9607864 -0.485596E-05  0.676E-02    0.28       1.0  T
   3   -255.9603116  0.474804E-03  0.511E-02    0.25       1.0  T
   4   -255.9608369 -0.525348E-03  0.102E-02    0.28       1.0  T
   5   -255.9608522 -0.153010E-04  0.476E-03    0.27       1.9  T
   6   -255.9608545 -0.220672E-05  0.219E-03    0.27       4.1  T
   7   -255.9608548 -0.307623E-06  0.127E-03    0.27       7.0  T
   8   -255.9608549 -0.966405E-07  0.850E-04    0.27      10.5  T
   9   -255.9608549 -0.219417E-07  0.670E-04    0.27      13.3  T
     SCC iter.                  ...        0 min,  0.771 sec
     gradient                   ...        0 min,  0.071 sec
 * total energy  :  -252.4448341 Eh     change       -0.2239392E-02 Eh
   gradient norm :     0.0228492 Eh/α   predicted    -0.1699793E-02 ( -24.10%)
   displ. norm   :     0.7216494 α      lambda       -0.2979408E-02
   maximum displ.:     0.2393881 α      in ANC's #25, #16, #32, ...

........................................................................
.............................. CYCLE   10 ..............................
........................................................................
   1   -255.9701671 -0.255970E+03  0.161E-01    0.28       0.0  T
   2   -255.9701887 -0.216363E-04  0.918E-02    0.29       1.0  T
   3   -255.9695337  0.655044E-03  0.555E-02    0.25       1.0  T
   4   -255.9702359 -0.702249E-03  0.114E-02    0.29       1.0  T
   5   -255.9702526 -0.166810E-04  0.614E-03    0.28       1.5  T
   6   -255.9702558 -0.316894E-05  0.287E-03    0.28       3.1  T
   7   -255.9702562 -0.406626E-06  0.180E-03    0.28       5.0  T
   8   -255.9702563 -0.135700E-06  0.135E-03    0.28       6.6  T
   9   -255.9702564 -0.588654E-07  0.101E-03    0.28       8.9  T
  10   -255.9702565 -0.574774E-07  0.611E-04    0.28      14.6  T
  11   -255.9702565 -0.203031E-07  0.376E-04    0.28      23.7  T
     SCC iter.                  ...        0 min,  0.913 sec
     gradient                   ...        0 min,  0.072 sec
 * total energy  :  -252.4472762 Eh     change       -0.2442133E-02 Eh
   gradient norm :     0.0158949 Eh/α   predicted    -0.2265515E-02 (  -7.23%)
   displ. norm   :     0.8077046 α      lambda       -0.2721134E-02
   maximum displ.:     0.2652751 α      in ANC's #16, #25, #32, ...

........................................................................
.............................. CYCLE   11 ..............................
........................................................................
   1   -255.9619238 -0.255962E+03  0.213E-01    0.27       0.0  T
   2   -255.9619499 -0.260990E-04  0.120E-01    0.29       1.0  T
   3   -255.9603938  0.155605E-02  0.808E-02    0.22       1.0  T
   4   -255.9620346 -0.164075E-02  0.146E-02    0.30       1.0  T
   5   -255.9620618 -0.272234E-04  0.684E-03    0.28       1.3  T
   6   -255.9620643 -0.247303E-05  0.342E-03    0.28       2.6  T
   7   -255.9620649 -0.652930E-06  0.165E-03    0.28       5.4  T
   8   -255.9620650 -0.587093E-07  0.126E-03    0.28       7.1  T
   9   -255.9620650 -0.628963E-07  0.936E-04    0.28       9.5  T
  10   -255.9620651 -0.378646E-07  0.667E-04    0.28      13.4  T
     SCC iter.                  ...        0 min,  0.842 sec
     gradient                   ...        0 min,  0.080 sec
 * total energy  :  -252.4493239 Eh     change       -0.2047703E-02 Eh
   gradient norm :     0.0306484 Eh/α   predicted    -0.2248192E-02 (   9.79%)
   displ. norm   :     0.7388364 α      lambda       -0.2763070E-02
   maximum displ.:     0.2518367 α      in ANC's #16, #25, #32, ...

........................................................................
.............................. CYCLE   12 ..............................
........................................................................
   1   -255.9736072 -0.255974E+03  0.170E-01    0.29       0.0  T
   2   -255.9736550 -0.477978E-04  0.959E-02    0.29       1.0  T
   3   -255.9735555  0.994384E-04  0.304E-02    0.29       1.0  T
   4   -255.9736760 -0.120465E-03  0.699E-03    0.28       1.3  T
   5   -255.9736772 -0.119654E-05  0.436E-03    0.29       2.0  T
   6   -255.9736786 -0.143388E-05  0.234E-03    0.29       3.8  T
   7   -255.9736790 -0.318377E-06  0.168E-03    0.29       5.3  T
   8   -255.9736792 -0.224897E-06  0.118E-03    0.29       7.5  T
   9   -255.9736792 -0.498078E-07  0.863E-04    0.29      10.3  T
  10   -255.9736793 -0.454338E-07  0.504E-04    0.29      17.7  T
     SCC iter.                  ...        0 min,  0.812 sec
     gradient                   ...        0 min,  0.081 sec
 * total energy  :  -252.4512630 Eh     change       -0.1939095E-02 Eh
   gradient norm :     0.0187782 Eh/α   predicted    -0.2135702E-02 (  10.14%)
   displ. norm   :     0.7470428 α      lambda       -0.2189121E-02
   maximum displ.:     0.2567089 α      in ANC's #16, #25, #32, ...

........................................................................
.............................. CYCLE   13 ..............................
........................................................................
   1   -255.9665929 -0.255967E+03  0.164E-01    0.29       0.0  T
   2   -255.9666281 -0.352004E-04  0.931E-02    0.30       1.0  T
   3   -255.9663139  0.314168E-03  0.419E-02    0.26       1.0  T
   4   -255.9666488 -0.334823E-03  0.108E-02    0.30       1.0  T
   5   -255.9666619 -0.131145E-04  0.651E-03    0.29       1.4  T
   6   -255.9666653 -0.345993E-05  0.332E-03    0.29       2.7  T
   7   -255.9666657 -0.344512E-06  0.253E-03    0.29       3.5  T
   8   -255.9666659 -0.208239E-06  0.195E-03    0.29       4.6  T
   9   -255.9666660 -0.150665E-06  0.132E-03    0.29       6.7  T
  10   -255.9666662 -0.147395E-06  0.696E-04    0.29      12.8  T
  11   -255.9666662 -0.316355E-07  0.417E-04    0.29      21.3  T
     SCC iter.                  ...        0 min,  0.870 sec
     gradient                   ...        0 min,  0.081 sec
 * total energy  :  -252.4529639 Eh     change       -0.1700876E-02 Eh
   gradient norm :     0.0302070 Eh/α   predicted    -0.1705406E-02 (   0.27%)
   displ. norm   :     0.6968384 α      lambda       -0.2585001E-02
   maximum displ.:     0.2330900 α      in ANC's #16, #2, #10, ...

........................................................................
.............................. CYCLE   14 ..............................
........................................................................
   1   -255.9817226 -0.255982E+03  0.147E-01    0.32       0.0  T
   2   -255.9817633 -0.406685E-04  0.846E-02    0.29       1.0  T
   3   -255.9813448  0.418492E-03  0.525E-02    0.33       1.0  T
   4   -255.9818004 -0.455623E-03  0.117E-02    0.29       1.0  T
   5   -255.9818138 -0.133847E-04  0.683E-03    0.30       1.3  T
   6   -255.9818177 -0.392826E-05  0.338E-03    0.30       2.6  T
   7   -255.9818181 -0.411299E-06  0.252E-03    0.30       3.5  T
   8   -255.9818183 -0.221990E-06  0.199E-03    0.30       4.5  T
   9   -255.9818185 -0.173498E-06  0.141E-03    0.30       6.3  T
  10   -255.9818187 -0.158780E-06  0.706E-04    0.30      12.6  T
  11   -255.9818187 -0.264031E-07  0.432E-04    0.30      20.6  T
     SCC iter.                  ...        0 min,  0.943 sec
     gradient                   ...        0 min,  0.073 sec
 * total energy  :  -252.4539467 Eh     change       -0.9828120E-03 Eh
   gradient norm :     0.0483248 Eh/α   predicted    -0.1920118E-02 (  95.37%)
   displ. norm   :     0.5678822 α      lambda       -0.2749567E-02
   maximum displ.:     0.1902440 α      in ANC's #16, #2, #10, ...

........................................................................
.............................. CYCLE   15 ..............................
........................................................................
   1   -255.9670471 -0.255967E+03  0.156E-01    0.29       0.0  T
   2   -255.9670975 -0.504326E-04  0.878E-02    0.31       1.0  T
   3   -255.9667226  0.374892E-03  0.508E-02    0.28       1.0  T
   4   -255.9671348 -0.412208E-03  0.103E-02    0.31       1.0  T
   5   -255.9671453 -0.104058E-04  0.633E-03    0.30       1.4  T
   6   -255.9671494 -0.416431E-05  0.277E-03    0.30       3.2  T
   7   -255.9671496 -0.209824E-06  0.198E-03    0.30       4.5  T
   8   -255.9671498 -0.160633E-06  0.149E-03    0.30       6.0  T
   9   -255.9671499 -0.863000E-07  0.107E-03    0.30       8.3  T
  10   -255.9671500 -0.751398E-07  0.601E-04    0.30      14.8  T
  11   -255.9671500 -0.194330E-07  0.372E-04    0.30      23.9  T
     SCC iter.                  ...        0 min,  0.939 sec
     gradient                   ...        0 min,  0.071 sec
 * total energy  :  -252.4556924 Eh     change       -0.1745660E-02 Eh
   gradient norm :     0.0272043 Eh/α   predicted    -0.1818141E-02 (   4.15%)
   displ. norm   :     0.5878139 α      lambda       -0.2209474E-02
   maximum displ.:     0.1820748 α      in ANC's #16, #2, #10, ...

........................................................................
.............................. CYCLE   16 ..............................
........................................................................
   1   -255.9795217 -0.255980E+03  0.155E-01    0.30       0.0  T
   2   -255.9795658 -0.441393E-04  0.870E-02    0.30       1.0  T
   3   -255.9793240  0.241802E-03  0.465E-02    0.30       1.0  T
   4   -255.9796023 -0.278327E-03  0.800E-03    0.30       1.1  T
   5   -255.9796048 -0.246501E-05  0.531E-03    0.30       1.7  T
   6   -255.9796073 -0.249900E-05  0.256E-03    0.30       3.5  T
   7   -255.9796076 -0.258143E-06  0.184E-03    0.30       4.8  T
   8   -255.9796077 -0.134768E-06  0.139E-03    0.30       6.4  T
   9   -255.9796078 -0.748061E-07  0.928E-04    0.30       9.6  T
  10   -255.9796078 -0.596992E-07  0.526E-04    0.30      16.9  T
     SCC iter.                  ...        0 min,  0.862 sec
     gradient                   ...        0 min,  0.080 sec
 * total energy  :  -252.4563966 Eh     change       -0.7042388E-03 Eh
   gradient norm :     0.0543386 Eh/α   predicted    -0.1486457E-02 ( 111.07%)
   displ. norm   :     0.5390010 α      lambda       -0.2064141E-02
   maximum displ.:     0.1756359 α      in ANC's #2, #16, #10, ...

........................................................................
.............................. CYCLE   17 ..............................
........................................................................
   1   -255.9691742 -0.255969E+03  0.115E-01    0.32       0.0  T
   2   -255.9691936 -0.194869E-04  0.652E-02    0.32       1.0  T
   3   -255.9690322  0.161406E-03  0.341E-02    0.31       1.0  T
   4   -255.9692085 -0.176232E-03  0.771E-03    0.32       1.2  T
   5   -255.9692140 -0.548186E-05  0.442E-03    0.32       2.0  T
   6   -255.9692159 -0.192301E-05  0.198E-03    0.32       4.5  T
   7   -255.9692161 -0.230044E-06  0.137E-03    0.32       6.5  T
   8   -255.9692162 -0.978047E-07  0.102E-03    0.32       8.8  T
   9   -255.9692162 -0.350580E-07  0.760E-04    0.32      11.7  T
  10   -255.9692163 -0.346220E-07  0.447E-04    0.32      19.9  T
     SCC iter.                  ...        0 min,  0.858 sec
     gradient                   ...        0 min,  0.079 sec
 * total energy  :  -252.4579451 Eh     change       -0.1548457E-02 Eh
   gradient norm :     0.0181702 Eh/α   predicted    -0.1331911E-02 ( -13.98%)
   displ. norm   :     0.5933349 α      lambda       -0.2075419E-02
   maximum displ.:     0.2252321 α      in ANC's #2, #10, #23, ...

........................................................................
.............................. CYCLE   18 ..............................
........................................................................
   1   -255.9898515 -0.255990E+03  0.135E-01    0.33       0.0  T
   2   -255.9898640 -0.125103E-04  0.774E-02    0.30       1.0  T
   3   -255.9892564  0.607640E-03  0.583E-02    0.35       1.0  T
   4   -255.9899390 -0.682648E-03  0.107E-02    0.31       1.0  T
   5   -255.9899483 -0.928550E-05  0.528E-03    0.32       1.7  T
   6   -255.9899492 -0.920172E-06  0.273E-03    0.31       3.3  T
   7   -255.9899499 -0.629836E-06  0.163E-03    0.32       5.5  T
   8   -255.9899500 -0.921036E-07  0.123E-03    0.32       7.3  T
   9   -255.9899500 -0.457460E-07  0.903E-04    0.32       9.9  T
  10   -255.9899500 -0.488336E-07  0.560E-04    0.32      15.9  T
     SCC iter.                  ...        0 min,  0.857 sec
     gradient                   ...        0 min,  0.071 sec
 * total energy  :  -252.4588534 Eh     change       -0.9082684E-03 Eh
   gradient norm :     0.0372140 Eh/α   predicted    -0.1403034E-02 (  54.47%)
   displ. norm   :     0.6426385 α      lambda       -0.1916995E-02
   maximum displ.:     0.2112857 α      in ANC's #2, #16, #10, ...

........................................................................
.............................. CYCLE   19 ..............................
........................................................................
   1   -255.9803432 -0.255980E+03  0.119E-01    0.33       0.0  T
   2   -255.9803542 -0.109931E-04  0.679E-02    0.34       1.0  T
   3   -255.9799875  0.366697E-03  0.466E-02    0.31       1.0  T
   4   -255.9803856 -0.398057E-03  0.959E-03    0.34       1.0  T
   5   -255.9803961 -0.105529E-04  0.473E-03    0.33       1.9  T
   6   -255.9803980 -0.187570E-05  0.191E-03    0.33       4.7  T
   7   -255.9803982 -0.256786E-06  0.109E-03    0.33       8.2  T
   8   -255.9803983 -0.638228E-07  0.748E-04    0.33      11.9  T
   9   -255.9803983 -0.108516E-07  0.584E-04    0.33      15.3  T
     SCC iter.                  ...        0 min,  0.760 sec
     gradient                   ...        0 min,  0.080 sec
 * total energy  :  -252.4603943 Eh     change       -0.1540941E-02 Eh
   gradient norm :     0.0192594 Eh/α   predicted    -0.1354349E-02 ( -12.11%)
   displ. norm   :     0.7325004 α      lambda       -0.1685743E-02
   maximum displ.:     0.2687777 α      in ANC's #2, #10, #27, ...

........................................................................
.............................. CYCLE   20 ..............................
........................................................................
   1   -255.9765305 -0.255977E+03  0.130E-01    0.33       0.0  T
   2   -255.9765554 -0.249054E-04  0.719E-02    0.35       1.0  T
   3   -255.9763873  0.168043E-03  0.327E-02    0.33       1.0  T
   4   -255.9765647 -0.177385E-03  0.994E-03    0.35       1.0  T
   5   -255.9765743 -0.959835E-05  0.549E-03    0.34       1.6  T
   6   -255.9765774 -0.304268E-05  0.207E-03    0.34       4.3  T
   7   -255.9765777 -0.310700E-06  0.130E-03    0.34       6.9  T
   8   -255.9765777 -0.732323E-07  0.960E-04    0.34       9.3  T
   9   -255.9765778 -0.250353E-07  0.707E-04    0.34      12.6  T
     SCC iter.                  ...        0 min,  0.760 sec
     gradient                   ...        0 min,  0.071 sec
 * total energy  :  -252.4617304 Eh     change       -0.1336056E-02 Eh
   gradient norm :     0.0129465 Eh/α   predicted    -0.1295123E-02 (  -3.06%)
   displ. norm   :     0.7746086 α      lambda       -0.1603223E-02
   maximum displ.:     0.2936194 α      in ANC's #2, #10, #27, ...
 * RMSD in coord.:     0.8963785 α      energy gain  -0.1169208E+00 Eh

generating ANC from model Hessian ...
Using Lindh-Hessian (1995)
 Shifting diagonal of input Hessian by   1.001231445435946E-002
 Lowest  eigenvalues of input Hessian
    0.010000    0.000000    0.000000    0.000000    0.000000    0.000000
    0.000000    0.010032    0.010063    0.010075    0.010110    0.010123
    0.010171    0.010203    0.010264    0.010321    0.010409    0.010479
 Highest eigenvalues
    2.289390    2.301770    2.591085    2.611457    2.613106    2.662206
 

........................................................................
.............................. CYCLE   21 ..............................
........................................................................
   1   -255.9829870 -0.255983E+03  0.142E-01    0.36       0.0  T
   2   -255.9830178 -0.308777E-04  0.791E-02    0.36       1.0  T
   3   -255.9828077  0.210097E-03  0.422E-02    0.34       1.0  T
   4   -255.9830430 -0.235312E-03  0.102E-02    0.36       1.0  T
   5   -255.9830463 -0.324944E-05  0.679E-03    0.36       1.3  T
   6   -255.9830517 -0.540692E-05  0.279E-03    0.36       3.2  T
   7   -255.9830521 -0.414382E-06  0.209E-03    0.36       4.3  T
   8   -255.9830523 -0.178364E-06  0.165E-03    0.36       5.4  T
   9   -255.9830524 -0.108123E-06  0.110E-03    0.36       8.1  T
  10   -255.9830525 -0.989950E-07  0.592E-04    0.36      15.1  T
  11   -255.9830525 -0.132857E-07  0.390E-04    0.36      22.9  T
     SCC iter.                  ...        0 min,  0.927 sec
     gradient                   ...        0 min,  0.070 sec
 * total energy  :  -252.4629516 Eh     change       -0.1221270E-02 Eh
   gradient norm :     0.0215469 Eh/α   predicted     0.0000000E+00 (-100.00%)
   displ. norm   :     0.2268075 α      lambda       -0.1244248E-02
   maximum displ.:     0.0730235 α      in ANC's #24, #43, #23, ...

........................................................................
.............................. CYCLE   22 ..............................
........................................................................
   1   -255.9814534 -0.255981E+03  0.174E-01    0.35       0.0  T
   2   -255.9815073 -0.539373E-04  0.959E-02    0.36       1.0  T
   3   -255.9814391  0.682242E-04  0.243E-02    0.35       1.0  T
   4   -255.9815266 -0.874807E-04  0.638E-03    0.36       1.4  T
   5   -255.9815297 -0.310699E-05  0.395E-03    0.36       2.3  T
   6   -255.9815312 -0.148466E-05  0.200E-03    0.36       4.4  T
   7   -255.9815313 -0.143705E-06  0.146E-03    0.36       6.1  T
   8   -255.9815314 -0.808982E-07  0.112E-03    0.36       8.0  T
   9   -255.9815314 -0.481517E-07  0.785E-04    0.36      11.3  T
  10   -255.9815315 -0.481539E-07  0.397E-04    0.36      22.4  T
     SCC iter.                  ...        0 min,  0.840 sec
     gradient                   ...        0 min,  0.080 sec
 * total energy  :  -252.4634252 Eh     change       -0.4735616E-03 Eh
   gradient norm :     0.0148428 Eh/α   predicted    -0.6544470E-03 (  38.20%)
   displ. norm   :     0.2469687 α      lambda       -0.1034941E-02
   maximum displ.:     0.0705226 α      in ANC's #20, #1, #41, ...

........................................................................
.............................. CYCLE   23 ..............................
........................................................................
   1   -255.9887502 -0.255989E+03  0.711E-02    0.37       0.0  T
   2   -255.9887574 -0.717704E-05  0.409E-02    0.36       1.0  T
   3   -255.9886909  0.664934E-04  0.222E-02    0.37       1.0  T
   4   -255.9887660 -0.751068E-04  0.375E-03    0.36       2.4  T
   5   -255.9887662 -0.215018E-06  0.259E-03    0.37       3.4  T
   6   -255.9887667 -0.494204E-06  0.133E-03    0.36       6.7  T
   7   -255.9887668 -0.637542E-07  0.100E-03    0.37       8.9  T
   8   -255.9887668 -0.474271E-07  0.763E-04    0.36      11.7  T
   9   -255.9887669 -0.319172E-07  0.523E-04    0.37      17.0  T
     SCC iter.                  ...        0 min,  0.762 sec
     gradient                   ...        0 min,  0.081 sec
 * total energy  :  -252.4640412 Eh     change       -0.6160639E-03 Eh
   gradient norm :     0.0178268 Eh/α   predicted    -0.5490793E-03 ( -10.87%)
   displ. norm   :     0.4072454 α      lambda       -0.9353709E-03
   maximum displ.:     0.1380210 α      in ANC's #24, #1, #20, ...

........................................................................
.............................. CYCLE   24 ..............................
........................................................................
   1   -255.9900504 -0.255990E+03  0.113E-01    0.37       0.0  T
   2   -255.9900685 -0.181107E-04  0.630E-02    0.38       1.0  T
   3   -255.9900223  0.462662E-04  0.197E-02    0.37       1.0  T
   4   -255.9900767 -0.543813E-04  0.552E-03    0.38       1.6  T
   5   -255.9900771 -0.419122E-06  0.377E-03    0.37       2.4  T
   6   -255.9900790 -0.196010E-05  0.116E-03    0.38       7.7  T
   7   -255.9900791 -0.718524E-07  0.813E-04    0.38      11.0  T
   8   -255.9900791 -0.278754E-07  0.566E-04    0.38      15.7  T
     SCC iter.                  ...        0 min,  0.669 sec
     gradient                   ...        0 min,  0.081 sec
 * total energy  :  -252.4648171 Eh     change       -0.7758323E-03 Eh
   gradient norm :     0.0099796 Eh/α   predicted    -0.5452652E-03 ( -29.72%)
   displ. norm   :     0.7646421 α      lambda       -0.1586532E-02
   maximum displ.:     0.2533750 α      in ANC's #24, #1, #20, ...

........................................................................
.............................. CYCLE   25 ..............................
........................................................................
   1   -255.9860047 -0.255986E+03  0.192E-01    0.39       0.0  T
   2   -255.9860436 -0.388906E-04  0.108E-01    0.41       1.0  T
   3   -255.9855776  0.465998E-03  0.598E-02    0.38       1.0  T
   4   -255.9860970 -0.519443E-03  0.112E-02    0.41       1.0  T
   5   -255.9860994 -0.239084E-05  0.783E-03    0.40       1.1  T
   6   -255.9861070 -0.758345E-05  0.237E-03    0.40       3.8  T
   7   -255.9861074 -0.415255E-06  0.157E-03    0.40       5.7  T
   8   -255.9861075 -0.104923E-06  0.112E-03    0.40       8.0  T
   9   -255.9861076 -0.457671E-07  0.761E-04    0.40      11.7  T
  10   -255.9861076 -0.299697E-07  0.471E-04    0.40      18.9  T
     SCC iter.                  ...        0 min,  0.815 sec
     gradient                   ...        0 min,  0.070 sec
 * total energy  :  -252.4659229 Eh     change       -0.1105850E-02 Eh
   gradient norm :     0.0245528 Eh/α   predicted    -0.1257072E-02 (  13.67%)
   displ. norm   :     0.5850037 α      lambda       -0.1117016E-02
   maximum displ.:     0.1741978 α      in ANC's #1, #20, #33, ...

........................................................................
.............................. CYCLE   26 ..............................
........................................................................
   1   -255.9832631 -0.255983E+03  0.134E-01    0.42       0.0  T
   2   -255.9832831 -0.199546E-04  0.742E-02    0.43       1.0  T
   3   -255.9831507  0.132360E-03  0.316E-02    0.41       1.0  T
   4   -255.9832984 -0.147729E-03  0.787E-03    0.43       1.1  T
   5   -255.9832996 -0.114499E-05  0.475E-03    0.42       1.9  T
   6   -255.9833025 -0.290267E-05  0.149E-03    0.42       6.0  T
   7   -255.9833027 -0.228708E-06  0.941E-04    0.42       9.5  T
   8   -255.9833028 -0.482980E-07  0.637E-04    0.42      14.0  T
     SCC iter.                  ...        0 min,  0.682 sec
     gradient                   ...        0 min,  0.072 sec
 * total energy  :  -252.4667985 Eh     change       -0.8755541E-03 Eh
   gradient norm :     0.0250394 Eh/α   predicted    -0.7496522E-03 ( -14.38%)
   displ. norm   :     0.5648718 α      lambda       -0.1413471E-02
   maximum displ.:     0.1750064 α      in ANC's #1, #20, #2, ...

........................................................................
.............................. CYCLE   27 ..............................
........................................................................
   1   -255.9855930 -0.255986E+03  0.140E-01    0.44       0.0  T
   2   -255.9856223 -0.293160E-04  0.764E-02    0.45       1.0  T
   3   -255.9855394  0.828619E-04  0.261E-02    0.44       1.0  T
   4   -255.9856353 -0.958412E-04  0.802E-03    0.45       1.1  T
   5   -255.9856368 -0.151941E-05  0.523E-03    0.45       1.7  T
   6   -255.9856405 -0.371553E-05  0.172E-03    0.45       5.2  T
   7   -255.9856406 -0.142774E-06  0.128E-03    0.45       7.0  T
   8   -255.9856407 -0.496194E-07  0.985E-04    0.45       9.0  T
   9   -255.9856407 -0.348768E-07  0.720E-04    0.45      12.4  T
     SCC iter.                  ...        0 min,  0.771 sec
     gradient                   ...        0 min,  0.081 sec
 * total energy  :  -252.4677324 Eh     change       -0.9339636E-03 Eh
   gradient norm :     0.0153044 Eh/α   predicted    -0.9322369E-03 (  -0.18%)
   displ. norm   :     0.6560096 α      lambda       -0.1548627E-02
   maximum displ.:     0.2071787 α      in ANC's #1, #2, #20, ...

........................................................................
.............................. CYCLE   28 ..............................
........................................................................
   1   -255.9768261 -0.255977E+03  0.194E-01    0.44       0.0  T
   2   -255.9768809 -0.548195E-04  0.106E-01    0.46       1.0  T
   3   -255.9765950  0.285875E-03  0.486E-02    0.44       1.0  T
   4   -255.9769232 -0.328222E-03  0.976E-03    0.46       1.0  T
   5   -255.9769218  0.143577E-05  0.736E-03    0.45       1.2  T
   6   -255.9769294 -0.761225E-05  0.267E-03    0.46       3.3  T
   7   -255.9769297 -0.304143E-06  0.206E-03    0.46       4.3  T
   8   -255.9769299 -0.154737E-06  0.157E-03    0.46       5.7  T
   9   -255.9769300 -0.142217E-06  0.102E-03    0.46       8.7  T
  10   -255.9769301 -0.598770E-07  0.648E-04    0.46      13.8  T
  11   -255.9769301 -0.211751E-07  0.375E-04    0.46      23.7  T
     SCC iter.                  ...        0 min,  0.929 sec
     gradient                   ...        0 min,  0.081 sec
 * total energy  :  -252.4685371 Eh     change       -0.8046668E-03 Eh
   gradient norm :     0.0391328 Eh/α   predicted    -0.1107531E-02 (  37.64%)
   displ. norm   :     0.4637992 α      lambda       -0.1588784E-02
   maximum displ.:     0.1500362 α      in ANC's #2, #1, #20, ...

........................................................................
.............................. CYCLE   29 ..............................
........................................................................
   1   -255.9922343 -0.255992E+03  0.130E-01    0.47       0.0  T
   2   -255.9922677 -0.333907E-04  0.711E-02    0.48       1.0  T
   3   -255.9922112  0.564678E-04  0.227E-02    0.47       1.0  T
   4   -255.9922795 -0.682824E-04  0.733E-03    0.48       1.2  T
   5   -255.9922820 -0.245466E-05  0.409E-03    0.48       2.2  T
   6   -255.9922835 -0.156555E-05  0.198E-03    0.48       4.5  T
   7   -255.9922837 -0.150149E-06  0.152E-03    0.48       5.9  T
   8   -255.9922837 -0.758506E-07  0.119E-03    0.48       7.5  T
   9   -255.9922838 -0.703299E-07  0.743E-04    0.48      12.0  T
  10   -255.9922839 -0.374480E-07  0.434E-04    0.48      20.5  T
     SCC iter.                  ...        0 min,  0.810 sec
     gradient                   ...        0 min,  0.071 sec
 * total energy  :  -252.4693289 Eh     change       -0.7917737E-03 Eh
   gradient norm :     0.0266791 Eh/α   predicted    -0.9652682E-03 (  21.91%)
   displ. norm   :     0.5716992 α      lambda       -0.1265954E-02
   maximum displ.:     0.1831424 α      in ANC's #1, #2, #20, ...

........................................................................
.............................. CYCLE   30 ..............................
........................................................................
   1   -255.9864586 -0.255986E+03  0.141E-01    0.48       0.0  T
   2   -255.9864894 -0.308648E-04  0.774E-02    0.49       1.0  T
   3   -255.9863134  0.176079E-03  0.361E-02    0.47       1.0  T
   4   -255.9865134 -0.200017E-03  0.837E-03    0.49       1.1  T
   5   -255.9865153 -0.192194E-05  0.497E-03    0.48       1.8  T
   6   -255.9865179 -0.263122E-05  0.191E-03    0.48       4.7  T
   7   -255.9865182 -0.287241E-06  0.129E-03    0.48       6.9  T
   8   -255.9865183 -0.878196E-07  0.919E-04    0.48       9.7  T
   9   -255.9865183 -0.267162E-07  0.626E-04    0.48      14.2  T
     SCC iter.                  ...        0 min,  0.765 sec
     gradient                   ...        0 min,  0.081 sec
 * total energy  :  -252.4701907 Eh     change       -0.8617869E-03 Eh
   gradient norm :     0.0126780 Eh/α   predicted    -0.8398535E-03 (  -2.55%)
   displ. norm   :     0.5186997 α      lambda       -0.1222399E-02
   maximum displ.:     0.2010315 α      in ANC's #2, #1, #5, ...

........................................................................
.............................. CYCLE   31 ..............................
........................................................................
   1   -255.9960304 -0.255996E+03  0.118E-01    0.48       0.0  T
   2   -255.9960554 -0.249726E-04  0.644E-02    0.48       1.0  T
   3   -255.9959542  0.101205E-03  0.299E-02    0.49       1.0  T
   4   -255.9960712 -0.116994E-03  0.878E-03    0.48       1.0  T
   5   -255.9960743 -0.315208E-05  0.591E-03    0.48       1.5  T
   6   -255.9960775 -0.321386E-05  0.274E-03    0.48       3.2  T
   7   -255.9960778 -0.273884E-06  0.220E-03    0.48       4.0  T
   8   -255.9960780 -0.188238E-06  0.160E-03    0.48       5.6  T
   9   -255.9960781 -0.127138E-06  0.988E-04    0.48       9.0  T
  10   -255.9960782 -0.854308E-07  0.562E-04    0.48      15.9  T
     SCC iter.                  ...        0 min,  0.812 sec
     gradient                   ...        0 min,  0.083 sec
 * total energy  :  -252.4709131 Eh     change       -0.7223947E-03 Eh
   gradient norm :     0.0205800 Eh/α   predicted    -0.7756378E-03 (   7.37%)
   displ. norm   :     0.7283588 α      lambda       -0.1288223E-02
   maximum displ.:     0.2485343 α      in ANC's #1, #2, #10, ...

........................................................................
.............................. CYCLE   32 ..............................
........................................................................
   1   -255.9847809 -0.255985E+03  0.176E-01    0.48       0.0  T
   2   -255.9848238 -0.429313E-04  0.953E-02    0.49       1.0  T
   3   -255.9845092  0.314626E-03  0.510E-02    0.48       1.0  T
   4   -255.9848717 -0.362508E-03  0.985E-03    0.50       1.0  T
   5   -255.9848690  0.269001E-05  0.647E-03    0.49       1.4  T
   6   -255.9848753 -0.633181E-05  0.230E-03    0.49       3.9  T
   7   -255.9848757 -0.357487E-06  0.163E-03    0.49       5.5  T
   8   -255.9848758 -0.125999E-06  0.120E-03    0.49       7.4  T
   9   -255.9848759 -0.671518E-07  0.804E-04    0.49      11.1  T
  10   -255.9848759 -0.318135E-07  0.543E-04    0.49      16.4  T
     SCC iter.                  ...        0 min,  0.851 sec
     gradient                   ...        0 min,  0.071 sec
 * total energy  :  -252.4715327 Eh     change       -0.6196706E-03 Eh
   gradient norm :     0.0419686 Eh/α   predicted    -0.9858122E-03 (  59.09%)
   displ. norm   :     0.4054988 α      lambda       -0.1112703E-02
   maximum displ.:     0.1581059 α      in ANC's #2, #1, #5, ...

........................................................................
.............................. CYCLE   33 ..............................
........................................................................
   1   -255.9909367 -0.255991E+03  0.828E-02    0.50       0.0  T
   2   -255.9909514 -0.147000E-04  0.436E-02    0.50       1.0  T
   3   -255.9909349  0.165049E-04  0.135E-02    0.50       1.0  T
   4   -255.9909540 -0.191858E-04  0.559E-03    0.50       1.6  T
   5   -255.9909554 -0.131431E-05  0.309E-03    0.50       2.9  T
   6   -255.9909566 -0.127947E-05  0.113E-03    0.50       7.8  T
   7   -255.9909567 -0.115214E-06  0.687E-04    0.50      13.0  T
   8   -255.9909568 -0.198697E-07  0.532E-04    0.50      16.7  T
     SCC iter.                  ...        0 min,  0.672 sec
     gradient                   ...        0 min,  0.072 sec
 * total energy  :  -252.4723111 Eh     change       -0.7783947E-03 Eh
   gradient norm :     0.0174792 Eh/α   predicted    -0.6478342E-03 ( -16.77%)
   displ. norm   :     0.5758621 α      lambda       -0.9767737E-03
   maximum displ.:     0.2436034 α      in ANC's #2, #1, #5, ...

........................................................................
.............................. CYCLE   34 ..............................
........................................................................
   1   -255.9989304 -0.255999E+03  0.112E-01    0.50       0.0  T
   2   -255.9989515 -0.211751E-04  0.588E-02    0.51       1.0  T
   3   -255.9989189  0.326424E-04  0.178E-02    0.51       1.0  T
   4   -255.9989562 -0.372957E-04  0.784E-03    0.51       1.1  T
   5   -255.9989597 -0.355398E-05  0.390E-03    0.51       2.3  T
   6   -255.9989615 -0.179413E-05  0.155E-03    0.51       5.8  T
   7   -255.9989616 -0.990300E-07  0.113E-03    0.51       7.9  T
   8   -255.9989617 -0.312725E-07  0.882E-04    0.51      10.1  T
   9   -255.9989617 -0.376711E-07  0.497E-04    0.51      17.9  T
     SCC iter.                  ...        0 min,  0.762 sec
     gradient                   ...        0 min,  0.080 sec
 * total energy  :  -252.4730283 Eh     change       -0.7171564E-03 Eh
   gradient norm :     0.0102925 Eh/α   predicted    -0.6503485E-03 (  -9.32%)
   displ. norm   :     0.8053271 α      lambda       -0.1018171E-02
   maximum displ.:     0.3215629 α      in ANC's #2, #1, #5, ...

........................................................................
.............................. CYCLE   35 ..............................
........................................................................
   1   -255.9935050 -0.255994E+03  0.166E-01    0.51       0.0  T
   2   -255.9935488 -0.438277E-04  0.867E-02    0.51       1.0  T
   3   -255.9934578  0.910267E-04  0.294E-02    0.51       1.0  T
   4   -255.9935653 -0.107474E-03  0.110E-02    0.52       1.0  T
   5   -255.9935702 -0.489071E-05  0.518E-03    0.51       1.7  T
   6   -255.9935729 -0.270366E-05  0.231E-03    0.52       3.9  T
   7   -255.9935733 -0.394629E-06  0.164E-03    0.52       5.4  T
   8   -255.9935734 -0.112564E-06  0.126E-03    0.52       7.1  T
   9   -255.9935735 -0.879369E-07  0.747E-04    0.52      11.9  T
  10   -255.9935735 -0.233422E-07  0.494E-04    0.52      18.0  T
     SCC iter.                  ...        0 min,  0.817 sec
     gradient                   ...        0 min,  0.080 sec
 * total energy  :  -252.4738407 Eh     change       -0.8124258E-03 Eh
   gradient norm :     0.0130226 Eh/α   predicted    -0.8392541E-03 (   3.30%)
   displ. norm   :     0.7012550 α      lambda       -0.9194494E-03
   maximum displ.:     0.3063801 α      in ANC's #2, #1, #5, ...

........................................................................
.............................. CYCLE   36 ..............................
........................................................................
   1   -255.9987281 -0.255999E+03  0.141E-01    0.51       0.0  T
   2   -255.9987613 -0.331954E-04  0.732E-02    0.52       1.0  T
   3   -255.9987306  0.306704E-04  0.197E-02    0.52       1.0  T
   4   -255.9987680 -0.374207E-04  0.917E-03    0.52       1.0  T
   5   -255.9987726 -0.458653E-05  0.443E-03    0.52       2.0  T
   6   -255.9987748 -0.219260E-05  0.155E-03    0.52       5.8  T
   7   -255.9987749 -0.142335E-06  0.105E-03    0.52       8.5  T
   8   -255.9987750 -0.520490E-07  0.793E-04    0.52      11.2  T
   9   -255.9987750 -0.306499E-07  0.499E-04    0.52      17.8  T
     SCC iter.                  ...        0 min,  0.755 sec
     gradient                   ...        0 min,  0.070 sec
 * total energy  :  -252.4745808 Eh     change       -0.7400894E-03 Eh
   gradient norm :     0.0209733 Eh/α   predicted    -0.6858009E-03 (  -7.34%)
   displ. norm   :     0.6657737 α      lambda       -0.9520886E-03
   maximum displ.:     0.2953151 α      in ANC's #2, #1, #5, ...

........................................................................
.............................. CYCLE   37 ..............................
........................................................................
   1   -256.0007440 -0.256001E+03  0.127E-01    0.51       0.0  T
   2   -256.0007686 -0.246098E-04  0.653E-02    0.52       1.0  T
   3   -256.0007125  0.561400E-04  0.223E-02    0.52       1.0  T
   4   -256.0007748 -0.622450E-04  0.923E-03    0.53       1.0  T
   5   -256.0007793 -0.451710E-05  0.497E-03    0.52       1.8  T
   6   -256.0007821 -0.287567E-05  0.159E-03    0.52       5.6  T
   7   -256.0007823 -0.173620E-06  0.113E-03    0.52       7.9  T
   8   -256.0007824 -0.623257E-07  0.871E-04    0.52      10.2  T
   9   -256.0007824 -0.361293E-07  0.574E-04    0.52      15.5  T
     SCC iter.                  ...        0 min,  0.741 sec
     gradient                   ...        0 min,  0.072 sec
 * total energy  :  -252.4753704 Eh     change       -0.7896344E-03 Eh
   gradient norm :     0.0135724 Eh/α   predicted    -0.6870526E-03 ( -12.99%)
   displ. norm   :     0.7512241 α      lambda       -0.9823289E-03
   maximum displ.:     0.3263418 α      in ANC's #2, #1, #5, ...

........................................................................
.............................. CYCLE   38 ..............................
........................................................................
   1   -256.0036960 -0.256004E+03  0.144E-01    0.51       0.0  T
   2   -256.0037288 -0.328273E-04  0.740E-02    0.53       1.0  T
   3   -256.0036694  0.593821E-04  0.230E-02    0.52       1.0  T
   4   -256.0037332 -0.637817E-04  0.107E-02    0.53       1.0  T
   5   -256.0037413 -0.815028E-05  0.512E-03    0.53       1.7  T
   6   -256.0037443 -0.293704E-05  0.188E-03    0.53       4.7  T
   7   -256.0037446 -0.276724E-06  0.124E-03    0.53       7.2  T
   8   -256.0037446 -0.442886E-07  0.101E-03    0.53       8.8  T
   9   -256.0037447 -0.521963E-07  0.690E-04    0.53      12.9  T
  10   -256.0037447 -0.239958E-07  0.469E-04    0.53      19.0  T
     SCC iter.                  ...        0 min,  0.826 sec
     gradient                   ...        0 min,  0.079 sec
 * total energy  :  -252.4760719 Eh     change       -0.7014931E-03 Eh
   gradient norm :     0.0175721 Eh/α   predicted    -0.7683478E-03 (   9.53%)
   displ. norm   :     0.7454288 α      lambda       -0.1058098E-02
   maximum displ.:     0.3180891 α      in ANC's #2, #1, #5, ...

........................................................................
.............................. CYCLE   39 ..............................
........................................................................
   1   -255.9952119 -0.255995E+03  0.148E-01    0.52       0.0  T
   2   -255.9952398 -0.278882E-04  0.776E-02    0.53       1.0  T
   3   -255.9950409  0.198873E-03  0.396E-02    0.52       1.0  T
   4   -255.9952677 -0.226752E-03  0.102E-02    0.53       1.0  T
   5   -255.9952685 -0.864649E-06  0.602E-03    0.53       1.5  T
   6   -255.9952734 -0.481437E-05  0.193E-03    0.53       4.6  T
   7   -255.9952738 -0.454545E-06  0.115E-03    0.53       7.7  T
   8   -255.9952739 -0.844082E-07  0.796E-04    0.53      11.2  T
   9   -255.9952739 -0.204682E-07  0.552E-04    0.53      16.1  T
     SCC iter.                  ...        0 min,  0.734 sec
     gradient                   ...        0 min,  0.071 sec
 * total energy  :  -252.4768322 Eh     change       -0.7602902E-03 Eh
   gradient norm :     0.0115347 Eh/α   predicted    -0.8230247E-03 (   8.25%)
   displ. norm   :     0.6111607 α      lambda       -0.9766670E-03
   maximum displ.:     0.2489171 α      in ANC's #2, #1, #4, ...

........................................................................
.............................. CYCLE   40 ..............................
........................................................................
   1   -256.0071075 -0.256007E+03  0.116E-01    0.52       0.0  T
   2   -256.0071283 -0.207865E-04  0.620E-02    0.53       1.0  T
   3   -256.0070461  0.822793E-04  0.254E-02    0.53       1.0  T
   4   -256.0071399 -0.938557E-04  0.818E-03    0.53       1.1  T
   5   -256.0071425 -0.262022E-05  0.470E-03    0.53       1.9  T
   6   -256.0071445 -0.200237E-05  0.193E-03    0.53       4.6  T
   7   -256.0071448 -0.240960E-06  0.131E-03    0.53       6.8  T
   8   -256.0071448 -0.557066E-07  0.102E-03    0.53       8.7  T
   9   -256.0071449 -0.452029E-07  0.653E-04    0.53      13.6  T
  10   -256.0071449 -0.259455E-07  0.404E-04    0.53      22.1  T
     SCC iter.                  ...        0 min,  0.851 sec
     gradient                   ...        0 min,  0.072 sec
 * total energy  :  -252.4773854 Eh     change       -0.5531781E-03 Eh
   gradient norm :     0.0186155 Eh/α   predicted    -0.6707408E-03 (  21.25%)
   displ. norm   :     0.7359835 α      lambda       -0.1148064E-02
   maximum displ.:     0.3077395 α      in ANC's #2, #1, #18, ...

........................................................................
.............................. CYCLE   41 ..............................
........................................................................
   1   -255.9949384 -0.255995E+03  0.145E-01    0.52       0.0  T
   2   -255.9949704 -0.319967E-04  0.734E-02    0.53       1.0  T
   3   -255.9949055  0.649583E-04  0.236E-02    0.53       1.0  T
   4   -255.9949763 -0.708072E-04  0.108E-02    0.53       1.0  T
   5   -255.9949838 -0.751548E-05  0.507E-03    0.53       1.8  T
   6   -255.9949866 -0.275723E-05  0.151E-03    0.53       5.9  T
   7   -255.9949867 -0.187843E-06  0.822E-04    0.53      10.8  T
   8   -255.9949868 -0.208240E-07  0.605E-04    0.53      14.7  T
     SCC iter.                  ...        0 min,  0.687 sec
     gradient                   ...        0 min,  0.071 sec
 * total energy  :  -252.4780898 Eh     change       -0.7043791E-03 Eh
   gradient norm :     0.0189507 Eh/α   predicted    -0.8849721E-03 (  25.64%)
   displ. norm   :     0.5617580 α      lambda       -0.9144630E-03
   maximum displ.:     0.2343042 α      in ANC's #2, #1, #3, ...

........................................................................
.............................. CYCLE   42 ..............................
........................................................................
   1   -255.9945703 -0.255995E+03  0.992E-02    0.53       0.0  T
   2   -255.9945852 -0.148920E-04  0.535E-02    0.53       1.0  T
   3   -255.9945230  0.622400E-04  0.227E-02    0.53       1.0  T
   4   -255.9945935 -0.705574E-04  0.690E-03    0.53       1.3  T
   5   -255.9945950 -0.148548E-05  0.371E-03    0.53       2.4  T
   6   -255.9945965 -0.144082E-05  0.157E-03    0.53       5.7  T
   7   -255.9945967 -0.208242E-06  0.101E-03    0.53       8.8  T
   8   -255.9945967 -0.319600E-07  0.791E-04    0.53      11.3  T
   9   -255.9945967 -0.302074E-07  0.485E-04    0.53      18.4  T
     SCC iter.                  ...        0 min,  0.763 sec
     gradient                   ...        0 min,  0.080 sec
 * total energy  :  -252.4787076 Eh     change       -0.6178382E-03 Eh
   gradient norm :     0.0151686 Eh/α   predicted    -0.6015277E-03 (  -2.64%)
   displ. norm   :     0.6103277 α      lambda       -0.9391889E-03
   maximum displ.:     0.2456745 α      in ANC's #1, #2, #4, ...
 * RMSD in coord.:     1.0341886 α      energy gain  -0.1697727E-01 Eh

generating ANC from model Hessian ...
Using Lindh-Hessian (1995)
 Shifting diagonal of input Hessian by   9.993637260634968E-003
 Lowest  eigenvalues of input Hessian
    0.000000    0.000000    0.000000    0.000000    0.000000    0.000000
    0.010000    0.010008    0.010042    0.010057    0.010066    0.010106
    0.010120    0.010158    0.010212    0.010276    0.010357    0.010485
 Highest eigenvalues
    2.286609    2.293915    2.601320    2.607586    2.636187    2.648070
 

........................................................................
.............................. CYCLE   43 ..............................
........................................................................
   1   -256.0014382 -0.256001E+03  0.995E-02    0.53       0.0  T
   2   -256.0014537 -0.155134E-04  0.514E-02    0.54       1.0  T
   3   -256.0014051  0.485405E-04  0.191E-02    0.54       1.0  T
   4   -256.0014573 -0.521697E-04  0.789E-03    0.54       1.1  T
   5   -256.0014609 -0.357940E-05  0.422E-03    0.54       2.1  T
   6   -256.0014628 -0.190971E-05  0.139E-03    0.54       6.4  T
   7   -256.0014629 -0.150067E-06  0.873E-04    0.54      10.2  T
   8   -256.0014630 -0.311819E-07  0.686E-04    0.54      13.0  T
     SCC iter.                  ...        0 min,  0.640 sec
     gradient                   ...        0 min,  0.081 sec
 * total energy  :  -252.4793196 Eh     change       -0.6120275E-03 Eh
   gradient norm :     0.0186564 Eh/α   predicted     0.0000000E+00 (-100.00%)
   displ. norm   :     0.1850788 α      lambda       -0.7759941E-03
   maximum displ.:     0.0980664 α      in ANC's #43, #22, #3, ...

........................................................................
.............................. CYCLE   44 ..............................
........................................................................
   1   -256.0011236 -0.256001E+03  0.137E-01    0.53       0.0  T
   2   -256.0011564 -0.328377E-04  0.753E-02    0.53       1.0  T
   3   -256.0011294  0.269864E-04  0.153E-02    0.53       1.0  T
   4   -256.0011689 -0.395321E-04  0.458E-03    0.53       1.9  T
   5   -256.0011701 -0.114302E-05  0.282E-03    0.53       3.2  T
   6   -256.0011711 -0.982113E-06  0.130E-03    0.53       6.8  T
   7   -256.0011712 -0.994627E-07  0.886E-04    0.53      10.1  T
   8   -256.0011712 -0.282713E-07  0.646E-04    0.53      13.8  T
     SCC iter.                  ...        0 min,  0.640 sec
     gradient                   ...        0 min,  0.071 sec
 * total energy  :  -252.4795376 Eh     change       -0.2179090E-03 Eh
   gradient norm :     0.0123509 Eh/α   predicted    -0.4014346E-03 (  84.22%)
   displ. norm   :     0.1587946 α      lambda       -0.6158559E-03
   maximum displ.:     0.0586960 α      in ANC's #3, #20, #1, ...

........................................................................
.............................. CYCLE   45 ..............................
........................................................................
   1   -256.0065371 -0.256007E+03  0.646E-02    0.53       0.0  T
   2   -256.0065433 -0.622398E-05  0.351E-02    0.53       1.0  T
   3   -256.0065263  0.170133E-04  0.119E-02    0.54       1.0  T
   4   -256.0065455 -0.192127E-04  0.390E-03    0.53       2.3  T
   5   -256.0065463 -0.844412E-06  0.227E-03    0.54       3.9  T
   6   -256.0065470 -0.698546E-06  0.772E-04    0.54      11.5  T
   7   -256.0065470 -0.265075E-07  0.575E-04    0.54      15.5  T
     SCC iter.                  ...        0 min,  0.580 sec
     gradient                   ...        0 min,  0.071 sec
 * total energy  :  -252.4798725 Eh     change       -0.3349417E-03 Eh
   gradient norm :     0.0100408 Eh/α   predicted    -0.3156972E-03 (  -5.75%)
   displ. norm   :     0.2309426 α      lambda       -0.4408838E-03
   maximum displ.:     0.0916560 α      in ANC's #3, #20, #1, ...

........................................................................
.............................. CYCLE   46 ..............................
........................................................................
   1   -256.0077358 -0.256008E+03  0.832E-02    0.53       0.0  T
   2   -256.0077472 -0.113870E-04  0.442E-02    0.53       1.0  T
   3   -256.0077316  0.156022E-04  0.132E-02    0.54       1.0  T
   4   -256.0077514 -0.198306E-04  0.481E-03    0.54       1.9  T
   5   -256.0077519 -0.453019E-06  0.282E-03    0.54       3.2  T
   6   -256.0077528 -0.942554E-06  0.122E-03    0.54       7.3  T
   7   -256.0077529 -0.527564E-07  0.976E-04    0.54       9.1  T
   8   -256.0077529 -0.381676E-07  0.707E-04    0.54      12.6  T
     SCC iter.                  ...        0 min,  0.666 sec
     gradient                   ...        0 min,  0.080 sec
 * total energy  :  -252.4801137 Eh     change       -0.2412098E-03 Eh
   gradient norm :     0.0069766 Eh/α   predicted    -0.2321998E-03 (  -3.74%)
   displ. norm   :     0.3709119 α      lambda       -0.5038499E-03
   maximum displ.:     0.1524059 α      in ANC's #3, #20, #1, ...

........................................................................
.............................. CYCLE   47 ..............................
........................................................................
   1   -256.0055597 -0.256006E+03  0.980E-02    0.53       0.0  T
   2   -256.0055733 -0.136044E-04  0.496E-02    0.53       1.0  T
   3   -256.0055620  0.112554E-04  0.125E-02    0.53       1.0  T
   4   -256.0055750 -0.129711E-04  0.657E-03    0.54       1.4  T
   5   -256.0055772 -0.221325E-05  0.303E-03    0.54       2.9  T
   6   -256.0055785 -0.128627E-05  0.103E-03    0.54       8.6  T
   7   -256.0055786 -0.113272E-06  0.663E-04    0.54      13.4  T
   8   -256.0055786 -0.240291E-07  0.492E-04    0.54      18.1  T
     SCC iter.                  ...        0 min,  0.662 sec
     gradient                   ...        0 min,  0.079 sec
 * total energy  :  -252.4804805 Eh     change       -0.3667454E-03 Eh
   gradient norm :     0.0104015 Eh/α   predicted    -0.2865846E-03 ( -21.86%)
   displ. norm   :     0.6249991 α      lambda       -0.8778385E-03
   maximum displ.:     0.2556357 α      in ANC's #3, #20, #1, ...

........................................................................
.............................. CYCLE   48 ..............................
........................................................................
   1   -255.9983546 -0.255998E+03  0.163E-01    0.53       0.0  T
   2   -255.9983916 -0.370005E-04  0.831E-02    0.54       1.0  T
   3   -255.9983414  0.501912E-04  0.226E-02    0.53       1.0  T
   4   -255.9983940 -0.525739E-04  0.117E-02    0.54       1.0  T
   5   -255.9984027 -0.873516E-05  0.565E-03    0.54       1.6  T
   6   -255.9984070 -0.435612E-05  0.164E-03    0.54       5.4  T
   7   -255.9984074 -0.327937E-06  0.902E-04    0.54       9.9  T
   8   -255.9984074 -0.402674E-07  0.633E-04    0.54      14.1  T
     SCC iter.                  ...        0 min,  0.665 sec
     gradient                   ...        0 min,  0.080 sec
 * total energy  :  -252.4809323 Eh     change       -0.4518725E-03 Eh
   gradient norm :     0.0185991 Eh/α   predicted    -0.6103717E-03 (  35.08%)
   displ. norm   :     0.3169874 α      lambda       -0.6362181E-03
   maximum displ.:     0.1524994 α      in ANC's #3, #20, #1, ...

........................................................................
.............................. CYCLE   49 ..............................
........................................................................
   1   -256.0003408 -0.256000E+03  0.720E-02    0.53       0.0  T
   2   -256.0003484 -0.755188E-05  0.371E-02    0.54       1.0  T
   3   -256.0003307  0.176304E-04  0.131E-02    0.54       1.0  T
   4   -256.0003506 -0.198739E-04  0.498E-03    0.54       1.8  T
   5   -256.0003513 -0.693060E-06  0.305E-03    0.54       2.9  T
   6   -256.0003528 -0.146042E-05  0.657E-04    0.54      13.6  T
   7   -256.0003528 -0.304314E-07  0.448E-04    0.54      19.9  T
   8   -256.0003528 -0.948285E-08  0.313E-04    0.54      28.4  T
     SCC iter.                  ...        0 min,  0.657 sec
     gradient                   ...        0 min,  0.080 sec
 * total energy  :  -252.4814148 Eh     change       -0.4824669E-03 Eh
   gradient norm :     0.0108934 Eh/α   predicted    -0.3500762E-03 ( -27.44%)
   displ. norm   :     0.5027345 α      lambda       -0.7867049E-03
   maximum displ.:     0.2512777 α      in ANC's #3, #1, #6, ...

........................................................................
.............................. CYCLE   50 ..............................
........................................................................
   1   -256.0082934 -0.256008E+03  0.949E-02    0.54       0.0  T
   2   -256.0083093 -0.158707E-04  0.480E-02    0.54       1.0  T
   3   -256.0082965  0.127680E-04  0.140E-02    0.54       1.0  T
   4   -256.0083121 -0.155604E-04  0.658E-03    0.54       1.4  T
   5   -256.0083127 -0.576650E-06  0.391E-03    0.54       2.3  T
   6   -256.0083150 -0.236246E-05  0.107E-03    0.54       8.3  T
   7   -256.0083151 -0.101664E-06  0.697E-04    0.54      12.8  T
   8   -256.0083152 -0.210708E-07  0.527E-04    0.54      16.9  T
     SCC iter.                  ...        0 min,  0.644 sec
     gradient                   ...        0 min,  0.080 sec
 * total energy  :  -252.4819677 Eh     change       -0.5528696E-03 Eh
   gradient norm :     0.0096658 Eh/α   predicted    -0.4927735E-03 ( -10.87%)
   displ. norm   :     0.7160055 α      lambda       -0.8181554E-03
   maximum displ.:     0.3443879 α      in ANC's #3, #20, #1, ...

........................................................................
.............................. CYCLE   51 ..............................
........................................................................
   1   -256.0079504 -0.256008E+03  0.135E-01    0.54       0.0  T
   2   -256.0079777 -0.273310E-04  0.667E-02    0.55       1.0  T
   3   -256.0079641  0.136435E-04  0.165E-02    0.55       1.0  T
   4   -256.0079805 -0.164223E-04  0.903E-03    0.55       1.0  T
   5   -256.0079820 -0.151475E-05  0.494E-03    0.55       1.8  T
   6   -256.0079866 -0.451352E-05  0.131E-03    0.55       6.8  T
   7   -256.0079867 -0.189581E-06  0.789E-04    0.55      11.3  T
   8   -256.0079868 -0.241371E-07  0.605E-04    0.55      14.7  T
     SCC iter.                  ...        0 min,  0.687 sec
     gradient                   ...        0 min,  0.073 sec
 * total energy  :  -252.4826568 Eh     change       -0.6891057E-03 Eh
   gradient norm :     0.0103741 Eh/α   predicted    -0.6187982E-03 ( -10.20%)
   displ. norm   :     0.7068942 α      lambda       -0.8433969E-03
   maximum displ.:     0.3633138 α      in ANC's #3, #1, #6, ...

........................................................................
.............................. CYCLE   52 ..............................
........................................................................
   1   -256.0092842 -0.256009E+03  0.120E-01    0.54       0.0  T
   2   -256.0093063 -0.221787E-04  0.603E-02    0.55       1.0  T
   3   -256.0092941  0.122071E-04  0.150E-02    0.55       1.0  T
   4   -256.0093073 -0.131317E-04  0.846E-03    0.55       1.1  T
   5   -256.0093099 -0.268555E-05  0.463E-03    0.55       1.9  T
[...]

 ---------------------------------------------------------------------------
     #   Z sym  total        # sym  WBO       # sym  WBO       # sym  WBO
 ---------------------------------------------------------------------------
     1   6 C    3.956 --     2 C    1.539    21 C    1.238    93 H    0.947
     2   6 C    3.953 --     1 C    1.539    15 C    1.130     3 C    1.012
     3   6 C    3.928 --     4 O    1.777     2 C    1.012     5 C    1.008
     4   8 O    2.060 --     3 C    1.777
     5   6 C    3.970 --     6 C    1.378    14 C    1.275     3 C    1.008
     6   6 C    3.935 --     5 C    1.378     8 C    1.311     7 Cl   1.046
     7  17 Cl   1.219 --     6 C    1.046
     8   6 C    3.926 --    10 C    1.366     6 C    1.311     9 Cl   1.033
     9  17 Cl   1.194 --     8 C    1.033
    10   6 C    3.929 --     8 C    1.366    12 C    1.318    11 Cl   1.031
    11  17 Cl   1.190 --    10 C    1.031
    12   6 C    3.922 --    14 C    1.373    10 C    1.318    13 Cl   1.018
    13  17 Cl   1.186 --    12 C    1.018
    14   6 C    3.980 --    12 C    1.373     5 C    1.275    15 C    1.074
    15   6 C    3.970 --    16 C    1.492     2 C    1.130    14 C    1.074
    16   6 C    3.956 --    15 C    1.492    19 C    1.097    17 C    1.091
    17   6 C    3.948 --    18 N    2.776    16 C    1.091
    18   7 N    2.983 --    17 C    2.776
    19   6 C    3.948 --    20 N    2.774    16 C    1.097
    20   7 N    2.973 --    19 C    2.774
    21   6 C    3.888 --    22 C    1.379     1 C    1.238    25 O    1.070
    22   6 C    3.969 --    23 C    1.428    21 C    1.379    94 H    0.970
    23   6 C    3.961 --    22 C    1.428    24 C    1.387    95 H    0.971
    24   6 C    3.886 --    23 C    1.387    26 C    1.170    25 O    1.127
    25   8 O    2.424 --    24 C    1.127    21 C    1.070
    26   6 C    3.901 --    27 C    1.376    24 C    1.170    67 S    1.092
    27   6 C    3.946 --    26 C    1.376    45 C    1.218    28 N    1.119
    28   7 N    3.512 --    27 C    1.119    29 C    1.059    37 C    1.036
    29   6 C    3.961 --    36 C    1.359    30 C    1.351    28 N    1.059
    30   6 C    3.984 --    31 C    1.477    29 C    1.351    96 H    0.965
    31   6 C    3.987 --    30 C    1.477    32 C    1.365    97 H    0.964
    32   6 C    3.955 --    35 C    1.380    31 C    1.365    33 S    1.047
    33  16 S    2.281 --    32 C    1.047    34 C    1.008
    34   6 C    3.977 --    33 S    1.008    98 H    0.982    99 H    0.981
                           100 H    0.979
    35   6 C    3.988 --    36 C    1.462    32 C    1.380   101 H    0.965
    36   6 C    3.984 --    35 C    1.462    29 C    1.359   102 H    0.967
    37   6 C    3.959 --    38 C    1.371    44 C    1.352    28 N    1.036
    38   6 C    3.982 --    39 C    1.448    37 C    1.371   103 H    0.967
                            43 C    0.100
    39   6 C    3.988 --    38 C    1.448    40 C    1.387   104 H    0.964
    40   6 C    3.954 --    39 C    1.387    43 C    1.359    41 S    1.063
    41  16 S    2.271 --    40 C    1.063    42 C    1.010
    42   6 C    3.977 --    41 S    1.010   105 H    0.982   106 H    0.982
                           107 H    0.978
    43   6 C    3.988 --    44 C    1.483    40 C    1.359   108 H    0.967
                            38 C    0.100
    44   6 C    3.981 --    43 C    1.483    37 C    1.352   109 H    0.966
    45   6 C    3.924 --    66 C    1.379    27 C    1.218    46 S    1.111
    46  16 S    2.526 --    45 C    1.111    47 C    1.085
    47   6 C    3.907 --    48 C    1.350    68 C    1.209    46 S    1.085
    48   6 C    3.945 --    47 C    1.350    66 C    1.218    49 N    1.136
    49   7 N    3.546 --    48 C    1.136    58 C    1.080    50 C    1.016
    50   6 C    3.958 --    51 C    1.378    57 C    1.359    49 N    1.016
    51   6 C    3.983 --    52 C    1.450    50 C    1.378   110 H    0.966
                            56 C    0.101
    52   6 C    3.988 --    51 C    1.450    53 C    1.386   111 H    0.964
    53   6 C    3.956 --    52 C    1.386    56 C    1.363    54 S    1.063
    54  16 S    2.269 --    53 C    1.063    55 C    1.009
    55   6 C    3.976 --    54 S    1.009   113 H    0.982   112 H    0.982
                           114 H    0.978
    56   6 C    3.988 --    57 C    1.477    53 C    1.363   115 H    0.967
                            51 C    0.101
    57   6 C    3.983 --    56 C    1.477    50 C    1.359   116 H    0.967
    58   6 C    3.961 --    59 C    1.350    65 C    1.336    49 N    1.080
    59   6 C    3.980 --    60 C    1.454    58 C    1.350   117 H    0.962
    60   6 C    3.990 --    59 C    1.454    61 C    1.385   118 H    0.966
    61   6 C    3.955 --    60 C    1.385    64 C    1.360    62 S    1.057
    62  16 S    2.251 --    61 C    1.057    63 C    1.006
    63   6 C    3.974 --    62 S    1.006   119 H    0.983   120 H    0.980
                           121 H    0.977
    64   6 C    3.988 --    65 C    1.484    61 C    1.360   122 H    0.967
    65   6 C    3.986 --    64 C    1.484    58 C    1.336   123 H    0.966
    66   6 C    3.927 --    45 C    1.379    48 C    1.218    67 S    1.115
    67  16 S    2.540 --    66 C    1.115    26 C    1.092
    68   6 C    3.894 --    69 C    1.339    47 C    1.209    72 O    1.135
    69   6 C    3.956 --    70 C    1.472    68 C    1.339   124 H    0.971
    70   6 C    3.961 --    69 C    1.472    71 C    1.336   125 H    0.972
    71   6 C    3.892 --    70 C    1.336    73 C    1.280    72 O    1.080
    72   8 O    2.449 --    68 C    1.135    71 C    1.080
    73   6 C    3.957 --    74 C    1.477    71 C    1.280   126 H    0.949
    74   6 C    3.956 --    73 C    1.477    87 C    1.154    75 C    1.047
    75   6 C    3.938 --    76 O    1.747    74 C    1.047    77 C    1.000
    76   8 O    2.060 --    75 C    1.747
    77   6 C    3.969 --    78 C    1.387    86 C    1.277    75 C    1.000
    78   6 C    3.930 --    77 C    1.387    80 C    1.314    79 Cl   1.026
    79  17 Cl   1.194 --    78 C    1.026
    80   6 C    3.924 --    82 C    1.368    78 C    1.314    81 Cl   1.028
    81  17 Cl   1.188 --    80 C    1.028
    82   6 C    3.928 --    80 C    1.368    84 C    1.317    83 Cl   1.031
    83  17 Cl   1.191 --    82 C    1.031
    84   6 C    3.921 --    86 C    1.367    82 C    1.317    85 Cl   1.025
    85  17 Cl   1.202 --    84 C    1.025
    86   6 C    3.978 --    84 C    1.367    77 C    1.277    87 C    1.081
    87   6 C    3.968 --    88 C    1.471    74 C    1.154    86 C    1.081
    88   6 C    3.941 --    87 C    1.471    89 C    1.101    91 C    1.094
    89   6 C    3.945 --    90 N    2.757    88 C    1.101
    90   7 N    2.965 --    89 C    2.757
    91   6 C    3.946 --    92 N    2.764    88 C    1.094
    92   7 N    2.972 --    91 C    2.764
    93   1 H    0.990 --     1 C    0.947
    94   1 H    0.997 --    22 C    0.970
    95   1 H    0.996 --    23 C    0.971
    96   1 H    0.997 --    30 C    0.965
    97   1 H    0.995 --    31 C    0.964
    98   1 H    0.997 --    34 C    0.982
    99   1 H    0.995 --    34 C    0.981
   100   1 H    0.996 --    34 C    0.979
   101   1 H    0.998 --    35 C    0.965
   102   1 H    0.999 --    36 C    0.967
   103   1 H    0.998 --    38 C    0.967
   104   1 H    0.997 --    39 C    0.964
   105   1 H    0.996 --    42 C    0.982
   106   1 H    0.996 --    42 C    0.982
   107   1 H    0.995 --    42 C    0.978
   108   1 H    0.997 --    43 C    0.967
   109   1 H    0.998 --    44 C    0.966
   110   1 H    0.997 --    51 C    0.966
   111   1 H    0.997 --    52 C    0.964
   112   1 H    0.996 --    55 C    0.982
   113   1 H    0.996 --    55 C    0.982
   114   1 H    0.995 --    55 C    0.978
   115   1 H    0.996 --    56 C    0.967
   116   1 H    0.998 --    57 C    0.967
   117   1 H    0.998 --    59 C    0.962
   118   1 H    0.999 --    60 C    0.966
   119   1 H    0.996 --    63 C    0.983
   120   1 H    0.997 --    63 C    0.980
   121   1 H    0.994 --    63 C    0.977
   122   1 H    0.997 --    64 C    0.967
   123   1 H    0.998 --    65 C    0.966
   124   1 H    0.996 --    69 C    0.971
   125   1 H    0.996 --    70 C    0.972
   126   1 H    0.992 --    73 C    0.949
 ---------------------------------------------------------------------------

Topologies differ in bond orders
Writing corrected topology to xtbtopo.mol

molecular dipole:
                 x           y           z       tot (Debye)
 q only:       -0.924       1.513      -0.696
   full:        0.115       2.137       0.082       5.443
molecular quadrupole (traceless):
                xx          xy          yy          xz          yz          zz
 q only:       18.259      -5.415      50.217      84.414      39.383     -68.476
  q+dip:       31.628       9.008      35.744      72.248      49.435     -67.373
   full:       28.498      14.783      43.910      68.977      47.359     -72.408

           -------------------------------------------------
          |                Geometry Summary                 |
           -------------------------------------------------

      molecular mass/u    :     1475.0500907
   center of mass at/Å    :       -0.1508548       0.3737287       0.5865491
  moments of inertia/u·Å² :        0.1810456E+05   0.7752530E+05   0.8933163E+05
rotational constants/cm⁻¹ :        0.9311263E-03   0.2174468E-03   0.1887084E-03

 * 117 selected distances

     #   Z          #   Z                                           value/Å
     1   6 C        2   6 C                                       1.3622616
     3   6 C        4   8 O                                       1.2065809
     5   6 C        6   6 C                                       1.3837684
     6   6 C        7  17 Cl                                      1.7035660
     6   6 C        8   6 C                                       1.4029423
     8   6 C        9  17 Cl                                      1.7094113
     8   6 C       10   6 C                                       1.3942312
    10   6 C       11  17 Cl                                      1.7117209
    10   6 C       12   6 C                                       1.4036658
    12   6 C       13  17 Cl                                      1.7179319
     5   6 C       14   6 C                                       1.4102778
    12   6 C       14   6 C                                       1.3860941
    15   6 C       16   6 C                                       1.3690939
    17   6 C       18   7 N                                       1.1471613
    19   6 C       20   7 N                                       1.1473402
     1   6 C       21   6 C                                       1.4081208
    21   6 C       22   6 C                                       1.3935307
    22   6 C       23   6 C                                       1.3900277
    23   6 C       24   6 C                                       1.3900897
    21   6 C       25   8 O                                       1.3619348
    24   6 C       25   8 O                                       1.3409407
    24   6 C       26   6 C                                       1.4221565
    26   6 C       27   6 C                                       1.3952100
    27   6 C       28   7 N                                       1.3782776
    28   7 N       29   6 C                                       1.3992729
    29   6 C       30   6 C                                       1.3959183
    30   6 C       31   6 C                                       1.3773997
    31   6 C       32   6 C                                       1.3938331
    32   6 C       35   6 C                                       1.3892525
    29   6 C       36   6 C                                       1.3944498
    35   6 C       36   6 C                                       1.3797579
    28   7 N       37   6 C                                       1.4060048
    37   6 C       38   6 C                                       1.3913007
    38   6 C       39   6 C                                       1.3814586
    39   6 C       40   6 C                                       1.3884238
    40   6 C       43   6 C                                       1.3954936
    37   6 C       44   6 C                                       1.3948312
    43   6 C       44   6 C                                       1.3756009
    27   6 C       45   6 C                                       1.4177871
    45   6 C       46  16 S                                       1.7294638
    46  16 S       47   6 C                                       1.7575799 (max)
    47   6 C       48   6 C                                       1.3996069
    48   6 C       49   7 N                                       1.3739874
    49   7 N       50   6 C                                       1.4132841
    50   6 C       51   6 C                                       1.3901131
    51   6 C       52   6 C                                       1.3810079
    52   6 C       53   6 C                                       1.3891598
    53   6 C       56   6 C                                       1.3948936
    50   6 C       57   6 C                                       1.3936928
    56   6 C       57   6 C                                       1.3763725
    49   7 N       58   6 C                                       1.3934718
    58   6 C       59   6 C                                       1.3956443
    59   6 C       60   6 C                                       1.3806462
    60   6 C       61   6 C                                       1.3881542
    61   6 C       64   6 C                                       1.3939905
    58   6 C       65   6 C                                       1.3977010
    64   6 C       65   6 C                                       1.3758553
    45   6 C       66   6 C                                       1.3856355
    48   6 C       66   6 C                                       1.4189521
    26   6 C       67  16 S                                       1.7553982
    66   6 C       67  16 S                                       1.7291475
    47   6 C       68   6 C                                       1.4122391
    68   6 C       69   6 C                                       1.3991510
    69   6 C       70   6 C                                       1.3845630
    70   6 C       71   6 C                                       1.4005351
    68   6 C       72   8 O                                       1.3351935
    71   6 C       72   8 O                                       1.3528011
    71   6 C       73   6 C                                       1.3998402
    73   6 C       74   6 C                                       1.3770495
    75   6 C       76   8 O                                       1.2118050
    77   6 C       78   6 C                                       1.3820709
    78   6 C       79  17 Cl                                      1.7095839
    78   6 C       80   6 C                                       1.4010722
    80   6 C       81  17 Cl                                      1.7105629
    80   6 C       82   6 C                                       1.3932117
    82   6 C       83  17 Cl                                      1.7117028
    82   6 C       84   6 C                                       1.4049536
    84   6 C       85  17 Cl                                      1.7163499
    77   6 C       86   6 C                                       1.4083260
    84   6 C       86   6 C                                       1.3894498
    87   6 C       88   6 C                                       1.3733721
    89   6 C       90   7 N                                       1.1484802
    91   6 C       92   7 N                                       1.1479736
     1   6 C       93   1 H                                       1.0843465
    22   6 C       94   1 H                                       1.0699800 (min)
    23   6 C       95   1 H                                       1.0710097
    30   6 C       96   1 H                                       1.0791109
    31   6 C       97   1 H                                       1.0789285
    34   6 C       98   1 H                                       1.0860459
    34   6 C       99   1 H                                       1.0858587
    34   6 C      100   1 H                                       1.0856442
    35   6 C      101   1 H                                       1.0781145
    36   6 C      102   1 H                                       1.0801575
    38   6 C      103   1 H                                       1.0801295
    39   6 C      104   1 H                                       1.0776259
    42   6 C      105   1 H                                       1.0859840
    42   6 C      106   1 H                                       1.0859852
    42   6 C      107   1 H                                       1.0855849
    43   6 C      108   1 H                                       1.0789245
    44   6 C      109   1 H                                       1.0794745
    51   6 C      110   1 H                                       1.0794402
    52   6 C      111   1 H                                       1.0779175
    55   6 C      112   1 H                                       1.0858131
    55   6 C      113   1 H                                       1.0861567
    55   6 C      114   1 H                                       1.0855393
    56   6 C      115   1 H                                       1.0789065
    57   6 C      116   1 H                                       1.0796629
    59   6 C      117   1 H                                       1.0782418
    60   6 C      118   1 H                                       1.0793632
    63   6 C      119   1 H                                       1.0856416
    63   6 C      120   1 H                                       1.0858241
    63   6 C      121   1 H                                       1.0854338
    64   6 C      122   1 H                                       1.0789161
    65   6 C      123   1 H                                       1.0795662
    69   6 C      124   1 H                                       1.0712190
    70   6 C      125   1 H                                       1.0710211
    73   6 C      126   1 H                                       1.0804048

 * 6 distinct bonds (by element types)

   Z      Z             #   av. dist./Å        max./Å        min./Å
   1 H    6 C          34     1.0806463     1.0861567     1.0699800
   6 C    6 C          55     1.3922589     1.4221565     1.3622616
   6 C    7 N          10     1.2955254     1.4132841     1.1471613
   6 C    8 O           6     1.3015427     1.3619348     1.2065809
   6 C   16 S           4     1.7428974     1.7575799     1.7291475
   6 C   17 Cl          8     1.7113537     1.7179319     1.7035660


optimized geometry written to: xtbopt.mol


           -------------------------------------------------
          | TOTAL ENERGY             -252.519560639245 Eh   |
          | GRADIENT NORM               0.000505999422 Eh/α |
          | HOMO-LUMO GAP               0.588687777996 eV   |
           -------------------------------------------------

------------------------------------------------------------------------
 * finished run on 2022/02/11 at 03:58:42.611     
------------------------------------------------------------------------
 total:
 * wall-time:     0 d,  0 h,  1 min, 50.458 sec
 *  cpu-time:     0 d,  0 h, 12 min, 58.980 sec
 * ratio c/w:     7.052 speedup
 SCF:
 * wall-time:     0 d,  0 h,  0 min,  1.559 sec
 *  cpu-time:     0 d,  0 h,  0 min,  9.347 sec
 * ratio c/w:     5.994 speedup
 ANC optimizer:
 * wall-time:     0 d,  0 h,  1 min, 48.789 sec
 *  cpu-time:     0 d,  0 h, 12 min, 48.994 sec
 * ratio c/w:     7.069 speedup

