      -----------------------------------------------------------      
     |                   =====================                   |     
     |                           x T B                           |     
     |                   =====================                   |     
     |                         S. Grimme                         |     
     |          Mulliken Center for Theoretical Chemistry        |     
     |                    University of Bonn                     |     
      -----------------------------------------------------------      

   * xtb version 6.4.1 (unknown) compiled by 'oda6@login1.crc.pitt.edu' on 2021-06-25

   xtb is free software: you can redistribute it and/or modify it under
   the terms of the GNU Lesser General Public License as published by
   the Free Software Foundation, either version 3 of the License, or
   (at your option) any later version.
   
   xtb is distributed in the hope that it will be useful,
   but WITHOUT ANY WARRANTY; without even the implied warranty of
   MERCHANTABILITY or FITNESS FOR A PARTICULAR PURPOSE.  See the
   GNU Lesser General Public License for more details.
   
   Cite this work as:
   * C. Bannwarth, E. Caldeweyher, S. Ehlert, A. Hansen, P. Pracht,
     J. Seibert, S. Spicher, S. Grimme, WIREs Comput. Mol. Sci., 2020, 11,
     e01493. DOI: 10.1002/wcms.1493
   
   for GFN2-xTB:
   * C. Bannwarth, S. Ehlert and S. Grimme., J. Chem. Theory Comput., 2019,
     15, 1652-1671. DOI: 10.1021/acs.jctc.8b01176
   for GFN1-xTB:
   * S. Grimme, C. Bannwarth, P. Shushkov, J. Chem. Theory Comput., 2017,
     13, 1989-2009. DOI: 10.1021/acs.jctc.7b00118
   for GFN0-xTB:
   * P. Pracht, E. Caldeweyher, S. Ehlert, S. Grimme, ChemRxiv, 2019, preprint.
     DOI: 10.26434/chemrxiv.8326202.v1
   for GFN-FF:
   * S. Spicher and S. Grimme, Angew. Chem. Int. Ed., 2020, 59, 15665-15673.
     DOI: 10.1002/anie.202004239
   
   for DFT-D4:
   * E. Caldeweyher, C. Bannwarth and S. Grimme, J. Chem. Phys., 2017,
     147, 034112. DOI: 10.1063/1.4993215
   * E. Caldeweyher, S. Ehlert, A. Hansen, H. Neugebauer, S. Spicher,
     C. Bannwarth and S. Grimme, J. Chem. Phys., 2019, 150, 154122.
     DOI: 10.1063/1.5090222
   * E. Caldeweyher, J.-M. Mewes, S. Ehlert and S. Grimme, Phys. Chem. Chem. Phys.
     2020, 22, 8499-8512. DOI: 10.1039/D0CP00502A
   
   for sTDA-xTB:
   * S. Grimme and C. Bannwarth, J. Chem. Phys., 2016, 145, 054103.
     DOI: 10.1063/1.4959605
   
   in the mass-spec context:
   * V. Asgeirsson, C. Bauer and S. Grimme, Chem. Sci., 2017, 8, 4879.
     DOI: 10.1039/c7sc00601b
   * J. Koopman and S. Grimme, ACS Omega 2019, 4, 12, 15120-15133.
     DOI: 10.1021/acsomega.9b02011
   
   for metadynamics refer to:
   * S. Grimme, J. Chem. Theory Comput., 2019, 155, 2847-2862
     DOI: 10.1021/acs.jctc.9b00143
   
   for SPH calculations refer to:
   * S. Spicher and S. Grimme, J. Chem. Theory Comput., 2021, 17, 1701-1714
     DOI: 10.1021/acs.jctc.0c01306
   
   with help from (in alphabetical order)
   P. Atkinson, C. Bannwarth, F. Bohle, G. Brandenburg, E. Caldeweyher
   M. Checinski, S. Dohm, S. Ehlert, S. Ehrlich, I. Gerasimov, J. Koopman
   C. Lavigne, S. Lehtola, F. März, M. Müller, F. Musil, H. Neugebauer
   J. Pisarek, C. Plett, P. Pracht, J. Seibert, P. Shushkov, S. Spicher
   M. Stahn, M. Steiner, T. Strunk, J. Stückrath, T. Rose, and J. Unsleber
   
 * started run on 2022/02/04 at 00:01:44.372     

           -------------------------------------------------
          |                Calculation Setup                |
           -------------------------------------------------

          program call               : /ihome/ghutchison/oda6/xtb/xtb-641/bin/xtb ../../FF_optimized/65_161_130_95_65.mol -opt
          hostname                   : smp-n57
          coordinate file            : ../../FF_optimized/65_161_130_95_65.mol
          omp threads                :                     8
          number of atoms            :                   164
          number of electrons        :                   572
          charge                     :                     0
          spin                       :                   0.0
          first test random number   :      0.22582820346365

   ID    Z sym.   atoms
    1    6 C      1-3, 5, 6, 8, 10, 12, 14-17, 19, 21-30, 32-40, 42, 44, 45,
                  47, 48, 50-53, 55-61, 63-66, 68, 69, 71-74, 76-82, 84-87,
                  89-93, 95, 97-99, 101, 102, 104, 106, 108, 110-113, 115
    2    8 O      4, 100
    3   17 Cl     7, 9, 11, 13, 103, 105, 107, 109
    4    7 N      18, 20, 49, 70, 114, 116
    5   16 S      31, 41, 43, 46, 54, 62, 67, 75, 83, 88
    6    9 F      94, 96
    7    1 H      117-164
########################################################################
[WARNING] Please study the warnings concerning your input carefully
-1- prog_main_parseArguments: the use of '-opt' is discouraged, please use '--opt' next time
########################################################################

           -------------------------------------------------
          |                 G F N 2 - x T B                 |
           -------------------------------------------------

        Reference                      10.1021/acs.jctc.8b01176
      * Hamiltonian:
        H0-scaling (s, p, d)           1.850000    2.230000    2.230000
        zeta-weighting                 0.500000
      * Dispersion:
        s8                             2.700000
        a1                             0.520000
        a2                             5.000000
        s9                             5.000000
      * Repulsion:
        kExp                           1.500000    1.000000
        rExp                           1.000000
      * Coulomb:
        alpha                          2.000000
        third order                    shell-resolved
        anisotropic                    true
        a3                             3.000000
        a5                             4.000000
        cn-shift                       1.200000
        cn-exp                         4.000000
        max-rad                        5.000000


          ...................................................
          :                      SETUP                      :
          :.................................................:
          :  # basis functions                 620          :
          :  # atomic orbitals                 602          :
          :  # shells                          298          :
          :  # electrons                       572          :
          :  max. iterations                   250          :
          :  Hamiltonian                  GFN2-xTB          :
          :  restarted?                      false          :
          :  GBSA solvation                  false          :
          :  PC potential                    false          :
          :  electronic temp.          300.0000000     K    :
          :  accuracy                    1.0000000          :
          :  -> integral cutoff          0.2500000E+02      :
          :  -> integral neglect         0.1000000E-07      :
          :  -> SCF convergence          0.1000000E-05 Eh   :
          :  -> wf. convergence          0.1000000E-03 e    :
          :  Broyden damping             0.4000000          :
          ...................................................

 iter      E             dE          RMSdq      gap      omega  full diag
   1   -320.4732637 -0.320473E+03  0.506E+00    1.21       0.0  T
   2   -320.6450301 -0.171766E+00  0.306E+00    0.87       1.0  T
   3   -320.0426166  0.602414E+00  0.230E+00    0.01       1.0  T
   4   -320.7621552 -0.719539E+00  0.899E-01    0.57       1.0  T
   5   -320.8472764 -0.851212E-01  0.437E-01    0.39       1.0  T
   6   -320.8534110 -0.613459E-02  0.293E-01    0.47       1.0  T
   7   -320.8554958 -0.208477E-02  0.190E-01    0.43       1.0  T
   8   -320.8582205 -0.272473E-02  0.791E-02    0.21       1.0  T
   9   -320.8537792  0.444130E-02  0.186E-01    0.12       1.0  T
  10   -320.8580190 -0.423974E-02  0.832E-02    0.35       1.0  T
  11   -320.8583323 -0.313330E-03  0.605E-02    0.28       1.0  T
  12   -320.8586312 -0.298903E-03  0.262E-02    0.22       1.0  T
  13   -320.8584613  0.169906E-03  0.434E-02    0.17       1.0  T
  14   -320.8587030 -0.241701E-03  0.760E-03    0.20       1.0  T
  15   -320.8587041 -0.110479E-05  0.625E-03    0.21       1.3  T
  16   -320.8587079 -0.376255E-05  0.314E-03    0.20       2.5  T
  17   -320.8587080 -0.147555E-06  0.301E-03    0.20       2.6  T
  18   -320.8587087 -0.715185E-06  0.180E-03    0.20       4.3  T
  19   -320.8587088 -0.649992E-07  0.166E-03    0.20       4.7  T
  20   -320.8587089 -0.123188E-06  0.136E-03    0.20       5.8  T
  21   -320.8587091 -0.185337E-06  0.579E-04    0.20      13.5  T
  22   -320.8587091 -0.305234E-07  0.209E-04    0.20      37.4  T

   *** convergence criteria satisfied after 22 iterations ***

         #    Occupation            Energy/Eh            Energy/eV
      -------------------------------------------------------------
         1        2.0000           -1.0905362             -29.6750
       ...           ...                  ...                  ...
       280        2.0000           -0.3772944             -10.2667
       281        2.0000           -0.3724815             -10.1357
       282        2.0000           -0.3717794             -10.1166
       283        2.0000           -0.3694100             -10.0522
       284        1.9998           -0.3663799              -9.9697
       285        1.9998           -0.3662570              -9.9664
       286        1.9606           -0.3612153              -9.8292 (HOMO)
       287        0.0382           -0.3537609              -9.6263 (LUMO)
       288        0.0015           -0.3506709              -9.5422
       289        0.0000           -0.3450139              -9.3883
       290                         -0.3414326              -9.2909
       291                         -0.3107847              -8.4569
       ...                                ...                  ...
       602                          1.0612643              28.8785
      -------------------------------------------------------------
                  HL-Gap            0.0074543 Eh            0.2028 eV
             Fermi-level           -0.3575022 Eh           -9.7281 eV

 SCC (total)                   0 d,  0 h,  0 min,  0.929 sec
 SCC setup                      ...        0 min,  0.001 sec (  0.142%)
 Dispersion                     ...        0 min,  0.009 sec (  1.000%)
 classical contributions        ...        0 min,  0.000 sec (  0.028%)
 integral evaluation            ...        0 min,  0.042 sec (  4.534%)
 iterations                     ...        0 min,  0.779 sec ( 83.892%)
 molecular gradient             ...        0 min,  0.093 sec ( 10.062%)
 printout                       ...        0 min,  0.003 sec (  0.333%)

         :::::::::::::::::::::::::::::::::::::::::::::::::::::
         ::                     SUMMARY                     ::
         :::::::::::::::::::::::::::::::::::::::::::::::::::::
         :: total energy            -316.669161838835 Eh    ::
         :: gradient norm              0.306412247611 Eh/a0 ::
         :: HOMO-LUMO gap              0.202842624336 eV    ::
         ::.................................................::
         :: SCC energy              -320.858709123068 Eh    ::
         :: -> isotropic ES            0.150172135698 Eh    ::
         :: -> anisotropic ES          0.015081589633 Eh    ::
         :: -> anisotropic XC          0.170904195795 Eh    ::
         :: -> dispersion             -0.291997959342 Eh    ::
         :: repulsion energy           4.183359884524 Eh    ::
         :: add. restraining           0.000000000000 Eh    ::
         :: total charge              -0.000000000001 e     ::
         :::::::::::::::::::::::::::::::::::::::::::::::::::::

      ----------------------------------------------------------- 
     |                   =====================                   |
     |                        A N C O P T                        |
     |                   =====================                   |
     |               Approximate Normal Coordinate               |
     |                Rational Function Optimizer                |
      ----------------------------------------------------------- 

          ...................................................
          :                      SETUP                      :
          :.................................................:
          :   optimization level            normal          :
          :   max. optcycles                   492          :
          :   ANC micro-cycles                  20          :
          :   degrees of freedom               486          :
          :.................................................:
          :   RF solver                   davidson          :
          :   write xtbopt.log                true          :
          :   linear?                        false          :
          :   energy convergence         0.5000000E-05 Eh   :
          :   grad. convergence          0.1000000E-02 Eh/α :
          :   maximium RF displ.         1.0000000          :
          :   Hlow (freq-cutoff)         0.1000000E-01      :
          :   Hmax (freq-cutoff)         5.0000000          :
          :   S6 in model hess.         20.0000000          :
          ...................................................

generating ANC from model Hessian ...
Using Lindh-Hessian (1995)
 Shifting diagonal of input Hessian by   1.001520555725363E-002
 Lowest  eigenvalues of input Hessian
    0.010000    0.000000    0.000000    0.000000    0.000000    0.000000
    0.000000    0.010025    0.010035    0.010044    0.010053    0.010076
    0.010094    0.010098    0.010116    0.010127    0.010165    0.010209
 Highest eigenvalues
    2.130022    2.130548    2.482522    2.489352    2.541837    2.552177
 

........................................................................
.............................. CYCLE    1 ..............................
........................................................................
   1   -320.8587091 -0.320859E+03  0.128E-04    0.20       0.0  T
   2   -320.8587091  0.625124E-08  0.231E-04    0.20      33.8  T
   3   -320.8587091 -0.693677E-08  0.101E-04    0.20      77.1  T
     SCC iter.                  ...        0 min,  0.113 sec
     gradient                   ...        0 min,  0.092 sec
 * total energy  :  -316.6691618 Eh     change       -0.3184709E-08 Eh
   gradient norm :     0.3064099 Eh/α   predicted     0.0000000E+00 (-100.00%)
   displ. norm   :     0.4401677 α      lambda       -0.9480395E-01
   maximum displ.:     0.0871493 α      in ANC's #256, #290, #265, ...

........................................................................
.............................. CYCLE    2 ..............................
........................................................................
   1   -321.0670021 -0.321067E+03  0.260E-01    0.24       0.0  T
   2   -321.0673886 -0.386578E-03  0.185E-01    0.15       1.0  T
   3   -321.0679726 -0.583955E-03  0.129E-01    0.47       1.0  T
   4   -321.0690110 -0.103842E-02  0.639E-02    0.25       1.0  T
   5   -321.0691171 -0.106100E-03  0.416E-02    0.23       1.0  T
   6   -321.0692842 -0.167078E-03  0.298E-02    0.18       1.0  T
   7   -321.0693623 -0.780944E-04  0.160E-02    0.22       1.0  T
   8   -321.0693658 -0.346653E-05  0.135E-02    0.20       1.0  T
   9   -321.0693794 -0.136787E-04  0.797E-03    0.21       1.0  T
  10   -321.0693857 -0.624339E-05  0.348E-03    0.20       2.2  T
  11   -321.0693857 -0.520089E-08  0.291E-03    0.20       2.7  T
  12   -321.0693867 -0.101073E-05  0.981E-04    0.21       8.0  T
  13   -321.0693867 -0.552440E-07  0.677E-04    0.21      11.5  T
  14   -321.0693868 -0.300747E-07  0.429E-04    0.21      18.2  T
     SCC iter.                  ...        0 min,  0.517 sec
     gradient                   ...        0 min,  0.091 sec
 * total energy  :  -316.7379669 Eh     change       -0.6880507E-01 Eh
   gradient norm :     0.1499447 Eh/α   predicted    -0.5662421E-01 ( -17.70%)
   displ. norm   :     0.4466925 α      lambda       -0.4192483E-01
   maximum displ.:     0.1149229 α      in ANC's #103, #104, #256, ...

........................................................................
.............................. CYCLE    3 ..............................
........................................................................
   1   -321.1897543 -0.321190E+03  0.229E-01    0.19       0.0  T
   2   -321.1910099 -0.125562E-02  0.146E-01    0.25       1.0  T
   3   -321.1795125  0.114974E-01  0.300E-01    0.10       1.0  T
   4   -321.1909478 -0.114353E-01  0.934E-02    0.34       1.0  T
   5   -321.1914528 -0.505051E-03  0.655E-02    0.29       1.0  T
   6   -321.1915085 -0.556760E-04  0.559E-02    0.29       1.0  T
   7   -321.1917027 -0.194153E-03  0.414E-02    0.25       1.0  T
   8   -321.1918765 -0.173860E-03  0.157E-02    0.21       1.0  T
   9   -321.1918641  0.124358E-04  0.179E-02    0.19       1.0  T
  10   -321.1918618  0.225884E-05  0.177E-02    0.19       1.0  T
  11   -321.1918976 -0.358100E-04  0.761E-03    0.19       1.0  T
  12   -321.1919047 -0.708308E-05  0.135E-03    0.20       5.8  T
  13   -321.1919048 -0.111970E-06  0.103E-03    0.20       7.6  T
  14   -321.1919049 -0.366045E-07  0.913E-04    0.20       8.5  T
  15   -321.1919049 -0.780723E-07  0.410E-04    0.20      19.0  T
     SCC iter.                  ...        0 min,  0.519 sec
     gradient                   ...        0 min,  0.091 sec
 * total energy  :  -316.7630424 Eh     change       -0.2507550E-01 Eh
   gradient norm :     0.0472461 Eh/α   predicted    -0.2514517E-01 (   0.28%)
   displ. norm   :     0.4959298 α      lambda       -0.1028597E-01
   maximum displ.:     0.1388909 α      in ANC's #103, #104, #90, ...

........................................................................
.............................. CYCLE    4 ..............................
........................................................................
   1   -321.2182630 -0.321218E+03  0.190E-01    0.21       0.0  T
   2   -321.2181303  0.132746E-03  0.120E-01    0.17       1.0  T
   3   -321.2172006  0.929674E-03  0.101E-01    0.42       1.0  T
   4   -321.2183704 -0.116980E-02  0.517E-02    0.26       1.0  T
   5   -321.2185214 -0.150966E-03  0.274E-02    0.22       1.0  T
   6   -321.2185239 -0.256422E-05  0.285E-02    0.18       1.0  T
   7   -321.2186157 -0.918147E-04  0.104E-02    0.21       1.0  T
   8   -321.2186167 -0.966011E-06  0.959E-03    0.19       1.0  T
   9   -321.2186276 -0.109467E-04  0.328E-03    0.20       2.4  T
  10   -321.2186283 -0.655973E-06  0.199E-03    0.20       3.9  T
  11   -321.2186282  0.732890E-07  0.187E-03    0.20       4.2  T
  12   -321.2186286 -0.388498E-06  0.655E-04    0.20      11.9  T
  13   -321.2186286 -0.300627E-07  0.354E-04    0.20      22.0  T
     SCC iter.                  ...        0 min,  0.436 sec
     gradient                   ...        0 min,  0.091 sec
 * total energy  :  -316.7682108 Eh     change       -0.5168364E-02 Eh
   gradient norm :     0.0326228 Eh/α   predicted    -0.6407899E-02 (  23.98%)
   displ. norm   :     0.5879787 α      lambda       -0.8782561E-02
   maximum displ.:     0.1601103 α      in ANC's #103, #74, #76, ...

........................................................................
.............................. CYCLE    5 ..............................
........................................................................
   1   -321.2470283 -0.321247E+03  0.298E-01    0.18       0.0  T
   2   -321.2468709  0.157358E-03  0.175E-01    0.28       1.0  T
   3   -320.6201500  0.626721E+00  0.214E+00    0.10       1.0  T
   4   -321.2459872 -0.625837E+00  0.102E-01    0.32       1.0  T
   5   -321.2469311 -0.943987E-03  0.747E-02    0.33       1.0  T
   6   -321.2470126 -0.814901E-04  0.713E-02    0.32       1.0  T
   7   -321.2470513 -0.386715E-04  0.681E-02    0.31       1.0  T
   8   -321.2471090 -0.576744E-04  0.637E-02    0.30       1.0  T
   9   -321.2471557 -0.467474E-04  0.598E-02    0.28       1.0  T
  10   -321.2472428 -0.870528E-04  0.520E-02    0.26       1.0  T
  11   -321.2473858 -0.143026E-03  0.384E-02    0.24       1.0  T
  12   -321.2474618 -0.760026E-04  0.288E-02    0.22       1.0  T
  13   -321.2475338 -0.719799E-04  0.160E-02    0.21       1.0  T
  14   -321.2475600 -0.261806E-04  0.676E-03    0.20       1.2  T
  15   -321.2475646 -0.462389E-05  0.306E-03    0.20       2.5  T
  16   -321.2475656 -0.103457E-05  0.111E-03    0.20       7.1  T
  17   -321.2475658 -0.126866E-06  0.493E-04    0.19      15.9  T
  18   -321.2475656  0.115662E-06  0.106E-03    0.19       7.4  T
  19   -321.2475657 -0.394345E-07  0.905E-04    0.19       8.6  T
     SCC iter.                  ...        0 min,  0.678 sec
     gradient                   ...        0 min,  0.093 sec
 * total energy  :  -316.7714253 Eh     change       -0.3214514E-02 Eh
   gradient norm :     0.0303718 Eh/α   predicted    -0.5909516E-02 (  83.84%)
   displ. norm   :     0.3362896 α      lambda       -0.3450108E-02
   maximum displ.:     0.1097588 α      in ANC's #27, #75, #28, ...

........................................................................
.............................. CYCLE    6 ..............................
........................................................................
   1   -321.2416895 -0.321242E+03  0.161E-01    0.20       0.0  T
   2   -321.2417050 -0.155263E-04  0.913E-02    0.18       1.0  T
   3   -321.2410248  0.680253E-03  0.745E-02    0.33       1.0  T
   4   -321.2417598 -0.734973E-03  0.199E-02    0.21       1.0  T
   5   -321.2417779 -0.181314E-04  0.115E-02    0.21       1.0  T
   6   -321.2417796 -0.173023E-05  0.118E-02    0.19       1.0  T
   7   -321.2417970 -0.173762E-04  0.278E-03    0.20       2.8  T
   8   -321.2417964  0.595890E-06  0.312E-03    0.19       2.5  T
   9   -321.2417974 -0.968177E-06  0.161E-03    0.20       4.9  T
  10   -321.2417975 -0.157015E-06  0.116E-03    0.20       6.8  T
  11   -321.2417976 -0.107356E-06  0.570E-04    0.20      13.7  T
  12   -321.2417977 -0.312436E-07  0.294E-04    0.20      26.6  T
     SCC iter.                  ...        0 min,  0.416 sec
     gradient                   ...        0 min,  0.091 sec
 * total energy  :  -316.7732577 Eh     change       -0.1832374E-02 Eh
   gradient norm :     0.0309649 Eh/α   predicted    -0.1920142E-02 (   4.79%)
   displ. norm   :     0.4724611 α      lambda       -0.4013000E-02
   maximum displ.:     0.1612020 α      in ANC's #46, #42, #38, ...

........................................................................
.............................. CYCLE    7 ..............................
........................................................................
   1   -321.2413957 -0.321241E+03  0.170E-01    0.19       0.0  T
   2   -321.2414450 -0.492492E-04  0.984E-02    0.22       1.0  T
   3   -321.2208861  0.205588E-01  0.376E-01    0.08       1.0  T
   4   -321.2411401 -0.202540E-01  0.517E-02    0.25       1.0  T
   5   -321.2414597 -0.319527E-03  0.279E-02    0.23       1.0  T
   6   -321.2414846 -0.249777E-04  0.234E-02    0.22       1.0  T
   7   -321.2415237 -0.390240E-04  0.158E-02    0.21       1.0  T
   8   -321.2415455 -0.218266E-04  0.873E-03    0.21       1.0  T
   9   -321.2415541 -0.856866E-05  0.303E-03    0.20       2.6  T
  10   -321.2415543 -0.247806E-06  0.256E-03    0.20       3.1  T
  11   -321.2415534  0.870166E-06  0.359E-03    0.20       2.2  T
  12   -321.2415543 -0.850576E-06  0.256E-03    0.20       3.1  T
  13   -321.2415550 -0.685142E-06  0.111E-03    0.20       7.1  T
  14   -321.2415551 -0.153827E-06  0.216E-04    0.20      36.1  T
  15   -321.2415551  0.118831E-07  0.361E-04    0.20      21.7  T
     SCC iter.                  ...        0 min,  0.518 sec
     gradient                   ...        0 min,  0.092 sec
 * total energy  :  -316.7745867 Eh     change       -0.1329012E-02 Eh
   gradient norm :     0.0241302 Eh/α   predicted    -0.2454386E-02 (  84.68%)
   displ. norm   :     0.3156814 α      lambda       -0.2019663E-02
   maximum displ.:     0.1106990 α      in ANC's #27, #42, #28, ...

........................................................................
.............................. CYCLE    8 ..............................
........................................................................
   1   -321.2481725 -0.321248E+03  0.101E-01    0.19       0.0  T
   2   -321.2481214  0.510721E-04  0.623E-02    0.23       1.0  T
   3   -321.2280047  0.201167E-01  0.373E-01    0.08       1.0  T
   4   -321.2479438 -0.199391E-01  0.438E-02    0.24       1.0  T
   5   -321.2481230 -0.179121E-03  0.317E-02    0.23       1.0  T
   6   -321.2481655 -0.425219E-04  0.257E-02    0.23       1.0  T
   7   -321.2482075 -0.420384E-04  0.183E-02    0.22       1.0  T
   8   -321.2482331 -0.256317E-04  0.115E-02    0.21       1.0  T
   9   -321.2482457 -0.125758E-04  0.582E-03    0.20       1.3  T
  10   -321.2482500 -0.429099E-05  0.492E-04    0.20      15.9  T
  11   -321.2482496  0.429613E-06  0.186E-03    0.20       4.2  T
  12   -321.2482497 -0.116738E-06  0.162E-03    0.20       4.8  T
  13   -321.2482499 -0.210627E-06  0.972E-04    0.20       8.0  T
  14   -321.2482500 -0.109438E-06  0.344E-04    0.20      22.7  T
     SCC iter.                  ...        0 min,  0.485 sec
     gradient                   ...        0 min,  0.091 sec
 * total energy  :  -316.7760130 Eh     change       -0.1426372E-02 Eh
   gradient norm :     0.0181968 Eh/α   predicted    -0.1110468E-02 ( -22.15%)
   displ. norm   :     0.5402748 α      lambda       -0.2310444E-02
   maximum displ.:     0.1649909 α      in ANC's #28, #38, #46, ...

........................................................................
.............................. CYCLE    9 ..............................
........................................................................
   1   -321.2480600 -0.321248E+03  0.181E-01    0.18       0.0  T
   2   -321.2479140  0.145987E-03  0.109E-01    0.25       1.0  T
   3   -321.0298716  0.218042E+00  0.125E+00    0.00       1.0  T
   4   -321.2474799 -0.217608E+00  0.728E-02    0.28       1.0  T
   5   -321.2478638 -0.383959E-03  0.578E-02    0.28       1.0  T
   6   -321.2479159 -0.520190E-04  0.540E-02    0.28       1.0  T
   7   -321.2479665 -0.506637E-04  0.498E-02    0.26       1.0  T
   8   -321.2480205 -0.540005E-04  0.446E-02    0.25       1.0  T
   9   -321.2480650 -0.444552E-04  0.401E-02    0.25       1.0  T
  10   -321.2481348 -0.698359E-04  0.318E-02    0.23       1.0  T
  11   -321.2482173 -0.824612E-04  0.186E-02    0.22       1.0  T
  12   -321.2482502 -0.329533E-04  0.906E-03    0.21       1.0  T
  13   -321.2482600 -0.980709E-05  0.246E-03    0.20       3.2  T
  14   -321.2482608 -0.734853E-06  0.274E-04    0.20      28.5  T
  15   -321.2482608  0.119710E-07  0.404E-04    0.20      19.3  T
     SCC iter.                  ...        0 min,  0.503 sec
     gradient                   ...        0 min,  0.092 sec
 * total energy  :  -316.7768540 Eh     change       -0.8409506E-03 Eh
   gradient norm :     0.0402492 Eh/α   predicted    -0.1492437E-02 (  77.47%)
   displ. norm   :     0.4097007 α      lambda       -0.2112846E-02
   maximum displ.:     0.1283968 α      in ANC's #46, #27, #42, ...

........................................................................
.............................. CYCLE   10 ..............................
........................................................................
   1   -321.2612459 -0.321261E+03  0.100E-01    0.20       0.0  T
   2   -321.2612459 -0.728733E-10  0.577E-02    0.19       1.0  T
   3   -321.2607128  0.533039E-03  0.603E-02    0.29       1.0  T
   4   -321.2612822 -0.569313E-03  0.960E-03    0.20       1.0  T
   5   -321.2612841 -0.193722E-05  0.711E-03    0.20       1.1  T
   6   -321.2612885 -0.444752E-05  0.552E-03    0.19       1.4  T
   7   -321.2612918 -0.328881E-05  0.202E-03    0.20       3.9  T
   8   -321.2612923 -0.469765E-06  0.942E-04    0.20       8.3  T
   9   -321.2612923  0.251140E-08  0.877E-04    0.20       8.9  T
     SCC iter.                  ...        0 min,  0.320 sec
     gradient                   ...        0 min,  0.092 sec
 * total energy  :  -316.7781557 Eh     change       -0.1301743E-02 Eh
   gradient norm :     0.0175256 Eh/α   predicted    -0.1233750E-02 (  -5.22%)
   displ. norm   :     0.5068311 α      lambda       -0.1281074E-02
   maximum displ.:     0.1659290 α      in ANC's #46, #38, #42, ...

........................................................................
.............................. CYCLE   11 ..............................
........................................................................
   1   -321.2605346 -0.321261E+03  0.103E-01    0.20       0.0  T
   2   -321.2605182  0.163646E-04  0.604E-02    0.22       1.0  T
   3   -321.2483661  0.121521E-01  0.287E-01    0.10       1.0  T
   4   -321.2604655 -0.120993E-01  0.287E-02    0.22       1.0  T
   5   -321.2605274 -0.618964E-04  0.190E-02    0.22       1.0  T
   6   -321.2605492 -0.218463E-04  0.137E-02    0.21       1.0  T
   7   -321.2605634 -0.142155E-04  0.870E-03    0.21       1.0  T
   8   -321.2605701 -0.663859E-05  0.505E-03    0.21       1.5  T
   9   -321.2605726 -0.252578E-05  0.240E-03    0.20       3.3  T
  10   -321.2605732 -0.643792E-06  0.750E-04    0.20      10.4  T
  11   -321.2605729  0.279398E-06  0.161E-03    0.20       4.8  T
  12   -321.2605731 -0.128279E-06  0.129E-03    0.20       6.0  T
  13   -321.2605733 -0.179315E-06  0.523E-04    0.20      14.9  T
     SCC iter.                  ...        0 min,  0.482 sec
     gradient                   ...        0 min,  0.092 sec
 * total energy  :  -316.7791071 Eh     change       -0.9513929E-03 Eh
   gradient norm :     0.0114799 Eh/α   predicted    -0.8050805E-03 ( -15.38%)
   displ. norm   :     0.6276394 α      lambda       -0.1263354E-02
   maximum displ.:     0.1887244 α      in ANC's #28, #46, #38, ...

........................................................................
.............................. CYCLE   12 ..............................
........................................................................
   1   -321.2626978 -0.321263E+03  0.117E-01    0.20       0.0  T
   2   -321.2626767  0.211574E-04  0.682E-02    0.22       1.0  T
   3   -321.2452329  0.174438E-01  0.344E-01    0.09       1.0  T
   4   -321.2626276 -0.173947E-01  0.291E-02    0.23       1.0  T
   5   -321.2626806 -0.529803E-04  0.214E-02    0.23       1.0  T
   6   -321.2627057 -0.251116E-04  0.161E-02    0.22       1.0  T
   7   -321.2627240 -0.183350E-04  0.108E-02    0.21       1.0  T
   8   -321.2627317 -0.772333E-05  0.757E-03    0.21       1.0  T
   9   -321.2627363 -0.457105E-05  0.466E-03    0.21       1.7  T
  10   -321.2627389 -0.261328E-05  0.102E-03    0.20       7.6  T
  11   -321.2627389 -0.308449E-08  0.996E-04    0.20       7.8  T
  12   -321.2627389  0.412604E-07  0.115E-03    0.20       6.8  T
  13   -321.2627390 -0.105005E-06  0.708E-04    0.20      11.0  T
     SCC iter.                  ...        0 min,  0.451 sec
     gradient                   ...        0 min,  0.091 sec
 * total energy  :  -316.7799019 Eh     change       -0.7948098E-03 Eh
   gradient norm :     0.0206041 Eh/α   predicted    -0.8805154E-03 (  10.78%)
   displ. norm   :     0.6140078 α      lambda       -0.1337789E-02
   maximum displ.:     0.1878238 α      in ANC's #46, #38, #28, ...

........................................................................
.............................. CYCLE   13 ..............................
........................................................................
   1   -321.2522728 -0.321252E+03  0.163E-01    0.20       0.0  T
   2   -321.2523208 -0.479877E-04  0.908E-02    0.21       1.0  T
   3   -321.2508235  0.149732E-02  0.998E-02    0.15       1.0  T
   4   -321.2521801 -0.135665E-02  0.345E-02    0.24       1.0  T
   5   -321.2523582 -0.178047E-03  0.104E-02    0.21       1.0  T
   6   -321.2523625 -0.428634E-05  0.661E-03    0.21       1.2  T
   7   -321.2523690 -0.652195E-05  0.174E-03    0.21       4.5  T
   8   -321.2523690 -0.464411E-07  0.151E-03    0.20       5.2  T
   9   -321.2523692 -0.205211E-06  0.820E-04    0.21       9.5  T
  10   -321.2523693 -0.137762E-07  0.663E-04    0.21      11.8  T
     SCC iter.                  ...        0 min,  0.346 sec
     gradient                   ...        0 min,  0.092 sec
 * total energy  :  -316.7802584 Eh     change       -0.3564326E-03 Eh
   gradient norm :     0.0362510 Eh/α   predicted    -0.9210731E-03 ( 158.41%)
   displ. norm   :     0.2683227 α      lambda       -0.1113902E-02
   maximum displ.:     0.0788515 α      in ANC's #28, #42, #15, ...

........................................................................
.............................. CYCLE   14 ..............................
........................................................................
   1   -321.2594048 -0.321259E+03  0.788E-02    0.20       0.0  T
   2   -321.2593677  0.371234E-04  0.481E-02    0.23       1.0  T
   3   -321.2527901  0.657764E-02  0.210E-01    0.11       1.0  T
   4   -321.2593261 -0.653605E-02  0.299E-02    0.23       1.0  T
   5   -321.2593865 -0.603539E-04  0.205E-02    0.23       1.0  T
   6   -321.2594153 -0.287791E-04  0.140E-02    0.22       1.0  T
   7   -321.2594336 -0.183525E-04  0.748E-03    0.21       1.0  T
   8   -321.2594391 -0.552128E-05  0.355E-03    0.21       2.2  T
   9   -321.2594407 -0.154600E-05  0.815E-04    0.21       9.6  T
  10   -321.2594406  0.229656E-07  0.879E-04    0.20       8.9  T
  11   -321.2594406  0.500502E-07  0.105E-03    0.20       7.5  T
  12   -321.2594407 -0.897485E-07  0.646E-04    0.20      12.1  T
     SCC iter.                  ...        0 min,  0.414 sec
     gradient                   ...        0 min,  0.092 sec
 * total energy  :  -316.7809065 Eh     change       -0.6481579E-03 Eh
   gradient norm :     0.0110991 Eh/α   predicted    -0.5970511E-03 (  -7.88%)
   displ. norm   :     0.3530949 α      lambda       -0.5397100E-03
   maximum displ.:     0.0984470 α      in ANC's #15, #12, #28, ...

........................................................................
.............................. CYCLE   15 ..............................
........................................................................
   1   -321.2671885 -0.321267E+03  0.532E-02    0.21       0.0  T
   2   -321.2671937 -0.514481E-05  0.303E-02    0.21       1.0  T
   3   -321.2671639  0.297434E-04  0.138E-02    0.20       1.0  T
   4   -321.2671947 -0.307355E-04  0.530E-03    0.21       1.5  T
   5   -321.2671923  0.235086E-05  0.613E-03    0.20       1.3  T
   6   -321.2671975 -0.517631E-05  0.194E-03    0.21       4.0  T
   7   -321.2671980 -0.521983E-06  0.583E-04    0.21      13.4  T
   8   -321.2671980 -0.250962E-07  0.372E-04    0.21      21.0  T
     SCC iter.                  ...        0 min,  0.280 sec
     gradient                   ...        0 min,  0.092 sec
 * total energy  :  -316.7812983 Eh     change       -0.3917191E-03 Eh
   gradient norm :     0.0135492 Eh/α   predicted    -0.3035020E-03 ( -22.52%)
   displ. norm   :     0.6020745 α      lambda       -0.7600402E-03
   maximum displ.:     0.1732826 α      in ANC's #15, #28, #12, ...

........................................................................
.............................. CYCLE   16 ..............................
........................................................................
   1   -321.2629180 -0.321263E+03  0.105E-01    0.20       0.0  T
   2   -321.2629048  0.132558E-04  0.606E-02    0.22       1.0  T
   3   -321.2545107  0.839405E-02  0.235E-01    0.11       1.0  T
   4   -321.2628719 -0.836118E-02  0.258E-02    0.23       1.0  T
   5   -321.2629110 -0.390385E-04  0.182E-02    0.23       1.0  T
   6   -321.2629375 -0.265075E-04  0.115E-02    0.22       1.0  T
   7   -321.2629472 -0.969550E-05  0.727E-03    0.21       1.1  T
   8   -321.2629517 -0.451331E-05  0.441E-03    0.21       1.8  T
   9   -321.2629536 -0.193120E-05  0.210E-03    0.21       3.7  T
  10   -321.2629541 -0.514658E-06  0.599E-04    0.21      13.0  T
  11   -321.2629540  0.119603E-06  0.110E-03    0.21       7.1  T
  12   -321.2629541 -0.739668E-07  0.829E-04    0.21       9.4  T
     SCC iter.                  ...        0 min,  0.417 sec
     gradient                   ...        0 min,  0.092 sec
 * total energy  :  -316.7818195 Eh     change       -0.5212197E-03 Eh
   gradient norm :     0.0191747 Eh/α   predicted    -0.5177761E-03 (  -0.66%)
   displ. norm   :     0.5847661 α      lambda       -0.7858649E-03
   maximum displ.:     0.1631089 α      in ANC's #15, #12, #3, ...

........................................................................
.............................. CYCLE   17 ..............................
........................................................................
   1   -321.2677672 -0.321268E+03  0.869E-02    0.21       0.0  T
   2   -321.2677703 -0.309418E-05  0.494E-02    0.20       1.0  T
   3   -321.2675193  0.250995E-03  0.404E-02    0.26       1.0  T
   4   -321.2677754 -0.256085E-03  0.944E-03    0.20       1.0  T
   5   -321.2677800 -0.465403E-05  0.835E-03    0.22       1.0  T
   6   -321.2677886 -0.856312E-05  0.250E-03    0.21       3.1  T
   7   -321.2677891 -0.577817E-06  0.160E-03    0.21       4.9  T
   8   -321.2677894 -0.275389E-06  0.782E-04    0.21      10.0  T
   9   -321.2677894 -0.207942E-07  0.648E-04    0.21      12.0  T
     SCC iter.                  ...        0 min,  0.313 sec
     gradient                   ...        0 min,  0.092 sec
 * total energy  :  -316.7823602 Eh     change       -0.5407619E-03 Eh
   gradient norm :     0.0110793 Eh/α   predicted    -0.5272989E-03 (  -2.49%)
   displ. norm   :     0.5975295 α      lambda       -0.6364462E-03
   maximum displ.:     0.1785669 α      in ANC's #15, #12, #3, ...

........................................................................
.............................. CYCLE   18 ..............................
........................................................................
   1   -321.2583136 -0.321258E+03  0.893E-02    0.21       0.0  T
   2   -321.2583257 -0.120459E-04  0.496E-02    0.21       1.0  T
   3   -321.2582974  0.283025E-04  0.147E-02    0.21       1.0  T
   4   -321.2583268 -0.294018E-04  0.697E-03    0.21       1.1  T
   5   -321.2583181  0.871106E-05  0.950E-03    0.20       1.0  T
   6   -321.2583308 -0.126876E-04  0.315E-03    0.21       2.5  T
   7   -321.2583322 -0.148490E-05  0.905E-04    0.21       8.6  T
   8   -321.2583323 -0.631785E-07  0.616E-04    0.21      12.7  T
   9   -321.2583323 -0.114147E-07  0.490E-04    0.21      15.9  T
     SCC iter.                  ...        0 min,  0.313 sec
     gradient                   ...        0 min,  0.091 sec
 * total energy  :  -316.7828692 Eh     change       -0.5089567E-03 Eh
   gradient norm :     0.0095513 Eh/α   predicted    -0.4318453E-03 ( -15.15%)
   displ. norm   :     0.6268542 α      lambda       -0.7635833E-03
   maximum displ.:     0.2181518 α      in ANC's #37, #15, #12, ...

........................................................................
.............................. CYCLE   19 ..............................
........................................................................
   1   -321.2574449 -0.321257E+03  0.883E-02    0.21       0.0  T
   2   -321.2574482 -0.328490E-05  0.497E-02    0.20       1.0  T
   3   -321.2571936  0.254594E-03  0.406E-02    0.27       1.0  T
   4   -321.2574593 -0.265677E-03  0.874E-03    0.20       1.0  T
   5   -321.2574586  0.624246E-06  0.888E-03    0.22       1.0  T
   6   -321.2574694 -0.107471E-04  0.288E-03    0.21       2.7  T
   7   -321.2574702 -0.756455E-06  0.174E-03    0.21       4.5  T
   8   -321.2574705 -0.366893E-06  0.825E-04    0.21       9.5  T
   9   -321.2574705 -0.180341E-07  0.693E-04    0.21      11.3  T
     SCC iter.                  ...        0 min,  0.312 sec
     gradient                   ...        0 min,  0.092 sec
 * total energy  :  -316.7834801 Eh     change       -0.6108644E-03 Eh
   gradient norm :     0.0128274 Eh/α   predicted    -0.5318184E-03 ( -12.94%)
   displ. norm   :     0.6902019 α      lambda       -0.8159050E-03
   maximum displ.:     0.2243005 α      in ANC's #37, #15, #3, ...

........................................................................
.............................. CYCLE   20 ..............................
........................................................................
   1   -321.2520717 -0.321252E+03  0.101E-01    0.21       0.0  T
   2   -321.2520808 -0.903352E-05  0.556E-02    0.22       1.0  T
   3   -321.2513605  0.720325E-03  0.670E-02    0.16       1.0  T
   4   -321.2520414 -0.680982E-03  0.201E-02    0.23       1.0  T
   5   -321.2520901 -0.486708E-04  0.819E-03    0.22       1.0  T
   6   -321.2520948 -0.474096E-05  0.426E-03    0.21       1.8  T
   7   -321.2520977 -0.288946E-05  0.131E-03    0.21       6.0  T
   8   -321.2520979 -0.137755E-06  0.805E-04    0.21       9.7  T
   9   -321.2520979 -0.213293E-07  0.591E-04    0.21      13.2  T
     SCC iter.                  ...        0 min,  0.313 sec
     gradient                   ...        0 min,  0.092 sec
 * total energy  :  -316.7841211 Eh     change       -0.6410257E-03 Eh
   gradient norm :     0.0129273 Eh/α   predicted    -0.6022954E-03 (  -6.04%)
   displ. norm   :     0.6707479 α      lambda       -0.7987998E-03
   maximum displ.:     0.2582133 α      in ANC's #37, #7, #3, ...
 * RMSD in coord.:     0.5676484 α      energy gain  -0.1149592E+00 Eh

generating ANC from model Hessian ...
Using Lindh-Hessian (1995)
 Shifting diagonal of input Hessian by   1.003489277126095E-002
 Lowest  eigenvalues of input Hessian
    0.010000    0.000000    0.000000    0.000000    0.000000    0.000000
    0.000000    0.010046    0.010057    0.010073    0.010094    0.010100
    0.010122    0.010127    0.010145    0.010176    0.010201    0.010238
 Highest eigenvalues
    2.300532    2.305554    2.608147    2.611893    2.645237    2.653563
 

........................................................................
.............................. CYCLE   21 ..............................
........................................................................
   1   -321.2597895 -0.321260E+03  0.924E-02    0.21       0.0  T
   2   -321.2598000 -0.105219E-04  0.509E-02    0.21       1.0  T
   3   -321.2597629  0.370748E-04  0.160E-02    0.21       1.0  T
   4   -321.2598014 -0.384441E-04  0.680E-03    0.21       1.1  T
   5   -321.2598009  0.458363E-06  0.575E-03    0.22       1.4  T
   6   -321.2598045 -0.360722E-05  0.337E-03    0.21       2.3  T
   7   -321.2598062 -0.171337E-05  0.955E-04    0.21       8.2  T
   8   -321.2598063 -0.935820E-07  0.547E-04    0.21      14.3  T
   9   -321.2598063 -0.101729E-07  0.407E-04    0.21      19.2  T
     SCC iter.                  ...        0 min,  0.306 sec
     gradient                   ...        0 min,  0.092 sec
 * total energy  :  -316.7847727 Eh     change       -0.6515844E-03 Eh
   gradient norm :     0.0120432 Eh/α   predicted     0.0000000E+00 (-100.00%)
   displ. norm   :     0.1252913 α      lambda       -0.3600147E-03
   maximum displ.:     0.0374169 α      in ANC's #36, #33, #56, ...

........................................................................
.............................. CYCLE   22 ..............................
........................................................................
   1   -321.2627632 -0.321263E+03  0.481E-02    0.21       0.0  T
   2   -321.2627619  0.135551E-05  0.277E-02    0.22       1.0  T
   3   -321.2622129  0.548990E-03  0.579E-02    0.17       1.0  T
   4   -321.2627563 -0.543397E-03  0.106E-02    0.22       1.0  T
   5   -321.2627712 -0.149449E-04  0.430E-03    0.22       1.8  T
   6   -321.2627731 -0.193957E-05  0.207E-03    0.21       3.8  T
   7   -321.2627737 -0.563599E-06  0.695E-04    0.21      11.2  T
   8   -321.2627737 -0.143601E-07  0.586E-04    0.21      13.3  T
     SCC iter.                  ...        0 min,  0.271 sec
     gradient                   ...        0 min,  0.092 sec
 * total energy  :  -316.7850074 Eh     change       -0.2347016E-03 Eh
   gradient norm :     0.0066271 Eh/α   predicted    -0.1828386E-03 ( -22.10%)
   displ. norm   :     0.3651930 α      lambda       -0.7953154E-03
   maximum displ.:     0.1101462 α      in ANC's #36, #56, #15, ...

........................................................................
.............................. CYCLE   23 ..............................
........................................................................
   1   -321.2708883 -0.321271E+03  0.838E-02    0.20       0.0  T
   2   -321.2708541  0.342381E-04  0.516E-02    0.24       1.0  T
   3   -321.2655042  0.534991E-02  0.183E-01    0.12       1.0  T
   4   -321.2708116 -0.530741E-02  0.307E-02    0.25       1.0  T
   5   -321.2708785 -0.669433E-04  0.212E-02    0.24       1.0  T
   6   -321.2709106 -0.320322E-04  0.147E-02    0.23       1.0  T
   7   -321.2709312 -0.206360E-04  0.815E-03    0.22       1.0  T
   8   -321.2709382 -0.695839E-05  0.381E-03    0.22       2.1  T
   9   -321.2709399 -0.173034E-05  0.118E-03    0.21       6.6  T
  10   -321.2709392  0.698236E-06  0.254E-03    0.21       3.1  T
  11   -321.2709394 -0.205570E-06  0.214E-03    0.21       3.7  T
  12   -321.2709399 -0.530860E-06  0.926E-04    0.21       8.4  T
  13   -321.2709400 -0.106466E-06  0.188E-04    0.21      41.5  T
     SCC iter.                  ...        0 min,  0.451 sec
     gradient                   ...        0 min,  0.092 sec
 * total energy  :  -316.7852617 Eh     change       -0.2543263E-03 Eh
   gradient norm :     0.0168252 Eh/α   predicted    -0.4507084E-03 (  77.22%)
   displ. norm   :     0.1778045 α      lambda       -0.4590978E-03
   maximum displ.:     0.0617207 α      in ANC's #36, #33, #15, ...

........................................................................
.............................. CYCLE   24 ..............................
........................................................................
   1   -321.2700129 -0.321270E+03  0.466E-02    0.21       0.0  T
   2   -321.2700165 -0.366837E-05  0.257E-02    0.21       1.0  T
   3   -321.2699902  0.263156E-04  0.131E-02    0.23       1.0  T
   4   -321.2700140 -0.238143E-04  0.547E-03    0.21       1.4  T
   5   -321.2700181 -0.406064E-05  0.240E-03    0.21       3.3  T
   6   -321.2700188 -0.655660E-06  0.814E-04    0.21       9.6  T
   7   -321.2700188 -0.817518E-07  0.393E-04    0.21      19.9  T
     SCC iter.                  ...        0 min,  0.238 sec
     gradient                   ...        0 min,  0.091 sec
 * total energy  :  -316.7856063 Eh     change       -0.3445773E-03 Eh
   gradient norm :     0.0100054 Eh/α   predicted    -0.2368063E-03 ( -31.28%)
   displ. norm   :     0.4323457 α      lambda       -0.6520231E-03
   maximum displ.:     0.1558108 α      in ANC's #36, #33, #15, ...

........................................................................
.............................. CYCLE   25 ..............................
........................................................................
   1   -321.2649862 -0.321265E+03  0.831E-02    0.21       0.0  T
   2   -321.2649956 -0.940977E-05  0.457E-02    0.22       1.0  T
   3   -321.2646683  0.327244E-03  0.444E-02    0.18       1.0  T
   4   -321.2649824 -0.314035E-03  0.128E-02    0.23       1.0  T
   5   -321.2650015 -0.191279E-04  0.502E-03    0.22       1.6  T
   6   -321.2650034 -0.193677E-05  0.253E-03    0.22       3.1  T
   7   -321.2650044 -0.937969E-06  0.911E-04    0.21       8.6  T
   8   -321.2650044 -0.825575E-07  0.567E-04    0.21      13.8  T
     SCC iter.                  ...        0 min,  0.271 sec
     gradient                   ...        0 min,  0.091 sec
 * total energy  :  -316.7860170 Eh     change       -0.4107349E-03 Eh
   gradient norm :     0.0112474 Eh/α   predicted    -0.3869553E-03 (  -5.79%)
   displ. norm   :     0.5807997 α      lambda       -0.7733390E-03
   maximum displ.:     0.2110203 α      in ANC's #36, #33, #15, ...

........................................................................
.............................. CYCLE   26 ..............................
........................................................................
   1   -321.2585596 -0.321259E+03  0.118E-01    0.21       0.0  T
   2   -321.2585720 -0.123775E-04  0.649E-02    0.23       1.0  T
   3   -321.2569667  0.160531E-02  0.974E-02    0.15       1.0  T
   4   -321.2585503 -0.158365E-02  0.188E-02    0.24       1.0  T
   5   -321.2585823 -0.319359E-04  0.103E-02    0.22       1.0  T
   6   -321.2585924 -0.101370E-04  0.525E-03    0.22       1.5  T
   7   -321.2585962 -0.379587E-05  0.203E-03    0.22       3.8  T
   8   -321.2585967 -0.450349E-06  0.911E-04    0.22       8.6  T
   9   -321.2585967 -0.741908E-07  0.478E-04    0.21      16.3  T
     SCC iter.                  ...        0 min,  0.307 sec
     gradient                   ...        0 min,  0.092 sec
 * total energy  :  -316.7864432 Eh     change       -0.4262186E-03 Eh
   gradient norm :     0.0150410 Eh/α   predicted    -0.5171089E-03 (  21.32%)
   displ. norm   :     0.4566734 α      lambda       -0.7004833E-03
   maximum displ.:     0.1645297 α      in ANC's #36, #33, #15, ...

........................................................................
.............................. CYCLE   27 ..............................
........................................................................
   1   -321.2596456 -0.321260E+03  0.881E-02    0.21       0.0  T
   2   -321.2596494 -0.376080E-05  0.486E-02    0.23       1.0  T
   3   -321.2587187  0.930642E-03  0.738E-02    0.16       1.0  T
   4   -321.2596409 -0.922186E-03  0.134E-02    0.23       1.0  T
   5   -321.2596586 -0.176380E-04  0.701E-03    0.22       1.1  T
   6   -321.2596636 -0.507426E-05  0.312E-03    0.22       2.5  T
   7   -321.2596651 -0.147651E-05  0.104E-03    0.22       7.5  T
   8   -321.2596652 -0.123128E-06  0.451E-04    0.22      17.3  T
   9   -321.2596653 -0.101939E-07  0.311E-04    0.22      25.1  T
     SCC iter.                  ...        0 min,  0.336 sec
     gradient                   ...        0 min,  0.092 sec
 * total energy  :  -316.7869888 Eh     change       -0.5455267E-03 Eh
   gradient norm :     0.0132689 Eh/α   predicted    -0.4232850E-03 ( -22.41%)
   displ. norm   :     0.5242071 α      lambda       -0.1246839E-02
   maximum displ.:     0.1794649 α      in ANC's #36, #15, #33, ...

........................................................................
.............................. CYCLE   28 ..............................
........................................................................
   1   -321.2706916 -0.321271E+03  0.103E-01    0.21       0.0  T
   2   -321.2706758  0.157715E-04  0.582E-02    0.24       1.0  T
   3   -321.2650019  0.567391E-02  0.181E-01    0.12       1.0  T
   4   -321.2706717 -0.566983E-02  0.216E-02    0.24       1.0  T
   5   -321.2706854 -0.136299E-04  0.166E-02    0.24       1.0  T
   6   -321.2707140 -0.286372E-04  0.950E-03    0.23       1.0  T
   7   -321.2707212 -0.723475E-05  0.592E-03    0.22       1.3  T
   8   -321.2707247 -0.352332E-05  0.340E-03    0.22       2.3  T
   9   -321.2707261 -0.130663E-05  0.134E-03    0.22       5.8  T
  10   -321.2707263 -0.212376E-06  0.574E-04    0.21      13.6  T
  11   -321.2707262  0.262672E-07  0.713E-04    0.21      11.0  T
     SCC iter.                  ...        0 min,  0.409 sec
     gradient                   ...        0 min,  0.091 sec
 * total energy  :  -316.7878325 Eh     change       -0.8437870E-03 Eh
   gradient norm :     0.0077330 Eh/α   predicted    -0.7947327E-03 (  -5.81%)
   displ. norm   :     0.8031911 α      lambda       -0.9486354E-03
   maximum displ.:     0.2932419 α      in ANC's #36, #33, #15, ...

........................................................................
.............................. CYCLE   29 ..............................
........................................................................
   1   -321.2634384 -0.321263E+03  0.136E-01    0.20       0.0  T
   2   -321.2634065  0.318762E-04  0.763E-02    0.25       1.0  T
   3   -321.2475605  0.158460E-01  0.300E-01    0.09       1.0  T
   4   -321.2633957 -0.158352E-01  0.310E-02    0.26       1.0  T
   5   -321.2633950  0.727241E-06  0.262E-02    0.26       1.0  T
   6   -321.2634531 -0.580394E-04  0.187E-02    0.24       1.0  T
   7   -321.2634728 -0.197906E-04  0.140E-02    0.24       1.0  T
   8   -321.2634850 -0.121797E-04  0.106E-02    0.23       1.0  T
   9   -321.2634939 -0.886020E-05  0.700E-03    0.23       1.1  T
  10   -321.2635007 -0.681234E-05  0.140E-03    0.22       5.6  T
  11   -321.2635009 -0.243315E-06  0.484E-04    0.22      16.1  T
  12   -321.2635009  0.247182E-07  0.637E-04    0.22      12.3  T
     SCC iter.                  ...        0 min,  0.428 sec
     gradient                   ...        0 min,  0.091 sec
 * total energy  :  -316.7886815 Eh     change       -0.8490081E-03 Eh
   gradient norm :     0.0107072 Eh/α   predicted    -0.7803199E-03 (  -8.09%)
   displ. norm   :     0.7537589 α      lambda       -0.1158134E-02
   maximum displ.:     0.2626550 α      in ANC's #36, #15, #33, ...

........................................................................
.............................. CYCLE   30 ..............................
........................................................................
   1   -321.2613449 -0.321261E+03  0.126E-01    0.20       0.0  T
   2   -321.2612929  0.519880E-04  0.723E-02    0.26       1.0  T
   3   -321.2453529  0.159400E-01  0.294E-01    0.09       1.0  T
   4   -321.2612913 -0.159384E-01  0.329E-02    0.27       1.0  T
   5   -321.2612868  0.446656E-05  0.281E-02    0.26       1.0  T
   6   -321.2613533 -0.664812E-04  0.204E-02    0.25       1.0  T
   7   -321.2613754 -0.221030E-04  0.156E-02    0.24       1.0  T
   8   -321.2613920 -0.165214E-04  0.116E-02    0.23       1.0  T
   9   -321.2614049 -0.129195E-04  0.663E-03    0.23       1.2  T
  10   -321.2614115 -0.661032E-05  0.531E-04    0.22      14.7  T
  11   -321.2614113  0.184292E-06  0.117E-03    0.22       6.6  T
  12   -321.2614114 -0.739914E-07  0.956E-04    0.22       8.2  T
  13   -321.2614115 -0.946953E-07  0.537E-04    0.22      14.6  T
     SCC iter.                  ...        0 min,  0.464 sec
     gradient                   ...        0 min,  0.091 sec
 * total energy  :  -316.7896771 Eh     change       -0.9955745E-03 Eh
   gradient norm :     0.0157356 Eh/α   predicted    -0.9080685E-03 (  -8.79%)
   displ. norm   :     0.7005051 α      lambda       -0.1195298E-02
   maximum displ.:     0.2272368 α      in ANC's #36, #15, #4, ...

........................................................................
.............................. CYCLE   31 ..............................
........................................................................
   1   -321.2646856 -0.321265E+03  0.119E-01    0.20       0.0  T
   2   -321.2646256  0.599923E-04  0.685E-02    0.26       1.0  T
   3   -321.2509691  0.136565E-01  0.266E-01    0.10       1.0  T
   4   -321.2646354 -0.136663E-01  0.313E-02    0.26       1.0  T
   5   -321.2646344  0.964128E-06  0.265E-02    0.26       1.0  T
   6   -321.2646951 -0.606527E-04  0.190E-02    0.25       1.0  T
   7   -321.2647186 -0.234615E-04  0.140E-02    0.24       1.0  T
   8   -321.2647333 -0.147423E-04  0.100E-02    0.23       1.0  T
   9   -321.2647433 -0.996007E-05  0.580E-03    0.23       1.3  T
  10   -321.2647484 -0.518232E-05  0.468E-04    0.22      16.7  T
  11   -321.2647483  0.128597E-06  0.968E-04    0.22       8.1  T
  12   -321.2647483 -0.327656E-07  0.875E-04    0.22       8.9  T
     SCC iter.                  ...        0 min,  0.424 sec
     gradient                   ...        0 min,  0.091 sec
 * total energy  :  -316.7906832 Eh     change       -0.1006036E-02 Eh
   gradient norm :     0.0132482 Eh/α   predicted    -0.8909296E-03 ( -11.44%)
   displ. norm   :     0.8003178 α      lambda       -0.1187322E-02
   maximum displ.:     0.2596372 α      in ANC's #36, #15, #4, ...

........................................................................
.............................. CYCLE   32 ..............................
........................................................................
   1   -321.2638570 -0.321264E+03  0.133E-01    0.20       0.0  T
   2   -321.2638012  0.557610E-04  0.752E-02    0.26       1.0  T
   3   -321.2483751  0.154261E-01  0.276E-01    0.10       1.0  T
   4   -321.2638093 -0.154342E-01  0.321E-02    0.27       1.0  T
   5   -321.2638127 -0.345766E-05  0.268E-02    0.27       1.0  T
   6   -321.2638726 -0.598514E-04  0.195E-02    0.25       1.0  T
   7   -321.2639005 -0.278724E-04  0.142E-02    0.24       1.0  T
   8   -321.2639139 -0.134808E-04  0.107E-02    0.24       1.0  T
   9   -321.2639249 -0.109909E-04  0.672E-03    0.23       1.2  T
  10   -321.2639320 -0.706891E-05  0.107E-03    0.22       7.3  T
  11   -321.2639321 -0.140674E-06  0.488E-04    0.22      16.0  T
  12   -321.2639321  0.156040E-07  0.567E-04    0.22      13.8  T
     SCC iter.                  ...        0 min,  0.426 sec
     gradient                   ...        0 min,  0.091 sec
 * total energy  :  -316.7917411 Eh     change       -0.1057944E-02 Eh
   gradient norm :     0.0105212 Eh/α   predicted    -0.9739106E-03 (  -7.94%)
   displ. norm   :     0.7199592 α      lambda       -0.1362150E-02
   maximum displ.:     0.1995965 α      in ANC's #15, #4, #36, ...

........................................................................
.............................. CYCLE   33 ..............................
........................................................................
   1   -321.2764765 -0.321276E+03  0.122E-01    0.20       0.0  T
   2   -321.2764042  0.722846E-04  0.709E-02    0.27       1.0  T
   3   -321.2644400  0.119642E-01  0.235E-01    0.10       1.0  T
   4   -321.2764297 -0.119897E-01  0.327E-02    0.28       1.0  T
   5   -321.2764434 -0.136671E-04  0.264E-02    0.27       1.0  T
   6   -321.2765003 -0.569368E-04  0.192E-02    0.26       1.0  T
   7   -321.2765319 -0.316096E-04  0.132E-02    0.24       1.0  T
   8   -321.2765468 -0.148524E-04  0.914E-03    0.24       1.0  T
   9   -321.2765568 -0.100792E-04  0.470E-03    0.23       1.7  T
  10   -321.2765604 -0.354006E-05  0.817E-04    0.22       9.6  T
  11   -321.2765602  0.154968E-06  0.119E-03    0.22       6.5  T
  12   -321.2765604 -0.134554E-06  0.802E-04    0.22       9.7  T
  13   -321.2765604 -0.879862E-07  0.375E-04    0.22      20.8  T
     SCC iter.                  ...        0 min,  0.455 sec
     gradient                   ...        0 min,  0.091 sec
 * total energy  :  -316.7927076 Eh     change       -0.9664640E-03 Eh
   gradient norm :     0.0112988 Eh/α   predicted    -0.1034104E-02 (   7.00%)
   displ. norm   :     0.8654667 α      lambda       -0.1510503E-02
   maximum displ.:     0.2923440 α      in ANC's #36, #15, #8, ...

........................................................................
.............................. CYCLE   34 ..............................
........................................................................
   1   -321.2591199 -0.321259E+03  0.155E-01    0.21       0.0  T
   2   -321.2590530  0.669054E-04  0.884E-02    0.28       1.0  T
   3   -321.2392261  0.198269E-01  0.294E-01    0.09       1.0  T
   4   -321.2590868 -0.198607E-01  0.373E-02    0.29       1.0  T
   5   -321.2590863  0.467696E-06  0.300E-02    0.29       1.0  T
   6   -321.2591605 -0.741809E-04  0.232E-02    0.27       1.0  T
   7   -321.2591970 -0.364746E-04  0.173E-02    0.26       1.0  T
   8   -321.2592183 -0.212637E-04  0.133E-02    0.25       1.0  T
   9   -321.2592366 -0.183556E-04  0.809E-03    0.24       1.0  T
  10   -321.2592478 -0.112190E-04  0.104E-03    0.23       7.5  T
  11   -321.2592477  0.140553E-06  0.127E-03    0.23       6.1  T
  12   -321.2592477 -0.851674E-08  0.125E-03    0.23       6.2  T
  13   -321.2592479 -0.193935E-06  0.701E-04    0.23      11.1  T
  14   -321.2592480 -0.793756E-07  0.210E-04    0.23      37.2  T
     SCC iter.                  ...        0 min,  0.491 sec
     gradient                   ...        0 min,  0.091 sec
 * total energy  :  -316.7935378 Eh     change       -0.8302416E-03 Eh
   gradient norm :     0.0167343 Eh/α   predicted    -0.1320963E-02 (  59.11%)
   displ. norm   :     0.6080442 α      lambda       -0.1077156E-02
   maximum displ.:     0.1821006 α      in ANC's #15, #4, #8, ...

........................................................................
.............................. CYCLE   35 ..............................
........................................................................
   1   -321.2600353 -0.321260E+03  0.102E-01    0.22       0.0  T
   2   -321.2600100  0.253156E-04  0.577E-02    0.26       1.0  T
   3   -321.2569349  0.307510E-02  0.110E-01    0.15       1.0  T
   4   -321.2600221 -0.308716E-02  0.195E-02    0.27       1.0  T
   5   -321.2600486 -0.265590E-04  0.131E-02    0.25       1.0  T
   6   -321.2600716 -0.229319E-04  0.646E-03    0.24       1.2  T
   7   -321.2600789 -0.733056E-05  0.291E-03    0.24       2.7  T
   8   -321.2600799 -0.100841E-05  0.140E-03    0.24       5.6  T
   9   -321.2600802 -0.319480E-06  0.457E-04    0.23      17.1  T
  10   -321.2600802 -0.133103E-07  0.284E-04    0.23      27.5  T
     SCC iter.                  ...        0 min,  0.353 sec
     gradient                   ...        0 min,  0.091 sec
 * total energy  :  -316.7943517 Eh     change       -0.8139002E-03 Eh
   gradient norm :     0.0119398 Eh/α   predicted    -0.7377011E-03 (  -9.36%)
   displ. norm   :     0.4896193 α      lambda       -0.1013208E-02
   maximum displ.:     0.1522931 α      in ANC's #8, #15, #4, ...

........................................................................
.............................. CYCLE   36 ..............................
........................................................................
   1   -321.2707369 -0.321271E+03  0.772E-02    0.22       0.0  T
   2   -321.2707023  0.346547E-04  0.459E-02    0.27       1.0  T
   3   -321.2691268  0.157544E-02  0.778E-02    0.17       1.0  T
   4   -321.2707324 -0.160562E-02  0.167E-02    0.27       1.0  T
   5   -321.2707603 -0.279026E-04  0.103E-02    0.26       1.0  T
   6   -321.2707745 -0.141941E-04  0.505E-03    0.25       1.5  T
   7   -321.2707798 -0.528252E-05  0.155E-03    0.24       5.0  T
   8   -321.2707801 -0.267041E-06  0.755E-04    0.24      10.3  T
   9   -321.2707801 -0.216844E-07  0.541E-04    0.24      14.4  T
     SCC iter.                  ...        0 min,  0.325 sec
     gradient                   ...        0 min,  0.091 sec
 * total energy  :  -316.7950637 Eh     change       -0.7119815E-03 Eh
   gradient norm :     0.0093079 Eh/α   predicted    -0.6280511E-03 ( -11.79%)
   displ. norm   :     0.8158941 α      lambda       -0.1013501E-02
   maximum displ.:     0.2452746 α      in ANC's #8, #15, #4, ...

........................................................................
.............................. CYCLE   37 ..............................
........................................................................
   1   -321.2661758 -0.321266E+03  0.131E-01    0.22       0.0  T
   2   -321.2661333  0.424785E-04  0.743E-02    0.29       1.0  T
   3   -321.2612879  0.484546E-02  0.132E-01    0.14       1.0  T
   4   -321.2661716 -0.488368E-02  0.259E-02    0.30       1.0  T
   5   -321.2662155 -0.439002E-04  0.181E-02    0.29       1.0  T
   6   -321.2662545 -0.389964E-04  0.108E-02    0.27       1.0  T
   7   -321.2662746 -0.201328E-04  0.522E-03    0.26       1.5  T
   8   -321.2662781 -0.346305E-05  0.258E-03    0.25       3.0  T
   9   -321.2662792 -0.115568E-05  0.865E-04    0.25       9.0  T
  10   -321.2662792 -0.339772E-07  0.627E-04    0.25      12.5  T
  11   -321.2662793 -0.220193E-07  0.476E-04    0.25      16.4  T
     SCC iter.                  ...        0 min,  0.389 sec
     gradient                   ...        0 min,  0.091 sec
 * total energy  :  -316.7958792 Eh     change       -0.8155529E-03 Eh
   gradient norm :     0.0111285 Eh/α   predicted    -0.8440858E-03 (   3.50%)
   displ. norm   :     0.7277584 α      lambda       -0.8895367E-03
   maximum displ.:     0.2304707 α      in ANC's #8, #15, #4, ...

........................................................................
.............................. CYCLE   38 ..............................
........................................................................
   1   -321.2643818 -0.321264E+03  0.114E-01    0.24       0.0  T
   2   -321.2643555  0.262972E-04  0.638E-02    0.29       1.0  T
   3   -321.2622394  0.211604E-02  0.843E-02    0.17       1.0  T
   4   -321.2643890 -0.214954E-02  0.186E-02    0.30       1.0  T
   5   -321.2644357 -0.467074E-04  0.109E-02    0.28       1.0  T
   6   -321.2644504 -0.147433E-04  0.512E-03    0.27       1.5  T
   7   -321.2644563 -0.586071E-05  0.162E-03    0.26       4.8  T
   8   -321.2644565 -0.235154E-06  0.690E-04    0.26      11.3  T
   9   -321.2644565 -0.543145E-08  0.459E-04    0.26      17.0  T
     SCC iter.                  ...        0 min,  0.315 sec
     gradient                   ...        0 min,  0.092 sec
 * total energy  :  -316.7964652 Eh     change       -0.5859745E-03 Eh
   gradient norm :     0.0118430 Eh/α   predicted    -0.6803392E-03 (  16.10%)
   displ. norm   :     0.5841234 α      lambda       -0.1035775E-02
   maximum displ.:     0.1901230 α      in ANC's #8, #4, #15, ...

........................................................................
.............................. CYCLE   39 ..............................
........................................................................
   1   -321.2801670 -0.321280E+03  0.872E-02    0.25       0.0  T
   2   -321.2801590  0.798587E-05  0.498E-02    0.29       1.0  T
   3   -321.2794013  0.757720E-03  0.510E-02    0.21       1.0  T
   4   -321.2801810 -0.779706E-03  0.126E-02    0.29       1.0  T
   5   -321.2802155 -0.344714E-04  0.565E-03    0.28       1.4  T
   6   -321.2802188 -0.337169E-05  0.232E-03    0.27       3.4  T
   7   -321.2802195 -0.634802E-06  0.112E-03    0.27       7.0  T
   8   -321.2802195 -0.645913E-07  0.768E-04    0.27      10.2  T
   9   -321.2802196 -0.415304E-07  0.520E-04    0.27      15.0  T
     SCC iter.                  ...        0 min,  0.317 sec
     gradient                   ...        0 min,  0.091 sec
 * total energy  :  -316.7968625 Eh     change       -0.3973055E-03 Eh
   gradient norm :     0.0191967 Eh/α   predicted    -0.6945923E-03 (  74.83%)
   displ. norm   :     0.5441306 α      lambda       -0.9253302E-03
   maximum displ.:     0.1775694 α      in ANC's #8, #4, #15, ...

........................................................................
.............................. CYCLE   40 ..............................
........................................................................
   1   -321.2739658 -0.321274E+03  0.862E-02    0.26       0.0  T
   2   -321.2739658 -0.264349E-07  0.481E-02    0.30       1.0  T
   3   -321.2734267  0.539046E-03  0.424E-02    0.22       1.0  T
   4   -321.2739768 -0.550081E-03  0.113E-02    0.30       1.0  T
   5   -321.2740063 -0.294743E-04  0.472E-03    0.28       1.7  T
   6   -321.2740082 -0.188538E-05  0.185E-03    0.28       4.2  T
   7   -321.2740085 -0.325490E-06  0.761E-04    0.28      10.3  T
   8   -321.2740086 -0.578302E-07  0.447E-04    0.28      17.5  T
     SCC iter.                  ...        0 min,  0.281 sec
     gradient                   ...        0 min,  0.091 sec
 * total energy  :  -316.7973023 Eh     change       -0.4397615E-03 Eh
   gradient norm :     0.0182900 Eh/α   predicted    -0.5996518E-03 (  36.36%)
   displ. norm   :     0.4561366 α      lambda       -0.8775492E-03
   maximum displ.:     0.1523648 α      in ANC's #8, #4, #15, ...

........................................................................
.............................. CYCLE   41 ..............................
........................................................................
   1   -321.2656999 -0.321266E+03  0.784E-02    0.27       0.0  T
   2   -321.2657070 -0.703881E-05  0.434E-02    0.29       1.0  T
   3   -321.2655243  0.182676E-03  0.255E-02    0.25       1.0  T
   4   -321.2657101 -0.185866E-03  0.733E-03    0.29       1.1  T
   5   -321.2657203 -0.101662E-04  0.345E-03    0.28       2.3  T
   6   -321.2657217 -0.134465E-05  0.122E-03    0.28       6.4  T
   7   -321.2657218 -0.153094E-06  0.542E-04    0.28      14.4  T
   8   -321.2657218 -0.194137E-07  0.345E-04    0.28      22.6  T
     SCC iter.                  ...        0 min,  0.282 sec
     gradient                   ...        0 min,  0.092 sec
 * total energy  :  -316.7976755 Eh     change       -0.3731680E-03 Eh
   gradient norm :     0.0154587 Eh/α   predicted    -0.5300704E-03 (  42.05%)
   displ. norm   :     0.3743659 α      lambda       -0.6789411E-03
   maximum displ.:     0.1436652 α      in ANC's #8, #4, #15, ...

........................................................................
.............................. CYCLE   42 ..............................
........................................................................
   1   -321.2734347 -0.321273E+03  0.490E-02    0.28       0.0  T
   2   -321.2734381 -0.342016E-05  0.268E-02    0.29       1.0  T
   3   -321.2733622  0.759163E-04  0.171E-02    0.26       1.0  T
   4   -321.2734405 -0.782674E-04  0.538E-03    0.29       1.5  T
   5   -321.2734458 -0.530395E-05  0.272E-03    0.29       2.9  T
   6   -321.2734466 -0.834505E-06  0.104E-03    0.29       7.5  T
   7   -321.2734468 -0.126924E-06  0.440E-04    0.29      17.8  T
   8   -321.2734468 -0.116302E-07  0.302E-04    0.29      25.9  T
     SCC iter.                  ...        0 min,  0.282 sec
     gradient                   ...        0 min,  0.091 sec
 * total energy  :  -316.7980467 Eh     change       -0.3712401E-03 Eh
   gradient norm :     0.0135418 Eh/α   predicted    -0.3870507E-03 (   4.26%)
   displ. norm   :     0.5540283 α      lambda       -0.8539406E-03
   maximum displ.:     0.2095053 α      in ANC's #8, #4, #15, ...
 * RMSD in coord.:     0.9075740 α      energy gain  -0.1392561E-01 Eh

generating ANC from model Hessian ...
Using Lindh-Hessian (1995)
 Shifting diagonal of input Hessian by   1.003161928712444E-002
 Lowest  eigenvalues of input Hessian
    0.010000    0.000000    0.000000    0.000000    0.000000    0.000000
    0.000000    0.010041    0.010055    0.010062    0.010085    0.010094
    0.010109    0.010118    0.010134    0.010174    0.010198    0.010216
 Highest eigenvalues
    2.294147    2.298461    2.607860    2.612815    2.647099    2.650551
 

........................................................................
.............................. CYCLE   43 ..............................
........................................................................
   1   -321.2821712 -0.321282E+03  0.720E-02    0.28       0.0  T
   2   -321.2821726 -0.140499E-05  0.409E-02    0.31       1.0  T
   3   -321.2818984  0.274205E-03  0.312E-02    0.25       1.0  T
   4   -321.2821836 -0.285270E-03  0.838E-03    0.31       1.0  T
   5   -321.2821994 -0.157509E-04  0.381E-03    0.29       2.0  T
   6   -321.2822007 -0.132004E-05  0.144E-03    0.29       5.4  T
   7   -321.2822009 -0.206850E-06  0.717E-04    0.29      10.9  T
   8   -321.2822010 -0.452276E-07  0.430E-04    0.29      18.1  T
     SCC iter.                  ...        0 min,  0.295 sec
     gradient                   ...        0 min,  0.092 sec
 * total energy  :  -316.7983809 Eh     change       -0.3341735E-03 Eh
   gradient norm :     0.0178632 Eh/α   predicted     0.0000000E+00 (-100.00%)
   displ. norm   :     0.1364294 α      lambda       -0.5958469E-03
   maximum displ.:     0.0631162 α      in ANC's #45, #4, #37, ...

........................................................................
.............................. CYCLE   44 ..............................
........................................................................
   1   -321.2782285 -0.321278E+03  0.485E-02    0.29       0.0  T
   2   -321.2782341 -0.556186E-05  0.268E-02    0.29       1.0  T
   3   -321.2782253  0.874511E-05  0.828E-03    0.29       1.0  T
   4   -321.2782364 -0.111138E-04  0.223E-03    0.29       3.5  T
   5   -321.2782365 -0.626598E-07  0.135E-03    0.29       5.8  T
   6   -321.2782367 -0.237013E-06  0.604E-04    0.29      12.9  T
   7   -321.2782368 -0.458370E-07  0.357E-04    0.29      21.9  T
     SCC iter.                  ...        0 min,  0.244 sec
     gradient                   ...        0 min,  0.091 sec
 * total energy  :  -316.7987537 Eh     change       -0.3728640E-03 Eh
   gradient norm :     0.0057897 Eh/α   predicted    -0.3034810E-03 ( -18.61%)
   displ. norm   :     0.2649468 α      lambda       -0.5908235E-03
   maximum displ.:     0.1190545 α      in ANC's #45, #40, #4, ...

........................................................................
.............................. CYCLE   45 ..............................
........................................................................
   1   -321.2741611 -0.321274E+03  0.718E-02    0.29       0.0  T
   2   -321.2741705 -0.939549E-05  0.391E-02    0.29       1.0  T
   3   -321.2741584  0.120477E-04  0.943E-03    0.30       1.0  T
   4   -321.2741730 -0.145554E-04  0.397E-03    0.29       2.0  T
   5   -321.2741738 -0.840824E-06  0.232E-03    0.30       3.4  T
   6   -321.2741748 -0.961225E-06  0.949E-04    0.29       8.2  T
   7   -321.2741749 -0.131889E-06  0.571E-04    0.29      13.7  T
     SCC iter.                  ...        0 min,  0.245 sec
     gradient                   ...        0 min,  0.091 sec
 * total energy  :  -316.7989382 Eh     change       -0.1844423E-03 Eh
   gradient norm :     0.0151681 Eh/α   predicted    -0.3161591E-03 (  71.41%)
   displ. norm   :     0.1933455 α      lambda       -0.4779440E-03
   maximum displ.:     0.0815585 α      in ANC's #45, #4, #15, ...

........................................................................
.............................. CYCLE   46 ..............................
........................................................................
   1   -321.2739922 -0.321274E+03  0.653E-02    0.29       0.0  T
   2   -321.2739998 -0.762720E-05  0.356E-02    0.29       1.0  T
   3   -321.2739947  0.513751E-05  0.730E-03    0.29       1.1  T
   4   -321.2740024 -0.773022E-05  0.285E-03    0.29       2.7  T
   5   -321.2740027 -0.267312E-06  0.168E-03    0.29       4.7  T
   6   -321.2740032 -0.493098E-06  0.542E-04    0.29      14.4  T
   7   -321.2740032 -0.133655E-07  0.386E-04    0.29      20.2  T
     SCC iter.                  ...        0 min,  0.246 sec
     gradient                   ...        0 min,  0.092 sec
 * total energy  :  -316.7992085 Eh     change       -0.2702943E-03 Eh
   gradient norm :     0.0129599 Eh/α   predicted    -0.2479150E-03 (  -8.28%)
   displ. norm   :     0.2750587 α      lambda       -0.6542038E-03
   maximum displ.:     0.0885062 α      in ANC's #45, #4, #15, ...

........................................................................
.............................. CYCLE   47 ..............................
........................................................................
   1   -321.2756718 -0.321276E+03  0.704E-02    0.29       0.0  T
   2   -321.2756819 -0.100924E-04  0.379E-02    0.29       1.0  T
   3   -321.2756751  0.677483E-05  0.911E-03    0.29       1.0  T
   4   -321.2756848 -0.965833E-05  0.387E-03    0.29       2.0  T
   5   -321.2756848 -0.296866E-07  0.245E-03    0.29       3.2  T
   6   -321.2756861 -0.131845E-05  0.799E-04    0.29       9.8  T
   7   -321.2756862 -0.589434E-07  0.567E-04    0.29      13.8  T
   8   -321.2756862 -0.220801E-07  0.398E-04    0.29      19.6  T
     SCC iter.                  ...        0 min,  0.280 sec
     gradient                   ...        0 min,  0.091 sec
 * total energy  :  -316.7995875 Eh     change       -0.3789909E-03 Eh
   gradient norm :     0.0102367 Eh/α   predicted    -0.3518503E-03 (  -7.16%)
   displ. norm   :     0.4122507 α      lambda       -0.6119245E-03
   maximum displ.:     0.1356020 α      in ANC's #4, #45, #15, ...

........................................................................
.............................. CYCLE   48 ..............................
........................................................................
   1   -321.2746897 -0.321275E+03  0.719E-02    0.28       0.0  T
   2   -321.2746997 -0.100565E-04  0.374E-02    0.29       1.0  T
   3   -321.2746904  0.932291E-05  0.105E-02    0.28       1.0  T
   4   -321.2747013 -0.109208E-04  0.493E-03    0.29       1.6  T
   5   -321.2747014 -0.389458E-07  0.305E-03    0.29       2.6  T
   6   -321.2747034 -0.200290E-05  0.752E-04    0.29      10.4  T
   7   -321.2747035 -0.959274E-07  0.424E-04    0.29      18.4  T
   8   -321.2747035 -0.323014E-07  0.230E-04    0.29      34.0  T
     SCC iter.                  ...        0 min,  0.279 sec
     gradient                   ...        0 min,  0.091 sec
 * total energy  :  -316.8000926 Eh     change       -0.5051393E-03 Eh
   gradient norm :     0.0096753 Eh/α   predicted    -0.3579620E-03 ( -29.14%)
   displ. norm   :     0.6746158 α      lambda       -0.1069032E-02
   maximum displ.:     0.2304095 α      in ANC's #4, #15, #37, ...

........................................................................
.............................. CYCLE   49 ..............................
........................................................................
   1   -321.2720952 -0.321272E+03  0.129E-01    0.28       0.0  T
   2   -321.2721286 -0.334150E-04  0.678E-02    0.29       1.0  T
   3   -321.2720845  0.440780E-04  0.200E-02    0.28       1.0  T
   4   -321.2721336 -0.490645E-04  0.883E-03    0.29       1.0  T
   5   -321.2721342 -0.686414E-06  0.577E-03    0.28       1.4  T
   6   -321.2721425 -0.822975E-05  0.151E-03    0.29       5.2  T
   7   -321.2721429 -0.407268E-06  0.845E-04    0.29       9.2  T
   8   -321.2721430 -0.115316E-06  0.452E-04    0.29      17.3  T
     SCC iter.                  ...        0 min,  0.278 sec
     gradient                   ...        0 min,  0.091 sec
 * total energy  :  -316.8006943 Eh     change       -0.6016685E-03 Eh
   gradient norm :     0.0124886 Eh/α   predicted    -0.7777812E-03 (  29.27%)
   displ. norm   :     0.4911977 α      lambda       -0.8362770E-03
   maximum displ.:     0.1806016 α      in ANC's #4, #15, #37, ...

........................................................................
.............................. CYCLE   50 ..............................
........................................................................
   1   -321.2736907 -0.321274E+03  0.971E-02    0.28       0.0  T
   2   -321.2737084 -0.177899E-04  0.517E-02    0.29       1.0  T
   3   -321.2736715  0.369626E-04  0.164E-02    0.28       1.0  T
   4   -321.2737109 -0.394626E-04  0.671E-03    0.29       1.2  T
[...]
    68   6 C    3.890 --    69 C    1.398    89 C    1.134    67 S    1.093
    69   6 C    3.951 --    68 C    1.398    87 C    1.210    70 N    1.119
    70   7 N    3.506 --    69 C    1.119    79 C    1.046    71 C    1.041
    71   6 C    3.961 --    78 C    1.373    72 C    1.355    70 N    1.041
    72   6 C    3.986 --    73 C    1.474    71 C    1.355   148 H    0.967
    73   6 C    3.989 --    72 C    1.474    74 C    1.370   149 H    0.967
    74   6 C    3.959 --    77 C    1.391    73 C    1.370    75 S    1.042
    75  16 S    2.235 --    74 C    1.042    76 C    1.005
    76   6 C    3.969 --    75 S    1.005   152 H    0.983   150 H    0.979
                           151 H    0.968
    77   6 C    3.988 --    78 C    1.450    74 C    1.391   153 H    0.964
    78   6 C    3.984 --    77 C    1.450    71 C    1.373   154 H    0.966
    79   6 C    3.960 --    80 C    1.370    86 C    1.347    70 N    1.046
    80   6 C    3.980 --    81 C    1.454    79 C    1.370   155 H    0.967
                            85 C    0.101
    81   6 C    3.988 --    80 C    1.454    82 C    1.384   156 H    0.965
    82   6 C    3.951 --    81 C    1.384    85 C    1.368    83 S    1.053
    83  16 S    2.256 --    82 C    1.053    84 C    1.010
    84   6 C    3.978 --    83 S    1.010   159 H    0.982   157 H    0.981
                           158 H    0.978
    85   6 C    3.988 --    86 C    1.473    82 C    1.368   160 H    0.967
                            80 C    0.101
    86   6 C    3.983 --    85 C    1.473    79 C    1.347   161 H    0.966
    87   6 C    3.931 --    66 C    1.383    69 C    1.210    88 S    1.113
    88  16 S    2.547 --    87 C    1.113    47 C    1.080
    89   6 C    3.937 --    90 C    1.330    95 C    1.285    68 C    1.134
    90   6 C    3.976 --    91 C    1.506    89 C    1.330   162 H    0.964
    91   6 C    3.957 --    90 C    1.506    92 C    1.311   163 H    0.939
    92   6 C    3.966 --    91 C    1.311    93 C    1.267    97 C    1.193
    93   6 C    3.882 --    95 C    1.410    92 C    1.267    94 F    0.983
    94   9 F    1.127 --    93 C    0.983
    95   6 C    3.883 --    93 C    1.410    89 C    1.285    96 F    0.972
    96   9 F    1.108 --    95 C    0.972
    97   6 C    3.934 --    98 C    1.586    92 C    1.193   164 H    0.941
    98   6 C    3.935 --    97 C    1.586   111 C    1.100    99 C    1.027
    99   6 C    3.924 --   100 O    1.766    98 C    1.027   101 C    1.019
   100   8 O    2.073 --    99 C    1.766
   101   6 C    3.971 --   102 C    1.375   110 C    1.272    99 C    1.019
   102   6 C    3.936 --   101 C    1.375   104 C    1.313   103 Cl   1.045
   103  17 Cl   1.219 --   102 C    1.045
   104   6 C    3.925 --   106 C    1.362   102 C    1.313   105 Cl   1.035
   105  17 Cl   1.196 --   104 C    1.035
   106   6 C    3.932 --   104 C    1.362   108 C    1.320   107 Cl   1.037
   107  17 Cl   1.198 --   106 C    1.037
   108   6 C    3.923 --   110 C    1.361   106 C    1.320   109 Cl   1.027
   109  17 Cl   1.206 --   108 C    1.027
   110   6 C    3.979 --   108 C    1.361   101 C    1.272   111 C    1.092
   111   6 C    3.969 --   112 C    1.511    98 C    1.100   110 C    1.092
   112   6 C    3.955 --   111 C    1.511   115 C    1.092   113 C    1.087
   113   6 C    3.947 --   114 N    2.774   112 C    1.087
   114   7 N    2.980 --   113 C    2.774
   115   6 C    3.946 --   116 N    2.750   112 C    1.092
   116   7 N    2.974 --   115 C    2.750
   117   1 H    0.990 --     1 C    0.951
   118   1 H    0.996 --    22 C    0.951
   119   1 H    0.998 --    26 C    0.952
   120   1 H    0.998 --    27 C    0.964
   121   1 H    0.997 --    29 C    0.970
   122   1 H    0.995 --    29 C    0.957
   123   1 H    0.997 --    30 C    0.980
   124   1 H    0.997 --    30 C    0.985
   125   1 H    0.998 --    30 C    0.988
   126   1 H    0.998 --    36 C    0.963
   127   1 H    0.997 --    37 C    0.962
   128   1 H    0.996 --    39 C    0.965
   129   1 H    0.997 --    39 C    0.971
   130   1 H    0.998 --    40 C    0.986
   131   1 H    0.998 --    40 C    0.987
   132   1 H    0.998 --    40 C    0.986
   133   1 H    0.996 --    44 C    0.950
   134   1 H    0.999 --    51 C    0.967
   135   1 H    0.998 --    52 C    0.965
   136   1 H    0.995 --    55 C    0.978
   137   1 H    0.996 --    55 C    0.982
   138   1 H    0.996 --    55 C    0.982
   139   1 H    0.997 --    56 C    0.967
   140   1 H    0.998 --    57 C    0.966
   141   1 H    0.998 --    59 C    0.966
   142   1 H    0.997 --    60 C    0.966
   143   1 H    0.996 --    63 C    0.982
   144   1 H    0.996 --    63 C    0.979
   145   1 H    0.997 --    63 C    0.983
   146   1 H    0.998 --    64 C    0.965
   147   1 H    0.999 --    65 C    0.967
   148   1 H    0.998 --    72 C    0.967
   149   1 H    0.997 --    73 C    0.967
   150   1 H    0.996 --    76 C    0.979
   151   1 H    0.994 --    76 C    0.968
   152   1 H    0.996 --    76 C    0.983
   153   1 H    0.996 --    77 C    0.964
   154   1 H    0.997 --    78 C    0.966
   155   1 H    0.998 --    80 C    0.967
   156   1 H    0.998 --    81 C    0.965
   157   1 H    0.996 --    84 C    0.981
   158   1 H    0.995 --    84 C    0.978
   159   1 H    0.996 --    84 C    0.982
   160   1 H    0.997 --    85 C    0.967
   161   1 H    0.997 --    86 C    0.966
   162   1 H    0.995 --    90 C    0.964
   163   1 H    0.987 --    91 C    0.939
   164   1 H    0.992 --    97 C    0.941
 ---------------------------------------------------------------------------

Topologies differ in bond orders
Writing corrected topology to xtbtopo.mol

molecular dipole:
                 x           y           z       tot (Debye)
 q only:       -0.607      -0.236      -0.150
   full:       -0.950      -0.526       0.037       2.763
molecular quadrupole (traceless):
                xx          xy          yy          xz          yz          zz
 q only:       42.586     -70.433    -124.257     -24.891     -54.690      81.671
  q+dip:       24.904     -66.752     -84.878     -16.974     -35.333      59.974
   full:       33.686     -64.837     -90.351     -24.085     -35.401      56.665

           -------------------------------------------------
          |                Geometry Summary                 |
           -------------------------------------------------

      molecular mass/u    :     1863.6331254
   center of mass at/Å    :       -0.2933223       0.2082933       0.3096533
  moments of inertia/u·Å² :        0.2437576E+05   0.1552853E+06   0.1712596E+06
rotational constants/cm⁻¹ :        0.6915736E-03   0.1085591E-03   0.9843322E-04

 * 154 selected distances

     #   Z          #   Z                                           value/Å
     1   6 C        2   6 C                                       1.3624132
     3   6 C        4   8 O                                       1.2065748
     5   6 C        6   6 C                                       1.3842812
     6   6 C        7  17 Cl                                      1.7060039
     6   6 C        8   6 C                                       1.4030761
     8   6 C        9  17 Cl                                      1.7098579
     8   6 C       10   6 C                                       1.3943245
    10   6 C       11  17 Cl                                      1.7108041
    10   6 C       12   6 C                                       1.4033117
    12   6 C       13  17 Cl                                      1.7121973
     5   6 C       14   6 C                                       1.4100089
    12   6 C       14   6 C                                       1.3864966
    15   6 C       16   6 C                                       1.3684484
    17   6 C       18   7 N                                       1.1468772
    19   6 C       20   7 N                                       1.1476993
     1   6 C       21   6 C                                       1.4123202
    21   6 C       22   6 C                                       1.3756165
    22   6 C       23   6 C                                       1.4039013
    23   6 C       24   6 C                                       1.4162229
    25   6 C       26   6 C                                       1.3689201
    26   6 C       27   6 C                                       1.4061713
    27   6 C       28   6 C                                       1.3624804
    28   6 C       29   6 C                                       1.4888907
    29   6 C       30   6 C                                       1.5282508
    25   6 C       31  16 S                                       1.7479273
    28   6 C       31  16 S                                       1.7313005
    24   6 C       32   6 C                                       1.3899614
    32   6 C       33   6 C                                       1.4173741
    33   6 C       34   6 C                                       1.4116372
    35   6 C       36   6 C                                       1.3682662
    36   6 C       37   6 C                                       1.4073286
    37   6 C       38   6 C                                       1.3611178
    38   6 C       39   6 C                                       1.4891608
    39   6 C       40   6 C                                       1.5294293
    35   6 C       41  16 S                                       1.7404497
    38   6 C       41  16 S                                       1.7331977
    23   6 C       42   6 C                                       1.4214948
    34   6 C       42   6 C                                       1.3875692
    21   6 C       43  16 S                                       1.7511599
    42   6 C       43  16 S                                       1.7388672
    33   6 C       44   6 C                                       1.4091660
    44   6 C       45   6 C                                       1.3695077
    32   6 C       46  16 S                                       1.7460882
    45   6 C       46  16 S                                       1.7499367
    45   6 C       47   6 C                                       1.4243682
    47   6 C       48   6 C                                       1.3895371
    48   6 C       49   7 N                                       1.3842212
    49   7 N       50   6 C                                       1.4053363
    50   6 C       51   6 C                                       1.3918981
    51   6 C       52   6 C                                       1.3812682
    52   6 C       53   6 C                                       1.3881991
    53   6 C       56   6 C                                       1.3949477
    50   6 C       57   6 C                                       1.3949426
    56   6 C       57   6 C                                       1.3757928
    49   7 N       58   6 C                                       1.3963755
    58   6 C       59   6 C                                       1.3969932
    59   6 C       60   6 C                                       1.3753852
    60   6 C       61   6 C                                       1.3949802
    61   6 C       64   6 C                                       1.3879547
    58   6 C       65   6 C                                       1.3927450
    64   6 C       65   6 C                                       1.3811857
    48   6 C       66   6 C                                       1.4199442
    66   6 C       67  16 S                                       1.7292413
    67  16 S       68   6 C                                       1.7550054 (max)
    68   6 C       69   6 C                                       1.3907352
    69   6 C       70   7 N                                       1.3784288
    70   7 N       71   6 C                                       1.4060407
    71   6 C       72   6 C                                       1.3955569
    72   6 C       73   6 C                                       1.3767195
    73   6 C       74   6 C                                       1.3926342
    74   6 C       77   6 C                                       1.3884516
    71   6 C       78   6 C                                       1.3924849
    77   6 C       78   6 C                                       1.3820373
    70   7 N       79   6 C                                       1.4021993
    79   6 C       80   6 C                                       1.3915325
    80   6 C       81   6 C                                       1.3808566
    81   6 C       82   6 C                                       1.3890052
    82   6 C       85   6 C                                       1.3934524
    79   6 C       86   6 C                                       1.3953863
    85   6 C       86   6 C                                       1.3767760
    66   6 C       87   6 C                                       1.3840709
    69   6 C       87   6 C                                       1.4178655
    87   6 C       88  16 S                                       1.7246728
    68   6 C       89   6 C                                       1.4380062
    89   6 C       90   6 C                                       1.3998618
    90   6 C       91   6 C                                       1.3725519
    91   6 C       92   6 C                                       1.4051515
    92   6 C       93   6 C                                       1.4112636
    89   6 C       95   6 C                                       1.4024532
    93   6 C       95   6 C                                       1.3756721
    92   6 C       97   6 C                                       1.4298946
    97   6 C       98   6 C                                       1.3616942
    99   6 C      100   8 O                                       1.2093443
   101   6 C      102   6 C                                       1.3848966
   102   6 C      103  17 Cl                                      1.7050652
   102   6 C      104   6 C                                       1.4024677
   104   6 C      105  17 Cl                                      1.7089932
   104   6 C      106   6 C                                       1.3948225
   106   6 C      107  17 Cl                                      1.7097263
   106   6 C      108   6 C                                       1.4038231
   108   6 C      109  17 Cl                                      1.7147302
   101   6 C      110   6 C                                       1.4084507
   108   6 C      110   6 C                                       1.3895478
   111   6 C      112   6 C                                       1.3670834
   113   6 C      114   7 N                                       1.1470581
   115   6 C      116   7 N                                       1.1488309
     1   6 C      117   1 H                                       1.0842954
    22   6 C      118   1 H                                       1.0740075 (min)
    26   6 C      119   1 H                                       1.0746870
    27   6 C      120   1 H                                       1.0753706
    29   6 C      121   1 H                                       1.0924919
    29   6 C      122   1 H                                       1.0940065
    30   6 C      123   1 H                                       1.0880132
    30   6 C      124   1 H                                       1.0867566
    30   6 C      125   1 H                                       1.0877692
    36   6 C      126   1 H                                       1.0754596
    37   6 C      127   1 H                                       1.0753244
    39   6 C      128   1 H                                       1.0928253
    39   6 C      129   1 H                                       1.0919865
    40   6 C      130   1 H                                       1.0871621
    40   6 C      131   1 H                                       1.0871602
    40   6 C      132   1 H                                       1.0874937
    44   6 C      133   1 H                                       1.0747258
    51   6 C      134   1 H                                       1.0804713
    52   6 C      135   1 H                                       1.0778586
    55   6 C      136   1 H                                       1.0855682
    55   6 C      137   1 H                                       1.0861361
    55   6 C      138   1 H                                       1.0860097
    56   6 C      139   1 H                                       1.0790094
    57   6 C      140   1 H                                       1.0794497
    59   6 C      141   1 H                                       1.0789480
    60   6 C      142   1 H                                       1.0792259
    63   6 C      143   1 H                                       1.0862013
    63   6 C      144   1 H                                       1.0856030
    63   6 C      145   1 H                                       1.0862743
    64   6 C      146   1 H                                       1.0780081
    65   6 C      147   1 H                                       1.0800065
    72   6 C      148   1 H                                       1.0797337
    73   6 C      149   1 H                                       1.0786741
    76   6 C      150   1 H                                       1.0855928
    76   6 C      151   1 H                                       1.0868935
    76   6 C      152   1 H                                       1.0853535
    77   6 C      153   1 H                                       1.0777773
    78   6 C      154   1 H                                       1.0796287
    80   6 C      155   1 H                                       1.0800598
    81   6 C      156   1 H                                       1.0779362
    84   6 C      157   1 H                                       1.0863093
    84   6 C      158   1 H                                       1.0856202
    84   6 C      159   1 H                                       1.0859988
    85   6 C      160   1 H                                       1.0790497
    86   6 C      161   1 H                                       1.0792944
    90   6 C      162   1 H                                       1.0793014
    91   6 C      163   1 H                                       1.0767878
    97   6 C      164   1 H                                       1.0845192

 * 6 distinct bonds (by element types)

   Z      Z             #   av. dist./Å        max./Å        min./Å
   1 H    6 C          48     1.0826424     1.0940065     1.0740075
   6 C    6 C          75     1.3989666     1.5294293     1.3611178
   6 C    7 N          10     1.2963067     1.4060407     1.1468772
   6 C    8 O           2     1.2079595     1.2093443     1.2065748
   6 C   16 S          11     1.7407133     1.7550054     1.7246728
   6 C   17 Cl          8     1.7096723     1.7147302     1.7050652


optimized geometry written to: xtbopt.mol


           -------------------------------------------------
          | TOTAL ENERGY             -316.829123738909 Eh   |
          | GRADIENT NORM               0.000717835458 Eh/α |
          | HOMO-LUMO GAP               0.336210387770 eV   |
           -------------------------------------------------

------------------------------------------------------------------------
 * finished run on 2022/02/04 at 00:03:36.117     
------------------------------------------------------------------------
 total:
 * wall-time:     0 d,  0 h,  1 min, 51.745 sec
 *  cpu-time:     0 d,  0 h, 14 min, 53.800 sec
 * ratio c/w:     7.999 speedup
 SCF:
 * wall-time:     0 d,  0 h,  0 min,  0.934 sec
 *  cpu-time:     0 d,  0 h,  0 min,  7.467 sec
 * ratio c/w:     7.995 speedup
 ANC optimizer:
 * wall-time:     0 d,  0 h,  1 min, 50.716 sec
 *  cpu-time:     0 d,  0 h, 14 min, 45.665 sec
 * ratio c/w:     7.999 speedup

