      -----------------------------------------------------------      
     |                   =====================                   |     
     |                           x T B                           |     
     |                   =====================                   |     
     |                         S. Grimme                         |     
     |          Mulliken Center for Theoretical Chemistry        |     
     |                    University of Bonn                     |     
      -----------------------------------------------------------      

   * xtb version 6.4.1 (unknown) compiled by 'oda6@login1.crc.pitt.edu' on 2021-06-25

   xtb is free software: you can redistribute it and/or modify it under
   the terms of the GNU Lesser General Public License as published by
   the Free Software Foundation, either version 3 of the License, or
   (at your option) any later version.
   
   xtb is distributed in the hope that it will be useful,
   but WITHOUT ANY WARRANTY; without even the implied warranty of
   MERCHANTABILITY or FITNESS FOR A PARTICULAR PURPOSE.  See the
   GNU Lesser General Public License for more details.
   
   Cite this work as:
   * C. Bannwarth, E. Caldeweyher, S. Ehlert, A. Hansen, P. Pracht,
     J. Seibert, S. Spicher, S. Grimme, WIREs Comput. Mol. Sci., 2020, 11,
     e01493. DOI: 10.1002/wcms.1493
   
   for GFN2-xTB:
   * C. Bannwarth, S. Ehlert and S. Grimme., J. Chem. Theory Comput., 2019,
     15, 1652-1671. DOI: 10.1021/acs.jctc.8b01176
   for GFN1-xTB:
   * S. Grimme, C. Bannwarth, P. Shushkov, J. Chem. Theory Comput., 2017,
     13, 1989-2009. DOI: 10.1021/acs.jctc.7b00118
   for GFN0-xTB:
   * P. Pracht, E. Caldeweyher, S. Ehlert, S. Grimme, ChemRxiv, 2019, preprint.
     DOI: 10.26434/chemrxiv.8326202.v1
   for GFN-FF:
   * S. Spicher and S. Grimme, Angew. Chem. Int. Ed., 2020, 59, 15665-15673.
     DOI: 10.1002/anie.202004239
   
   for DFT-D4:
   * E. Caldeweyher, C. Bannwarth and S. Grimme, J. Chem. Phys., 2017,
     147, 034112. DOI: 10.1063/1.4993215
   * E. Caldeweyher, S. Ehlert, A. Hansen, H. Neugebauer, S. Spicher,
     C. Bannwarth and S. Grimme, J. Chem. Phys., 2019, 150, 154122.
     DOI: 10.1063/1.5090222
   * E. Caldeweyher, J.-M. Mewes, S. Ehlert and S. Grimme, Phys. Chem. Chem. Phys.
     2020, 22, 8499-8512. DOI: 10.1039/D0CP00502A
   
   for sTDA-xTB:
   * S. Grimme and C. Bannwarth, J. Chem. Phys., 2016, 145, 054103.
     DOI: 10.1063/1.4959605
   
   in the mass-spec context:
   * V. Asgeirsson, C. Bauer and S. Grimme, Chem. Sci., 2017, 8, 4879.
     DOI: 10.1039/c7sc00601b
   * J. Koopman and S. Grimme, ACS Omega 2019, 4, 12, 15120-15133.
     DOI: 10.1021/acsomega.9b02011
   
   for metadynamics refer to:
   * S. Grimme, J. Chem. Theory Comput., 2019, 155, 2847-2862
     DOI: 10.1021/acs.jctc.9b00143
   
   for SPH calculations refer to:
   * S. Spicher and S. Grimme, J. Chem. Theory Comput., 2021, 17, 1701-1714
     DOI: 10.1021/acs.jctc.0c01306
   
   with help from (in alphabetical order)
   P. Atkinson, C. Bannwarth, F. Bohle, G. Brandenburg, E. Caldeweyher
   M. Checinski, S. Dohm, S. Ehlert, S. Ehrlich, I. Gerasimov, J. Koopman
   C. Lavigne, S. Lehtola, F. März, M. Müller, F. Musil, H. Neugebauer
   J. Pisarek, C. Plett, P. Pracht, J. Seibert, P. Shushkov, S. Spicher
   M. Stahn, M. Steiner, T. Strunk, J. Stückrath, T. Rose, and J. Unsleber
   
 * started run on 2022/02/04 at 01:36:29.297     

           -------------------------------------------------
          |                Calculation Setup                |
           -------------------------------------------------

          program call               : /ihome/ghutchison/oda6/xtb/xtb-641/bin/xtb ../../FF_optimized/65_131_130_131_65.mol -opt
          hostname                   : smp-n57
          coordinate file            : ../../FF_optimized/65_131_130_131_65.mol
          omp threads                :                     8
          number of atoms            :                   218
          number of electrons        :                   704
          charge                     :                     0
          spin                       :                   0.0
          first test random number   :      0.00415977013930

   ID    Z sym.   atoms
    1    6 C      1-3, 5, 6, 8, 10, 12, 14-17, 19, 21-28, 30-36, 38-53,
                  55-58, 60-66, 68-71, 73, 74, 76-79, 81-87, 89-92, 94-101,
                  103-109, 111-127, 129, 130, 132, 134, 136, 138-141, 143
    2    8 O      4, 29, 37, 102, 110, 128
    3   17 Cl     7, 9, 11, 13, 131, 133, 135, 137
    4    7 N      18, 20, 54, 75, 142, 144
    5   16 S      59, 67, 72, 80, 88, 93
    6    1 H      145-218
########################################################################
[WARNING] Please study the warnings concerning your input carefully
-1- prog_main_parseArguments: the use of '-opt' is discouraged, please use '--opt' next time
########################################################################

           -------------------------------------------------
          |                 G F N 2 - x T B                 |
           -------------------------------------------------

        Reference                      10.1021/acs.jctc.8b01176
      * Hamiltonian:
        H0-scaling (s, p, d)           1.850000    2.230000    2.230000
        zeta-weighting                 0.500000
      * Dispersion:
        s8                             2.700000
        a1                             0.520000
        a2                             5.000000
        s9                             5.000000
      * Repulsion:
        kExp                           1.500000    1.000000
        rExp                           1.000000
      * Coulomb:
        alpha                          2.000000
        third order                    shell-resolved
        anisotropic                    true
        a3                             3.000000
        a5                             4.000000
        cn-shift                       1.200000
        cn-exp                         4.000000
        max-rad                        5.000000


          ...................................................
          :                      SETUP                      :
          :.................................................:
          :  # basis functions                 734          :
          :  # atomic orbitals                 720          :
          :  # shells                          376          :
          :  # electrons                       704          :
          :  max. iterations                   250          :
          :  Hamiltonian                  GFN2-xTB          :
          :  restarted?                      false          :
          :  GBSA solvation                  false          :
          :  PC potential                    false          :
          :  electronic temp.          300.0000000     K    :
          :  accuracy                    1.0000000          :
          :  -> integral cutoff          0.2500000E+02      :
          :  -> integral neglect         0.1000000E-07      :
          :  -> SCF convergence          0.1000000E-05 Eh   :
          :  -> wf. convergence          0.1000000E-03 e    :
          :  Broyden damping             0.4000000          :
          ...................................................

 iter      E             dE          RMSdq      gap      omega  full diag
   1   -393.0351051 -0.393035E+03  0.487E+00    1.05       0.0  T
   2   -393.2926945 -0.257589E+00  0.290E+00    0.55       1.0  T
   3   -392.2131942  0.107950E+01  0.209E+00    0.14       1.0  T
   4   -391.4606372  0.752557E+00  0.175E+00    0.41       1.0  T
   5   -393.4755660 -0.201493E+01  0.495E-01    0.43       1.0  T
   6   -393.5080021 -0.324361E-01  0.242E-01    0.35       1.0  T
   7   -393.5098814 -0.187926E-02  0.175E-01    0.33       1.0  T
   8   -393.5122922 -0.241080E-02  0.945E-02    0.25       1.0  T
   9   -393.5130474 -0.755237E-03  0.495E-02    0.19       1.0  T
  10   -393.5132134 -0.166027E-03  0.350E-02    0.19       1.0  T
  11   -393.5132741 -0.606963E-04  0.244E-02    0.20       1.0  T
  12   -393.5133232 -0.490542E-04  0.139E-02    0.20       1.0  T
  13   -393.5132942  0.289608E-04  0.120E-02    0.18       1.0  T
  14   -393.5133307 -0.365242E-04  0.767E-03    0.21       1.0  T
  15   -393.5133481 -0.173710E-04  0.395E-03    0.20       1.7  T
  16   -393.5133488 -0.731943E-06  0.324E-03    0.20       2.1  T
  17   -393.5133498 -0.956109E-06  0.225E-03    0.20       3.0  T
  18   -393.5133504 -0.624641E-06  0.155E-03    0.20       4.4  T
  19   -393.5133507 -0.268569E-06  0.974E-04    0.20       7.0  T
  20   -393.5133507  0.212771E-08  0.674E-04    0.20      10.1  T

   *** convergence criteria satisfied after 20 iterations ***

         #    Occupation            Energy/Eh            Energy/eV
      -------------------------------------------------------------
         1        2.0000           -1.0853614             -29.5342
       ...           ...                  ...                  ...
       346        2.0000           -0.3783070             -10.2943
       347        2.0000           -0.3731525             -10.1540
       348        2.0000           -0.3680367             -10.0148
       349        2.0000           -0.3651303              -9.9357
       350        2.0000           -0.3646488              -9.9226
       351        1.9999           -0.3622989              -9.8587
       352        1.9557           -0.3568695              -9.7109 (HOMO)
       353        0.0443           -0.3496722              -9.5151 (LUMO)
       354        0.0001           -0.3439603              -9.3596
       355        0.0000           -0.3398853              -9.2488
       356                         -0.3365353              -9.1576
       357                         -0.2948051              -8.0221
       ...                                ...                  ...
       720                          1.0701524              29.1203
      -------------------------------------------------------------
                  HL-Gap            0.0071973 Eh            0.1958 eV
             Fermi-level           -0.3532702 Eh           -9.6130 eV

 SCC (total)                   0 d,  0 h,  0 min,  1.219 sec
 SCC setup                      ...        0 min,  0.004 sec (  0.335%)
 Dispersion                     ...        0 min,  0.013 sec (  1.050%)
 classical contributions        ...        0 min,  0.000 sec (  0.037%)
 integral evaluation            ...        0 min,  0.046 sec (  3.771%)
 iterations                     ...        0 min,  0.976 sec ( 80.014%)
 molecular gradient             ...        0 min,  0.176 sec ( 14.433%)
 printout                       ...        0 min,  0.004 sec (  0.354%)

         :::::::::::::::::::::::::::::::::::::::::::::::::::::
         ::                     SUMMARY                     ::
         :::::::::::::::::::::::::::::::::::::::::::::::::::::
         :: total energy            -387.999299220860 Eh    ::
         :: gradient norm              0.307378901616 Eh/a0 ::
         :: HOMO-LUMO gap              0.195849681722 eV    ::
         ::.................................................::
         :: SCC energy              -393.513350680529 Eh    ::
         :: -> isotropic ES            0.195832084363 Eh    ::
         :: -> anisotropic ES          0.021975055590 Eh    ::
         :: -> anisotropic XC          0.216067632200 Eh    ::
         :: -> dispersion             -0.383598090783 Eh    ::
         :: repulsion energy           5.488510414459 Eh    ::
         :: add. restraining           0.000000000000 Eh    ::
         :: total charge               0.000000000012 e     ::
         :::::::::::::::::::::::::::::::::::::::::::::::::::::

      ----------------------------------------------------------- 
     |                   =====================                   |
     |                        A N C O P T                        |
     |                   =====================                   |
     |               Approximate Normal Coordinate               |
     |                Rational Function Optimizer                |
      ----------------------------------------------------------- 

          ...................................................
          :                      SETUP                      :
          :.................................................:
          :   optimization level            normal          :
          :   max. optcycles                   654          :
          :   ANC micro-cycles                  20          :
          :   degrees of freedom               648          :
          :.................................................:
          :   RF solver                   davidson          :
          :   write xtbopt.log                true          :
          :   linear?                        false          :
          :   energy convergence         0.5000000E-05 Eh   :
          :   grad. convergence          0.1000000E-02 Eh/α :
          :   maximium RF displ.         1.0000000          :
          :   Hlow (freq-cutoff)         0.1000000E-01      :
          :   Hmax (freq-cutoff)         5.0000000          :
          :   S6 in model hess.         20.0000000          :
          ...................................................

generating ANC from model Hessian ...
Using Lindh-Hessian (1995)
 Shifting diagonal of input Hessian by   1.001448099045615E-002
 Lowest  eigenvalues of input Hessian
    0.010000    0.000000    0.000000    0.000000    0.000000    0.000000
    0.000000    0.010020    0.010038    0.010041    0.010048    0.010064
    0.010088    0.010101    0.010116    0.010134    0.010145    0.010165
 Highest eigenvalues
    2.116992    2.117961    2.477154    2.497061    2.538829    2.555591
 

........................................................................
.............................. CYCLE    1 ..............................
........................................................................
   1   -393.5133508 -0.393513E+03  0.323E-04    0.20       0.0  T
   2   -393.5133507  0.115760E-06  0.467E-04    0.20      14.5  T
   3   -393.5133508 -0.107305E-06  0.254E-04    0.20      26.6  T
     SCC iter.                  ...        0 min,  0.151 sec
     gradient                   ...        0 min,  0.172 sec
 * total energy  :  -387.9992993 Eh     change       -0.8821382E-07 Eh
   gradient norm :     0.3073721 Eh/α   predicted     0.0000000E+00 (-100.00%)
   displ. norm   :     0.5043849 α      lambda       -0.1077276E+00
   maximum displ.:     0.0822123 α      in ANC's #401, #371, #161, ...

........................................................................
.............................. CYCLE    2 ..............................
........................................................................
   1   -393.7778731 -0.393778E+03  0.221E-01    0.23       0.0  T
   2   -393.7794963 -0.162320E-02  0.144E-01    0.25       1.0  T
   3   -393.7794036  0.927496E-04  0.858E-02    0.18       1.0  T
   4   -393.7794566 -0.530180E-04  0.444E-02    0.33       1.0  T
   5   -393.7801133 -0.656644E-03  0.247E-02    0.20       1.0  T
   6   -393.7802628 -0.149516E-03  0.144E-02    0.24       1.0  T
   7   -393.7803195 -0.566992E-04  0.883E-03    0.21       1.0  T
   8   -393.7803262 -0.671472E-05  0.604E-03    0.22       1.1  T
   9   -393.7803287 -0.249944E-05  0.381E-03    0.22       1.8  T
  10   -393.7803290 -0.307355E-06  0.246E-03    0.22       2.7  T
  11   -393.7803301 -0.112570E-05  0.115E-03    0.22       5.9  T
  12   -393.7803303 -0.137683E-06  0.651E-04    0.22      10.4  T
  13   -393.7803303 -0.463431E-07  0.427E-04    0.22      15.9  T
     SCC iter.                  ...        0 min,  0.623 sec
     gradient                   ...        0 min,  0.172 sec
 * total energy  :  -388.0790406 Eh     change       -0.7974124E-01 Eh
   gradient norm :     0.1459860 Eh/α   predicted    -0.6764044E-01 ( -15.18%)
   displ. norm   :     0.5412614 α      lambda       -0.5053301E-01
   maximum displ.:     0.1083299 α      in ANC's #161, #126, #163, ...

........................................................................
.............................. CYCLE    3 ..............................
........................................................................
   1   -393.9432732 -0.393943E+03  0.190E-01    0.21       0.0  T
   2   -393.9443248 -0.105154E-02  0.128E-01    0.36       1.0  T
   3   -393.9441669  0.157870E-03  0.841E-02    0.18       1.0  T
   4   -393.9442187 -0.517809E-04  0.587E-02    0.41       1.0  T
   5   -393.9456600 -0.144128E-02  0.241E-02    0.28       1.0  T
   6   -393.9457498 -0.898674E-04  0.127E-02    0.25       1.0  T
   7   -393.9457569 -0.703753E-05  0.939E-03    0.25       1.0  T
   8   -393.9457588 -0.193330E-05  0.630E-03    0.24       1.1  T
   9   -393.9457623 -0.344844E-05  0.415E-03    0.25       1.6  T
  10   -393.9457639 -0.164461E-05  0.224E-03    0.24       3.0  T
  11   -393.9457643 -0.350707E-06  0.122E-03    0.25       5.6  T
  12   -393.9457645 -0.201482E-06  0.707E-04    0.24       9.6  T
  13   -393.9457645 -0.490198E-07  0.493E-04    0.24      13.7  T
     SCC iter.                  ...        0 min,  0.622 sec
     gradient                   ...        0 min,  0.173 sec
 * total energy  :  -388.1120107 Eh     change       -0.3297012E-01 Eh
   gradient norm :     0.0485267 Eh/α   predicted    -0.3266871E-01 (  -0.91%)
   displ. norm   :     0.5665015 α      lambda       -0.1613639E-01
   maximum displ.:     0.1250361 α      in ANC's #69, #97, #126, ...

........................................................................
.............................. CYCLE    4 ..............................
........................................................................
   1   -393.9986524 -0.393999E+03  0.139E-01    0.25       0.0  T
   2   -393.9987805 -0.128114E-03  0.867E-02    0.33       1.0  T
   3   -393.9972957  0.148483E-02  0.665E-02    0.19       1.0  T
   4   -393.9986389 -0.134324E-02  0.340E-02    0.37       1.0  T
   5   -393.9991686 -0.529676E-03  0.126E-02    0.30       1.0  T
   6   -393.9992009 -0.323419E-04  0.681E-03    0.28       1.0  T
   7   -393.9992028 -0.190126E-05  0.492E-03    0.27       1.4  T
   8   -393.9992037 -0.830815E-06  0.349E-03    0.27       1.9  T
   9   -393.9992046 -0.954816E-06  0.239E-03    0.27       2.8  T
  10   -393.9992051 -0.447443E-06  0.138E-03    0.27       4.9  T
  11   -393.9992052 -0.112195E-06  0.848E-04    0.27       8.0  T
  12   -393.9992053 -0.943530E-07  0.447E-04    0.27      15.2  T
     SCC iter.                  ...        0 min,  0.573 sec
     gradient                   ...        0 min,  0.175 sec
 * total energy  :  -388.1233074 Eh     change       -0.1129673E-01 Eh
   gradient norm :     0.0315678 Eh/α   predicted    -0.1065789E-01 (  -5.66%)
   displ. norm   :     0.6676319 α      lambda       -0.1086084E-01
   maximum displ.:     0.1791002 α      in ANC's #97, #30, #126, ...

........................................................................
.............................. CYCLE    5 ..............................
........................................................................
   1   -394.0343027 -0.394034E+03  0.240E-01    0.27       0.0  T
   2   -394.0344829 -0.180211E-03  0.136E-01    0.36       1.0  T
   3   -394.0294262  0.505675E-02  0.968E-02    0.18       1.0  T
   4   -394.0343597 -0.493358E-02  0.341E-02    0.42       1.0  T
   5   -394.0348394 -0.479659E-03  0.125E-02    0.35       1.0  T
   6   -394.0348838 -0.444118E-04  0.663E-03    0.32       1.0  T
   7   -394.0348874 -0.363058E-05  0.440E-03    0.31       1.5  T
   8   -394.0348879 -0.460932E-06  0.320E-03    0.31       2.1  T
   9   -394.0348891 -0.115010E-05  0.225E-03    0.31       3.0  T
  10   -394.0348894 -0.354937E-06  0.163E-03    0.31       4.2  T
  11   -394.0348896 -0.157019E-06  0.119E-03    0.31       5.7  T
  12   -394.0348897 -0.166517E-06  0.672E-04    0.31      10.1  T
  13   -394.0348898 -0.533614E-07  0.413E-04    0.31      16.4  T
     SCC iter.                  ...        0 min,  0.627 sec
     gradient                   ...        0 min,  0.172 sec
 * total energy  :  -388.1279673 Eh     change       -0.4659893E-02 Eh
   gradient norm :     0.0373388 Eh/α   predicted    -0.7850968E-02 (  68.48%)
   displ. norm   :     0.4894688 α      lambda       -0.7213037E-02
   maximum displ.:     0.1629477 α      in ANC's #69, #52, #97, ...

........................................................................
.............................. CYCLE    6 ..............................
........................................................................
   1   -394.0440729 -0.394044E+03  0.165E-01    0.30       0.0  T
   2   -394.0441460 -0.731143E-04  0.930E-02    0.34       1.0  T
   3   -394.0432619  0.884041E-03  0.491E-02    0.26       1.0  T
   4   -394.0442100 -0.948104E-03  0.102E-02    0.34       1.0  T
   5   -394.0442369 -0.268414E-04  0.519E-03    0.32       1.3  T
   6   -394.0442409 -0.406133E-05  0.241E-03    0.32       2.8  T
   7   -394.0442415 -0.586068E-06  0.139E-03    0.32       4.9  T
   8   -394.0442417 -0.138103E-06  0.101E-03    0.32       6.7  T
   9   -394.0442417 -0.501801E-07  0.759E-04    0.32       8.9  T
  10   -394.0442418 -0.414589E-07  0.519E-04    0.32      13.0  T
     SCC iter.                  ...        0 min,  0.482 sec
     gradient                   ...        0 min,  0.173 sec
 * total energy  :  -388.1321746 Eh     change       -0.4207275E-02 Eh
   gradient norm :     0.0385434 Eh/α   predicted    -0.4470574E-02 (   6.26%)
   displ. norm   :     0.4723771 α      lambda       -0.3639776E-02
   maximum displ.:     0.1410187 α      in ANC's #52, #30, #55, ...

........................................................................
.............................. CYCLE    7 ..............................
........................................................................
   1   -394.0390510 -0.394039E+03  0.908E-02    0.32       0.0  T
   2   -394.0390662 -0.152150E-04  0.520E-02    0.34       1.0  T
   3   -394.0387442  0.322012E-03  0.342E-02    0.30       1.0  T
   4   -394.0390985 -0.354286E-03  0.693E-03    0.34       1.0  T
   5   -394.0391055 -0.706670E-05  0.407E-03    0.33       1.7  T
   6   -394.0391081 -0.256378E-05  0.184E-03    0.33       3.7  T
   7   -394.0391086 -0.492347E-06  0.998E-04    0.33       6.8  T
   8   -394.0391087 -0.602417E-07  0.744E-04    0.33       9.1  T
     SCC iter.                  ...        0 min,  0.393 sec
     gradient                   ...        0 min,  0.172 sec
 * total energy  :  -388.1348062 Eh     change       -0.2631659E-02 Eh
   gradient norm :     0.0210434 Eh/α   predicted    -0.2225980E-02 ( -15.42%)
   displ. norm   :     0.6395031 α      lambda       -0.3569597E-02
   maximum displ.:     0.2061490 α      in ANC's #30, #52, #55, ...

........................................................................
.............................. CYCLE    8 ..............................
........................................................................
   1   -394.0451320 -0.394045E+03  0.138E-01    0.31       0.0  T
   2   -394.0451807 -0.486834E-04  0.769E-02    0.35       1.0  T
   3   -394.0445250  0.655664E-03  0.430E-02    0.28       1.0  T
   4   -394.0452300 -0.704958E-03  0.966E-03    0.35       1.0  T
   5   -394.0452477 -0.177458E-04  0.524E-03    0.33       1.3  T
   6   -394.0452515 -0.384792E-05  0.196E-03    0.33       3.5  T
   7   -394.0452521 -0.575306E-06  0.107E-03    0.34       6.3  T
   8   -394.0452522 -0.826842E-07  0.754E-04    0.34       9.0  T
   9   -394.0452522 -0.322510E-07  0.527E-04    0.34      12.8  T
     SCC iter.                  ...        0 min,  0.435 sec
     gradient                   ...        0 min,  0.173 sec
 * total energy  :  -388.1375058 Eh     change       -0.2699563E-02 Eh
   gradient norm :     0.0252110 Eh/α   predicted    -0.2514724E-02 (  -6.85%)
   displ. norm   :     0.6998374 α      lambda       -0.3524122E-02
   maximum displ.:     0.2472711 α      in ANC's #30, #52, #51, ...

........................................................................
.............................. CYCLE    9 ..............................
........................................................................
   1   -394.0511799 -0.394051E+03  0.147E-01    0.35       0.0  T
   2   -394.0512429 -0.629897E-04  0.812E-02    0.36       1.0  T
   3   -394.0509422  0.300768E-03  0.346E-02    0.34       1.0  T
   4   -394.0512771 -0.334992E-03  0.900E-03    0.36       1.0  T
   5   -394.0512835 -0.638585E-05  0.558E-03    0.35       1.2  T
   6   -394.0512895 -0.598309E-05  0.227E-03    0.35       3.0  T
   7   -394.0512903 -0.817504E-06  0.120E-03    0.35       5.7  T
   8   -394.0512904 -0.103549E-06  0.810E-04    0.35       8.4  T
   9   -394.0512905 -0.183189E-07  0.585E-04    0.35      11.6  T
     SCC iter.                  ...        0 min,  0.441 sec
     gradient                   ...        0 min,  0.173 sec
 * total energy  :  -388.1396578 Eh     change       -0.2152005E-02 Eh
   gradient norm :     0.0238482 Eh/α   predicted    -0.2625090E-02 (  21.98%)
   displ. norm   :     0.6070846 α      lambda       -0.2696528E-02
   maximum displ.:     0.2060884 α      in ANC's #30, #52, #34, ...

........................................................................
.............................. CYCLE   10 ..............................
........................................................................
   1   -394.0582236 -0.394058E+03  0.127E-01    0.34       0.0  T
   2   -394.0582778 -0.542228E-04  0.695E-02    0.37       1.0  T
   3   -394.0579876  0.290236E-03  0.297E-02    0.32       1.0  T
   4   -394.0583080 -0.320352E-03  0.810E-03    0.36       1.0  T
   5   -394.0583157 -0.772106E-05  0.484E-03    0.36       1.4  T
   6   -394.0583198 -0.415879E-05  0.180E-03    0.36       3.8  T
   7   -394.0583204 -0.565811E-06  0.957E-04    0.36       7.1  T
   8   -394.0583205 -0.970198E-07  0.616E-04    0.36      11.0  T
     SCC iter.                  ...        0 min,  0.388 sec
     gradient                   ...        0 min,  0.172 sec
 * total energy  :  -388.1414740 Eh     change       -0.1816187E-02 Eh
   gradient norm :     0.0230098 Eh/α   predicted    -0.1845175E-02 (   1.60%)
   displ. norm   :     0.6500423 α      lambda       -0.2671987E-02
   maximum displ.:     0.2206226 α      in ANC's #30, #52, #34, ...

........................................................................
.............................. CYCLE   11 ..............................
........................................................................
   1   -394.0508988 -0.394051E+03  0.156E-01    0.33       0.0  T
   2   -394.0509801 -0.812778E-04  0.856E-02    0.36       1.0  T
   3   -394.0504867  0.493399E-03  0.447E-02    0.31       1.0  T
   4   -394.0510386 -0.551965E-03  0.901E-03    0.36       1.0  T
   5   -394.0510461 -0.744044E-05  0.614E-03    0.35       1.1  T
   6   -394.0510535 -0.738030E-05  0.222E-03    0.35       3.1  T
   7   -394.0510539 -0.439070E-06  0.149E-03    0.35       4.5  T
   8   -394.0510541 -0.219078E-06  0.105E-03    0.35       6.5  T
   9   -394.0510542 -0.609750E-07  0.771E-04    0.35       8.8  T
  10   -394.0510542 -0.498822E-07  0.494E-04    0.35      13.7  T
     SCC iter.                  ...        0 min,  0.476 sec
     gradient                   ...        0 min,  0.172 sec
 * total energy  :  -388.1425121 Eh     change       -0.1038091E-02 Eh
   gradient norm :     0.0545972 Eh/α   predicted    -0.1900527E-02 (  83.08%)
   displ. norm   :     0.4413739 α      lambda       -0.2975303E-02
   maximum displ.:     0.1615285 α      in ANC's #30, #25, #22, ...

........................................................................
.............................. CYCLE   12 ..............................
........................................................................
   1   -394.0720306 -0.394072E+03  0.108E-01    0.37       0.0  T
   2   -394.0720729 -0.423026E-04  0.602E-02    0.36       1.0  T
   3   -394.0718400  0.232895E-03  0.347E-02    0.38       1.0  T
   4   -394.0721088 -0.268780E-03  0.606E-03    0.36       1.1  T
   5   -394.0721106 -0.185097E-05  0.405E-03    0.37       1.7  T
   6   -394.0721136 -0.296056E-05  0.172E-03    0.36       3.9  T
   7   -394.0721139 -0.279819E-06  0.122E-03    0.36       5.6  T
   8   -394.0721140 -0.142145E-06  0.879E-04    0.36       7.7  T
   9   -394.0721141 -0.428831E-07  0.636E-04    0.36      10.6  T
     SCC iter.                  ...        0 min,  0.452 sec
     gradient                   ...        0 min,  0.172 sec
 * total energy  :  -388.1436332 Eh     change       -0.1121104E-02 Eh
   gradient norm :     0.0275793 Eh/α   predicted    -0.1777466E-02 (  58.55%)
   displ. norm   :     0.4484812 α      lambda       -0.1953615E-02
   maximum displ.:     0.1856990 α      in ANC's #30, #34, #44, ...

........................................................................
.............................. CYCLE   13 ..............................
........................................................................
   1   -394.0619979 -0.394062E+03  0.111E-01    0.36       0.0  T
   2   -394.0620272 -0.292237E-04  0.611E-02    0.37       1.0  T
   3   -394.0617458  0.281337E-03  0.345E-02    0.35       1.0  T
   4   -394.0620658 -0.319934E-03  0.521E-03    0.37       1.3  T
   5   -394.0620659 -0.142948E-06  0.352E-03    0.36       1.9  T
   6   -394.0620684 -0.252934E-05  0.145E-03    0.37       4.7  T
   7   -394.0620687 -0.226473E-06  0.103E-03    0.37       6.6  T
   8   -394.0620687 -0.743888E-07  0.766E-04    0.37       8.8  T
   9   -394.0620688 -0.409066E-07  0.530E-04    0.37      12.8  T
     SCC iter.                  ...        0 min,  0.432 sec
     gradient                   ...        0 min,  0.172 sec
 * total energy  :  -388.1449524 Eh     change       -0.1319243E-02 Eh
   gradient norm :     0.0175540 Eh/α   predicted    -0.1173286E-02 ( -11.06%)
   displ. norm   :     0.5741309 α      lambda       -0.1506945E-02
   maximum displ.:     0.2157479 α      in ANC's #30, #22, #25, ...

........................................................................
.............................. CYCLE   14 ..............................
........................................................................
   1   -394.0596052 -0.394060E+03  0.970E-02    0.36       0.0  T
   2   -394.0596359 -0.307212E-04  0.517E-02    0.37       1.0  T
   3   -394.0595777  0.582293E-04  0.168E-02    0.35       1.0  T
   4   -394.0596462 -0.685445E-04  0.603E-03    0.37       1.1  T
   5   -394.0596487 -0.245615E-05  0.343E-03    0.36       2.0  T
   6   -394.0596512 -0.251282E-05  0.114E-03    0.36       5.9  T
   7   -394.0596513 -0.158337E-06  0.725E-04    0.36       9.3  T
   8   -394.0596514 -0.370096E-07  0.539E-04    0.36      12.6  T
     SCC iter.                  ...        0 min,  0.386 sec
     gradient                   ...        0 min,  0.173 sec
 * total energy  :  -388.1461048 Eh     change       -0.1152349E-02 Eh
   gradient norm :     0.0194552 Eh/α   predicted    -0.1001839E-02 ( -13.06%)
   displ. norm   :     0.6797397 α      lambda       -0.1529583E-02
   maximum displ.:     0.2633581 α      in ANC's #30, #22, #8, ...

........................................................................
.............................. CYCLE   15 ..............................
........................................................................
   1   -394.0604654 -0.394060E+03  0.105E-01    0.37       0.0  T
   2   -394.0604961 -0.306545E-04  0.556E-02    0.37       1.0  T
   3   -394.0604469  0.491936E-04  0.181E-02    0.36       1.0  T
   4   -394.0605065 -0.596350E-04  0.698E-03    0.37       1.0  T
   5   -394.0605080 -0.144164E-05  0.387E-03    0.36       1.8  T
   6   -394.0605114 -0.340542E-05  0.120E-03    0.37       5.6  T
   7   -394.0605116 -0.180876E-06  0.767E-04    0.37       8.8  T
   8   -394.0605116 -0.338806E-07  0.594E-04    0.37      11.4  T
     SCC iter.                  ...        0 min,  0.395 sec
     gradient                   ...        0 min,  0.172 sec
 * total energy  :  -388.1473890 Eh     change       -0.1284211E-02 Eh
   gradient norm :     0.0242152 Eh/α   predicted    -0.1118163E-02 ( -12.93%)
   displ. norm   :     0.7343929 α      lambda       -0.1999504E-02
   maximum displ.:     0.2579757 α      in ANC's #30, #22, #8, ...

........................................................................
.............................. CYCLE   16 ..............................
........................................................................
   1   -394.0684934 -0.394068E+03  0.112E-01    0.37       0.0  T
   2   -394.0685298 -0.363573E-04  0.587E-02    0.36       1.0  T
   3   -394.0684579  0.719381E-04  0.215E-02    0.37       1.0  T
   4   -394.0685455 -0.876277E-04  0.750E-03    0.36       1.0  T
   5   -394.0685460 -0.486175E-06  0.412E-03    0.37       1.6  T
   6   -394.0685498 -0.380064E-05  0.136E-03    0.36       5.0  T
   7   -394.0685501 -0.316291E-06  0.706E-04    0.36       9.6  T
   8   -394.0685501 -0.269245E-07  0.531E-04    0.36      12.8  T
     SCC iter.                  ...        0 min,  0.393 sec
     gradient                   ...        0 min,  0.173 sec
 * total energy  :  -388.1488158 Eh     change       -0.1426798E-02 Eh
   gradient norm :     0.0204499 Eh/α   predicted    -0.1538956E-02 (   7.86%)
   displ. norm   :     0.7239650 α      lambda       -0.1674903E-02
   maximum displ.:     0.2596459 α      in ANC's #30, #8, #22, ...

........................................................................
.............................. CYCLE   17 ..............................
........................................................................
   1   -394.0704129 -0.394070E+03  0.105E-01    0.38       0.0  T
   2   -394.0704450 -0.320329E-04  0.543E-02    0.37       1.0  T
   3   -394.0703969  0.480415E-04  0.179E-02    0.38       1.0  T
   4   -394.0704541 -0.571525E-04  0.744E-03    0.37       1.0  T
   5   -394.0704557 -0.161642E-05  0.414E-03    0.37       1.6  T
   6   -394.0704592 -0.348662E-05  0.145E-03    0.37       4.7  T
   7   -394.0704595 -0.336194E-06  0.815E-04    0.37       8.3  T
   8   -394.0704596 -0.492283E-07  0.612E-04    0.37      11.1  T
     SCC iter.                  ...        0 min,  0.385 sec
     gradient                   ...        0 min,  0.172 sec
 * total energy  :  -388.1500677 Eh     change       -0.1251910E-02 Eh
   gradient norm :     0.0200249 Eh/α   predicted    -0.1276382E-02 (   1.95%)
   displ. norm   :     0.7569917 α      lambda       -0.1568773E-02
   maximum displ.:     0.2668459 α      in ANC's #30, #8, #22, ...

........................................................................
.............................. CYCLE   18 ..............................
........................................................................
   1   -394.0534180 -0.394053E+03  0.120E-01    0.37       0.0  T
   2   -394.0534527 -0.347106E-04  0.645E-02    0.37       1.0  T
   3   -394.0532109  0.241772E-03  0.349E-02    0.35       1.0  T
   4   -394.0534859 -0.274982E-03  0.795E-03    0.37       1.0  T
   5   -394.0534863 -0.454292E-06  0.471E-03    0.36       1.4  T
   6   -394.0534920 -0.562271E-05  0.160E-03    0.37       4.2  T
   7   -394.0534924 -0.430342E-06  0.924E-04    0.37       7.3  T
   8   -394.0534925 -0.736192E-07  0.627E-04    0.37      10.8  T
     SCC iter.                  ...        0 min,  0.394 sec
     gradient                   ...        0 min,  0.172 sec
 * total energy  :  -388.1511715 Eh     change       -0.1103787E-02 Eh
   gradient norm :     0.0171221 Eh/α   predicted    -0.1233870E-02 (  11.79%)
   displ. norm   :     0.6349569 α      lambda       -0.1505092E-02
   maximum displ.:     0.1989346 α      in ANC's #8, #2, #52, ...

........................................................................
.............................. CYCLE   19 ..............................
........................................................................
   1   -394.0686551 -0.394069E+03  0.877E-02    0.37       0.0  T
   2   -394.0686726 -0.175874E-04  0.470E-02    0.36       1.0  T
   3   -394.0685612  0.111442E-03  0.229E-02    0.38       1.0  T
   4   -394.0686878 -0.126628E-03  0.680E-03    0.36       1.0  T
   5   -394.0686899 -0.204920E-05  0.377E-03    0.36       1.8  T
   6   -394.0686920 -0.207854E-05  0.152E-03    0.36       4.5  T
   7   -394.0686922 -0.237170E-06  0.105E-03    0.36       6.4  T
   8   -394.0686923 -0.685998E-07  0.833E-04    0.36       8.1  T
   9   -394.0686923 -0.416784E-07  0.576E-04    0.36      11.8  T
     SCC iter.                  ...        0 min,  0.433 sec
     gradient                   ...        0 min,  0.173 sec
 * total energy  :  -388.1521206 Eh     change       -0.9491174E-03 Eh
   gradient norm :     0.0157333 Eh/α   predicted    -0.1055949E-02 (  11.26%)
   displ. norm   :     0.6945283 α      lambda       -0.1668864E-02
   maximum displ.:     0.2046369 α      in ANC's #30, #8, #2, ...

........................................................................
.............................. CYCLE   20 ..............................
........................................................................
   1   -394.0690050 -0.394069E+03  0.102E-01    0.35       0.0  T
   2   -394.0690354 -0.304063E-04  0.532E-02    0.36       1.0  T
   3   -394.0689546  0.807987E-04  0.221E-02    0.36       1.0  T
   4   -394.0690496 -0.949455E-04  0.763E-03    0.36       1.0  T
   5   -394.0690513 -0.166557E-05  0.384E-03    0.36       1.8  T
   6   -394.0690542 -0.298529E-05  0.116E-03    0.36       5.8  T
   7   -394.0690544 -0.187365E-06  0.628E-04    0.36      10.8  T
   8   -394.0690544 -0.224346E-07  0.460E-04    0.36      14.7  T
     SCC iter.                  ...        0 min,  0.383 sec
     gradient                   ...        0 min,  0.172 sec
 * total energy  :  -388.1530580 Eh     change       -0.9374162E-03 Eh
   gradient norm :     0.0169789 Eh/α   predicted    -0.1236938E-02 (  31.95%)
   displ. norm   :     0.5946208 α      lambda       -0.1248035E-02
   maximum displ.:     0.1960773 α      in ANC's #8, #2, #30, ...
 * RMSD in coord.:     0.6357084 α      energy gain  -0.1537588E+00 Eh

generating ANC from model Hessian ...
Using Lindh-Hessian (1995)
 Shifting diagonal of input Hessian by   1.001918055829241E-002
 Lowest  eigenvalues of input Hessian
    0.010000    0.000000    0.000000    0.000000    0.000000    0.000000
    0.000000    0.010025    0.010046    0.010051    0.010058    0.010095
    0.010107    0.010121    0.010147    0.010160    0.010172    0.010190
 Highest eigenvalues
    2.284042    2.288972    2.605168    2.615353    2.637626    2.640317
 

........................................................................
.............................. CYCLE   21 ..............................
........................................................................
   1   -394.0684828 -0.394068E+03  0.822E-02    0.36       0.0  T
   2   -394.0684994 -0.165961E-04  0.437E-02    0.36       1.0  T
   3   -394.0684140  0.854282E-04  0.205E-02    0.35       1.0  T
   4   -394.0685108 -0.968445E-04  0.624E-03    0.36       1.1  T
   5   -394.0685125 -0.170086E-05  0.361E-03    0.36       1.9  T
   6   -394.0685147 -0.223821E-05  0.147E-03    0.36       4.6  T
   7   -394.0685149 -0.129918E-06  0.117E-03    0.36       5.8  T
   8   -394.0685150 -0.861427E-07  0.912E-04    0.36       7.4  T
   9   -394.0685150 -0.687244E-07  0.554E-04    0.36      12.2  T
     SCC iter.                  ...        0 min,  0.443 sec
     gradient                   ...        0 min,  0.172 sec
 * total energy  :  -388.1540051 Eh     change       -0.9470529E-03 Eh
   gradient norm :     0.0154857 Eh/α   predicted     0.0000000E+00 (-100.00%)
   displ. norm   :     0.1651333 α      lambda       -0.7108173E-03
   maximum displ.:     0.0543696 α      in ANC's #34, #2, #41, ...

........................................................................
.............................. CYCLE   22 ..............................
........................................................................
   1   -394.0729382 -0.394073E+03  0.466E-02    0.36       0.0  T
   2   -394.0729453 -0.705396E-05  0.254E-02    0.36       1.0  T
   3   -394.0729243  0.209680E-04  0.109E-02    0.36       1.0  T
   4   -394.0729500 -0.257323E-04  0.255E-03    0.36       2.7  T
   5   -394.0729501 -0.784908E-07  0.158E-03    0.36       4.3  T
   6   -394.0729504 -0.338837E-06  0.747E-04    0.36       9.1  T
   7   -394.0729505 -0.321305E-07  0.571E-04    0.36      11.9  T
     SCC iter.                  ...        0 min,  0.343 sec
     gradient                   ...        0 min,  0.172 sec
 * total energy  :  -388.1544842 Eh     change       -0.4791476E-03 Eh
   gradient norm :     0.0074878 Eh/α   predicted    -0.3651145E-03 ( -23.80%)
   displ. norm   :     0.3756107 α      lambda       -0.1000086E-02
   maximum displ.:     0.1473299 α      in ANC's #34, #2, #4, ...

........................................................................
.............................. CYCLE   23 ..............................
........................................................................
   1   -394.0806025 -0.394081E+03  0.815E-02    0.36       0.0  T
   2   -394.0806222 -0.197559E-04  0.433E-02    0.36       1.0  T
   3   -394.0805532  0.690625E-04  0.198E-02    0.36       1.0  T
   4   -394.0806372 -0.840246E-04  0.495E-03    0.36       1.4  T
   5   -394.0806372 -0.600304E-07  0.287E-03    0.36       2.4  T
   6   -394.0806385 -0.129389E-05  0.109E-03    0.36       6.2  T
   7   -394.0806386 -0.811552E-07  0.832E-04    0.36       8.1  T
   8   -394.0806387 -0.425702E-07  0.625E-04    0.36      10.8  T
     SCC iter.                  ...        0 min,  0.385 sec
     gradient                   ...        0 min,  0.172 sec
 * total energy  :  -388.1549373 Eh     change       -0.4530474E-03 Eh
   gradient norm :     0.0168622 Eh/α   predicted    -0.5705927E-03 (  25.95%)
   displ. norm   :     0.3869972 α      lambda       -0.9161070E-03
   maximum displ.:     0.1502019 α      in ANC's #34, #2, #35, ...

........................................................................
.............................. CYCLE   24 ..............................
........................................................................
   1   -394.0816932 -0.394082E+03  0.780E-02    0.35       0.0  T
   2   -394.0817120 -0.188105E-04  0.406E-02    0.35       1.0  T
   3   -394.0816789  0.331858E-04  0.144E-02    0.36       1.0  T
   4   -394.0817202 -0.413897E-04  0.473E-03    0.35       1.4  T
   5   -394.0817205 -0.279860E-06  0.263E-03    0.35       2.6  T
   6   -394.0817219 -0.138351E-05  0.933E-04    0.35       7.3  T
   7   -394.0817220 -0.133285E-06  0.547E-04    0.35      12.4  T
   8   -394.0817221 -0.268603E-07  0.384E-04    0.35      17.7  T
     SCC iter.                  ...        0 min,  0.383 sec
     gradient                   ...        0 min,  0.173 sec
 * total energy  :  -388.1556127 Eh     change       -0.6754662E-03 Eh
   gradient norm :     0.0124939 Eh/α   predicted    -0.5266627E-03 ( -22.03%)
   displ. norm   :     0.5801841 α      lambda       -0.1124094E-02
   maximum displ.:     0.2346918 α      in ANC's #34, #2, #35, ...

........................................................................
.............................. CYCLE   25 ..............................
........................................................................
   1   -394.0741488 -0.394074E+03  0.102E-01    0.35       0.0  T
   2   -394.0741796 -0.308593E-04  0.520E-02    0.34       1.0  T
   3   -394.0741327  0.468826E-04  0.168E-02    0.36       1.0  T
   4   -394.0741879 -0.551622E-04  0.705E-03    0.35       1.0  T
   5   -394.0741903 -0.244642E-05  0.386E-03    0.35       1.8  T
   6   -394.0741936 -0.322201E-05  0.134E-03    0.35       5.1  T
   7   -394.0741938 -0.239090E-06  0.799E-04    0.35       8.5  T
   8   -394.0741939 -0.433561E-07  0.597E-04    0.35      11.3  T
     SCC iter.                  ...        0 min,  0.379 sec
     gradient                   ...        0 min,  0.172 sec
 * total energy  :  -388.1564116 Eh     change       -0.7988611E-03 Eh
   gradient norm :     0.0130674 Eh/α   predicted    -0.7512394E-03 (  -5.96%)
   displ. norm   :     0.5941436 α      lambda       -0.1066602E-02
   maximum displ.:     0.2300256 α      in ANC's #34, #2, #4, ...

........................................................................
.............................. CYCLE   26 ..............................
........................................................................
   1   -394.0691648 -0.394069E+03  0.965E-02    0.35       0.0  T
   2   -394.0691904 -0.256166E-04  0.492E-02    0.34       1.0  T
   3   -394.0691557  0.347041E-04  0.142E-02    0.35       1.0  T
   4   -394.0691925 -0.368456E-04  0.723E-03    0.34       1.0  T
   5   -394.0691981 -0.553627E-05  0.360E-03    0.34       1.9  T
   6   -394.0692007 -0.267850E-05  0.109E-03    0.34       6.2  T
   7   -394.0692009 -0.209696E-06  0.529E-04    0.34      12.8  T
   8   -394.0692010 -0.428421E-07  0.327E-04    0.34      20.7  T
     SCC iter.                  ...        0 min,  0.389 sec
     gradient                   ...        0 min,  0.174 sec
 * total energy  :  -388.1571504 Eh     change       -0.7387799E-03 Eh
   gradient norm :     0.0174025 Eh/α   predicted    -0.7215620E-03 (  -2.33%)
   displ. norm   :     0.5627026 α      lambda       -0.1242959E-02
   maximum displ.:     0.2014260 α      in ANC's #34, #2, #4, ...

........................................................................
.............................. CYCLE   27 ..............................
........................................................................
   1   -394.0702434 -0.394070E+03  0.977E-02    0.34       0.0  T
   2   -394.0702696 -0.262343E-04  0.515E-02    0.34       1.0  T
   3   -394.0702229  0.467322E-04  0.162E-02    0.34       1.0  T
   4   -394.0702771 -0.541996E-04  0.657E-03    0.34       1.0  T
   5   -394.0702794 -0.230724E-05  0.368E-03    0.34       1.8  T
   6   -394.0702824 -0.302955E-05  0.116E-03    0.34       5.8  T
   7   -394.0702826 -0.239393E-06  0.611E-04    0.34      11.1  T
   8   -394.0702827 -0.384962E-07  0.395E-04    0.34      17.2  T
     SCC iter.                  ...        0 min,  0.379 sec
     gradient                   ...        0 min,  0.172 sec
 * total energy  :  -388.1579438 Eh     change       -0.7934859E-03 Eh
   gradient norm :     0.0166293 Eh/α   predicted    -0.8182615E-03 (   3.12%)
   displ. norm   :     0.5623861 α      lambda       -0.1212904E-02
   maximum displ.:     0.1931602 α      in ANC's #34, #2, #4, ...

........................................................................
.............................. CYCLE   28 ..............................
........................................................................
   1   -394.0746266 -0.394075E+03  0.829E-02    0.34       0.0  T
   2   -394.0746446 -0.180173E-04  0.437E-02    0.33       1.0  T
   3   -394.0745960  0.486886E-04  0.149E-02    0.35       1.0  T
   4   -394.0746497 -0.536964E-04  0.595E-03    0.34       1.1  T
   5   -394.0746530 -0.333204E-05  0.295E-03    0.34       2.3  T
   6   -394.0746545 -0.149738E-05  0.115E-03    0.34       5.9  T
   7   -394.0746547 -0.265742E-06  0.487E-04    0.34      13.9  T
   8   -394.0746548 -0.226181E-07  0.331E-04    0.34      20.4  T
     SCC iter.                  ...        0 min,  0.385 sec
     gradient                   ...        0 min,  0.173 sec
 * total energy  :  -388.1589121 Eh     change       -0.9682344E-03 Eh
   gradient norm :     0.0110509 Eh/α   predicted    -0.7982581E-03 ( -17.56%)
   displ. norm   :     0.6857802 α      lambda       -0.1181981E-02
   maximum displ.:     0.2280247 α      in ANC's #2, #34, #4, ...

........................................................................
.............................. CYCLE   29 ..............................
........................................................................
   1   -394.0807457 -0.394081E+03  0.898E-02    0.34       0.0  T
   2   -394.0807657 -0.199473E-04  0.468E-02    0.34       1.0  T
   3   -394.0807182  0.474706E-04  0.159E-02    0.34       1.0  T
   4   -394.0807702 -0.519494E-04  0.674E-03    0.34       1.0  T
   5   -394.0807737 -0.355267E-05  0.319E-03    0.34       2.1  T
   6   -394.0807754 -0.172062E-05  0.132E-03    0.34       5.1  T
   7   -394.0807758 -0.394417E-06  0.502E-04    0.34      13.5  T
   8   -394.0807759 -0.297399E-07  0.322E-04    0.34      21.0  T
     SCC iter.                  ...        0 min,  0.380 sec
     gradient                   ...        0 min,  0.172 sec
 * total energy  :  -388.1599169 Eh     change       -0.1004831E-02 Eh
   gradient norm :     0.0080868 Eh/α   predicted    -0.8689323E-03 ( -13.52%)
   displ. norm   :     0.7748911 α      lambda       -0.1131804E-02
   maximum displ.:     0.2654879 α      in ANC's #2, #34, #4, ...

........................................................................
.............................. CYCLE   30 ..............................
........................................................................
   1   -394.0830163 -0.394083E+03  0.102E-01    0.34       0.0  T
   2   -394.0830428 -0.265031E-04  0.536E-02    0.33       1.0  T
   3   -394.0829874  0.554917E-04  0.169E-02    0.34       1.0  T
   4   -394.0830476 -0.602621E-04  0.748E-03    0.34       1.0  T
   5   -394.0830530 -0.540588E-05  0.345E-03    0.34       2.0  T
   6   -394.0830550 -0.200676E-05  0.137E-03    0.34       4.9  T
   7   -394.0830555 -0.431976E-06  0.510E-04    0.34      13.3  T
   8   -394.0830555 -0.353164E-07  0.309E-04    0.34      21.9  T
     SCC iter.                  ...        0 min,  0.395 sec
     gradient                   ...        0 min,  0.173 sec
 * total energy  :  -388.1609045 Eh     change       -0.9876085E-03 Eh
   gradient norm :     0.0094828 Eh/α   predicted    -0.9057077E-03 (  -8.29%)
   displ. norm   :     0.7988298 α      lambda       -0.1166278E-02
   maximum displ.:     0.2842126 α      in ANC's #2, #7, #4, ...

........................................................................
.............................. CYCLE   31 ..............................
........................................................................
   1   -394.0884483 -0.394088E+03  0.102E-01    0.34       0.0  T
   2   -394.0884756 -0.272280E-04  0.542E-02    0.33       1.0  T
   3   -394.0884375  0.381009E-04  0.154E-02    0.34       1.0  T
   4   -394.0884788 -0.413662E-04  0.720E-03    0.33       1.0  T
   5   -394.0884845 -0.565760E-05  0.289E-03    0.34       2.3  T
   6   -394.0884857 -0.120376E-05  0.134E-03    0.34       5.1  T
   7   -394.0884861 -0.432691E-06  0.516E-04    0.34      13.1  T
   8   -394.0884861 -0.345245E-07  0.327E-04    0.34      20.7  T
     SCC iter.                  ...        0 min,  0.381 sec
     gradient                   ...        0 min,  0.173 sec
 * total energy  :  -388.1618663 Eh     change       -0.9617858E-03 Eh
   gradient norm :     0.0112082 Eh/α   predicted    -0.9552756E-03 (  -0.68%)
   displ. norm   :     0.8248934 α      lambda       -0.1110737E-02
   maximum displ.:     0.2928204 α      in ANC's #2, #7, #4, ...

........................................................................
.............................. CYCLE   32 ..............................
........................................................................
   1   -394.0804940 -0.394080E+03  0.106E-01    0.34       0.0  T
   2   -394.0805251 -0.310260E-04  0.557E-02    0.33       1.0  T
   3   -394.0804942  0.308719E-04  0.140E-02    0.34       1.0  T
   4   -394.0805219 -0.277343E-04  0.805E-03    0.33       1.0  T
   5   -394.0805332 -0.112948E-04  0.343E-03    0.33       2.0  T
   6   -394.0805351 -0.184434E-05  0.138E-03    0.33       4.9  T
   7   -394.0805354 -0.364115E-06  0.581E-04    0.33      11.7  T
   8   -394.0805355 -0.398440E-07  0.400E-04    0.33      16.9  T
     SCC iter.                  ...        0 min,  0.405 sec
     gradient                   ...        0 min,  0.173 sec
 * total energy  :  -388.1628234 Eh     change       -0.9570870E-03 Eh
   gradient norm :     0.0107921 Eh/α   predicted    -0.9332687E-03 (  -2.49%)
   displ. norm   :     0.7573803 α      lambda       -0.1603210E-02
   maximum displ.:     0.2792007 α      in ANC's #2, #7, #12, ...

........................................................................
.............................. CYCLE   33 ..............................
........................................................................
   1   -394.0947696 -0.394095E+03  0.102E-01    0.33       0.0  T
   2   -394.0947987 -0.291309E-04  0.574E-02    0.33       1.0  T
   3   -394.0947476  0.510996E-04  0.164E-02    0.33       1.0  T
   4   -394.0948058 -0.582295E-04  0.633E-03    0.33       1.1  T
   5   -394.0948107 -0.487150E-05  0.331E-03    0.33       2.0  T
   6   -394.0948119 -0.118625E-05  0.150E-03    0.33       4.5  T
   7   -394.0948121 -0.208466E-06  0.924E-04    0.33       7.3  T
   8   -394.0948122 -0.588899E-07  0.655E-04    0.33      10.3  T
     SCC iter.                  ...        0 min,  0.384 sec
     gradient                   ...        0 min,  0.173 sec
 * total energy  :  -388.1629059 Eh     change       -0.8252735E-04 Eh
   gradient norm :     0.0327570 Eh/α   predicted    -0.1261426E-02 (1428.49%)
   displ. norm   :     0.4624124 α      lambda       -0.2156285E-02
   maximum displ.:     0.1614880 α      in ANC's #34, #2, #4, ...

........................................................................
.............................. CYCLE   34 ..............................
........................................................................
   1   -394.0835721 -0.394084E+03  0.777E-02    0.34       0.0  T
   2   -394.0835896 -0.174880E-04  0.411E-02    0.33       1.0  T
   3   -394.0835594  0.301843E-04  0.130E-02    0.34       1.0  T
   4   -394.0835919 -0.325164E-04  0.595E-03    0.33       1.1  T
   5   -394.0835962 -0.420631E-05  0.263E-03    0.33       2.6  T
   6   -394.0835971 -0.953225E-06  0.100E-03    0.33       6.8  T
   7   -394.0835973 -0.155474E-06  0.522E-04    0.33      13.0  T
   8   -394.0835973 -0.323200E-07  0.319E-04    0.33      21.2  T
     SCC iter.                  ...        0 min,  0.386 sec
     gradient                   ...        0 min,  0.173 sec
 * total energy  :  -388.1642956 Eh     change       -0.1389713E-02 Eh
   gradient norm :     0.0116619 Eh/α   predicted    -0.1308681E-02 (  -5.83%)
   displ. norm   :     0.7203887 α      lambda       -0.1076664E-02
   maximum displ.:     0.2678013 α      in ANC's #2, #7, #4, ...

........................................................................
.............................. CYCLE   35 ..............................
........................................................................
   1   -394.0795955 -0.394080E+03  0.836E-02    0.33       0.0  T
   2   -394.0796146 -0.191643E-04  0.444E-02    0.33       1.0  T
   3   -394.0795869  0.277690E-04  0.132E-02    0.34       1.0  T
   4   -394.0796127 -0.258565E-04  0.701E-03    0.33       1.0  T
   5   -394.0796200 -0.728722E-05  0.301E-03    0.33       2.3  T
   6   -394.0796213 -0.124906E-05  0.117E-03    0.33       5.8  T
   7   -394.0796215 -0.270667E-06  0.463E-04    0.33      14.6  T
   8   -394.0796216 -0.267101E-07  0.316E-04    0.33      21.5  T
     SCC iter.                  ...        0 min,  0.381 sec
     gradient                   ...        0 min,  0.173 sec
 * total energy  :  -388.1650755 Eh     change       -0.7798456E-03 Eh
   gradient norm :     0.0131422 Eh/α   predicted    -0.8177100E-03 (   4.86%)
   displ. norm   :     0.6948155 α      lambda       -0.1136386E-02
   maximum displ.:     0.2667419 α      in ANC's #2, #7, #12, ...

........................................................................
.............................. CYCLE   36 ..............................
........................................................................
   1   -394.0807001 -0.394081E+03  0.780E-02    0.33       0.0  T
   2   -394.0807160 -0.159208E-04  0.419E-02    0.33       1.0  T
   3   -394.0806817  0.343015E-04  0.143E-02    0.34       1.0  T
   4   -394.0807161 -0.343543E-04  0.651E-03    0.33       1.0  T
   5   -394.0807213 -0.519277E-05  0.294E-03    0.33       2.3  T
   6   -394.0807227 -0.140805E-05  0.112E-03    0.33       6.1  T
   7   -394.0807229 -0.228088E-06  0.496E-04    0.33      13.7  T
   8   -394.0807229 -0.266091E-07  0.346E-04    0.33      19.6  T
     SCC iter.                  ...        0 min,  0.382 sec
     gradient                   ...        0 min,  0.172 sec
 * total energy  :  -388.1659945 Eh     change       -0.9190576E-03 Eh
   gradient norm :     0.0122727 Eh/α   predicted    -0.8425022E-03 (  -8.33%)
   displ. norm   :     0.6301254 α      lambda       -0.1324221E-02
   maximum displ.:     0.2438453 α      in ANC's #2, #12, #7, ...

........................................................................
.............................. CYCLE   37 ..............................
........................................................................
   1   -394.0956153 -0.394096E+03  0.711E-02    0.33       0.0  T
   2   -394.0956271 -0.117948E-04  0.398E-02    0.33       1.0  T
   3   -394.0955589  0.681370E-04  0.186E-02    0.34       1.0  T
   4   -394.0956320 -0.731001E-04  0.537E-03    0.33       1.3  T
   5   -394.0956352 -0.313915E-05  0.283E-03    0.33       2.4  T
   6   -394.0956366 -0.147237E-05  0.106E-03    0.33       6.4  T
   7   -394.0956368 -0.134564E-06  0.611E-04    0.33      11.1  T
   8   -394.0956368 -0.396834E-07  0.405E-04    0.33      16.7  T
     SCC iter.                  ...        0 min,  0.390 sec
     gradient                   ...        0 min,  0.173 sec
 * total energy  :  -388.1668969 Eh     change       -0.9023484E-03 Eh
   gradient norm :     0.0137283 Eh/α   predicted    -0.9250230E-03 (   2.51%)
   displ. norm   :     0.7937849 α      lambda       -0.1258102E-02
   maximum displ.:     0.3068924 α      in ANC's #2, #7, #12, ...

........................................................................
.............................. CYCLE   38 ..............................
........................................................................
   1   -394.0921660 -0.394092E+03  0.873E-02    0.33       0.0  T
   2   -394.0921837 -0.177479E-04  0.481E-02    0.33       1.0  T
   3   -394.0921348  0.489576E-04  0.159E-02    0.33       1.0  T
   4   -394.0921824 -0.476451E-04  0.715E-03    0.33       1.0  T
   5   -394.0921904 -0.801233E-05  0.288E-03    0.33       2.3  T
   6   -394.0921915 -0.107413E-05  0.115E-03    0.33       5.9  T
   7   -394.0921918 -0.291730E-06  0.478E-04    0.33      14.2  T
   8   -394.0921918 -0.229066E-07  0.328E-04    0.33      20.7  T
     SCC iter.                  ...        0 min,  0.388 sec
     gradient                   ...        0 min,  0.172 sec
 * total energy  :  -388.1679945 Eh     change       -0.1097642E-02 Eh
   gradient norm :     0.0099949 Eh/α   predicted    -0.1025412E-02 (  -6.58%)
   displ. norm   :     0.7898190 α      lambda       -0.1327802E-02
   maximum displ.:     0.3097327 α      in ANC's #2, #7, #12, ...

........................................................................
.............................. CYCLE   39 ..............................
........................................................................
   1   -394.0909425 -0.394091E+03  0.865E-02    0.33       0.0  T
   2   -394.0909596 -0.170250E-04  0.469E-02    0.33       1.0  T
   3   -394.0909199  0.397136E-04  0.149E-02    0.33       1.0  T
   4   -394.0909581 -0.382636E-04  0.711E-03    0.33       1.0  T
   5   -394.0909661 -0.799894E-05  0.290E-03    0.33       2.3  T
   6   -394.0909673 -0.118097E-05  0.103E-03    0.33       6.6  T
   7   -394.0909675 -0.206144E-06  0.501E-04    0.33      13.5  T
   8   -394.0909675 -0.187842E-07  0.349E-04    0.33      19.4  T
     SCC iter.                  ...        0 min,  0.383 sec
     gradient                   ...        0 min,  0.173 sec
 * total energy  :  -388.1690060 Eh     change       -0.1011513E-02 Eh
   gradient norm :     0.0124990 Eh/α   predicted    -0.1078053E-02 (   6.58%)
   displ. norm   :     0.8114916 α      lambda       -0.1274933E-02
   maximum displ.:     0.3146960 α      in ANC's #2, #12, #7, ...

........................................................................
.............................. CYCLE   40 ..............................
........................................................................
   1   -394.0824821 -0.394082E+03  0.828E-02    0.33       0.0  T
   2   -394.0824990 -0.168151E-04  0.463E-02    0.33       1.0  T
   3   -394.0824368  0.621816E-04  0.175E-02    0.33       1.0  T
   4   -394.0824979 -0.611218E-04  0.708E-03    0.33       1.0  T
   5   -394.0825056 -0.767079E-05  0.302E-03    0.33       2.2  T
   6   -394.0825069 -0.135205E-05  0.122E-03    0.33       5.5  T
   7   -394.0825072 -0.272068E-06  0.515E-04    0.33      13.1  T
   8   -394.0825072 -0.268113E-07  0.341E-04    0.33      19.9  T
     SCC iter.                  ...        0 min,  0.394 sec
     gradient                   ...        0 min,  0.173 sec
 * total energy  :  -388.1699934 Eh     change       -0.9873719E-03 Eh
   gradient norm :     0.0153604 Eh/α   predicted    -0.1057256E-02 (   7.08%)
   displ. norm   :     0.6695227 α      lambda       -0.1823239E-02
   maximum displ.:     0.2137568 α      in ANC's #2, #11, #12, ...

........................................................................
.............................. CYCLE   41 ..............................
........................................................................
   1   -394.1203427 -0.394120E+03  0.963E-02    0.34       0.0  T
   2   -394.1203841 -0.413739E-04  0.525E-02    0.34       1.0  T
   3   -394.1203286  0.554606E-04  0.205E-02    0.33       1.0  T
   4   -394.1203878 -0.592322E-04  0.831E-03    0.34       1.0  T
   5   -394.1203977 -0.984128E-05  0.374E-03    0.34       1.8  T
   6   -394.1203983 -0.609086E-06  0.216E-03    0.34       3.1  T
   7   -394.1203993 -0.976093E-06  0.814E-04    0.34       8.3  T
   8   -394.1203993 -0.433151E-07  0.545E-04    0.34      12.4  T
     SCC iter.                  ...        0 min,  0.389 sec
     gradient                   ...        0 min,  0.173 sec
 * total energy  :  -388.1681544 Eh     change        0.1838988E-02 Eh
   gradient norm :     0.0507041 Eh/α   predicted    -0.1320268E-02 (-171.79%)
   displ. norm   :     0.2930781 α      lambda       -0.6104968E-02
   maximum displ.:     0.1206069 α      in ANC's #59, #34, #2, ...

........................................................................
.............................. CYCLE   42 ..............................
........................................................................
   1   -394.1016831 -0.394102E+03  0.682E-02    0.34       0.0  T
   2   -394.1017260 -0.428125E-04  0.357E-02    0.34       1.0  T
   3   -394.1017223  0.366175E-05  0.136E-02    0.34       1.0  T
   4   -394.1017298 -0.749528E-05  0.526E-03    0.34       1.3  T
   5   -394.1017324 -0.257283E-05  0.306E-03    0.34       2.2  T
   6   -394.1017339 -0.152581E-05  0.112E-03    0.34       6.1  T
   7   -394.1017341 -0.214631E-06  0.563E-04    0.34      12.0  T
   8   -394.1017341 -0.129022E-07  0.358E-04    0.34      18.9  T
     SCC iter.                  ...        0 min,  0.390 sec
     gradient                   ...        0 min,  0.173 sec
 * total energy  :  -388.1712013 Eh     change       -0.3046874E-02 Eh
   gradient norm :     0.0163297 Eh/α   predicted    -0.3314680E-02 (   8.79%)
   displ. norm   :     0.6301232 α      lambda       -0.1605531E-02
   maximum displ.:     0.2417070 α      in ANC's #2, #7, #12, ...
 * RMSD in coord.:     0.8413216 α      energy gain  -0.1814329E-01 Eh

generating ANC from model Hessian ...
Using Lindh-Hessian (1995)
 Shifting diagonal of input Hessian by   1.001559251709778E-002
 Lowest  eigenvalues of input Hessian
    0.010000    0.000000    0.000000    0.000000    0.000000    0.000000
    0.000000    0.010021    0.010041    0.010055    0.010057    0.010089
    0.010101    0.010114    0.010130    0.010156    0.010175    0.010180
 Highest eigenvalues
    2.285038    2.288320    2.608534    2.611796    2.631606    2.636960
 

........................................................................
.............................. CYCLE   43 ..............................
........................................................................
   1   -394.0882347 -0.394088E+03  0.783E-02    0.34       0.0  T
   2   -394.0882514 -0.167163E-04  0.418E-02    0.34       1.0  T
   3   -394.0882262  0.252660E-04  0.128E-02    0.34       1.0  T
   4   -394.0882499 -0.237020E-04  0.683E-03    0.34       1.0  T
   5   -394.0882564 -0.652552E-05  0.296E-03    0.34       2.3  T
   6   -394.0882576 -0.124206E-05  0.109E-03    0.34       6.2  T
   7   -394.0882578 -0.207619E-06  0.477E-04    0.34      14.2  T
   8   -394.0882578 -0.746888E-08  0.364E-04    0.34      18.6  T
     SCC iter.                  ...        0 min,  0.388 sec
     gradient                   ...        0 min,  0.173 sec
 * total energy  :  -388.1719859 Eh     change       -0.7845589E-03 Eh
   gradient norm :     0.0148028 Eh/α   predicted     0.0000000E+00 (-100.00%)
   displ. norm   :     0.1534666 α      lambda       -0.6890009E-03
   maximum displ.:     0.0529185 α      in ANC's #59, #48, #9, ...

........................................................................
.............................. CYCLE   44 ..............................
........................................................................
   1   -394.0964522 -0.394096E+03  0.296E-02    0.34       0.0  T
   2   -394.0964549 -0.278854E-05  0.159E-02    0.34       1.0  T
   3   -394.0964506  0.436014E-05  0.469E-03    0.34       1.4  T
   4   -394.0964550 -0.444659E-05  0.227E-03    0.34       3.0  T
   5   -394.0964558 -0.765883E-06  0.121E-03    0.34       5.6  T
   6   -394.0964560 -0.228834E-06  0.452E-04    0.34      15.0  T
   7   -394.0964561 -0.332326E-07  0.211E-04    0.34      32.1  T
     SCC iter.                  ...        0 min,  0.338 sec
     gradient                   ...        0 min,  0.173 sec
 * total energy  :  -388.1725061 Eh     change       -0.5202572E-03 Eh
   gradient norm :     0.0048933 Eh/α   predicted    -0.3526172E-03 ( -32.22%)
   displ. norm   :     0.3487219 α      lambda       -0.7495517E-03
   maximum displ.:     0.1241473 α      in ANC's #59, #48, #9, ...

........................................................................
.............................. CYCLE   45 ..............................
........................................................................
   1   -394.1025346 -0.394103E+03  0.596E-02    0.34       0.0  T
   2   -394.1025454 -0.108270E-04  0.316E-02    0.34       1.0  T
   3   -394.1025299  0.154823E-04  0.875E-03    0.34       1.0  T
   4   -394.1025461 -0.161907E-04  0.433E-03    0.34       1.6  T
   5   -394.1025489 -0.275012E-05  0.225E-03    0.34       3.0  T
   6   -394.1025496 -0.765838E-06  0.840E-04    0.34       8.1  T
   7   -394.1025498 -0.125053E-06  0.365E-04    0.34      18.6  T
     SCC iter.                  ...        0 min,  0.340 sec
     gradient                   ...        0 min,  0.173 sec
 * total energy  :  -388.1730175 Eh     change       -0.5113903E-03 Eh
   gradient norm :     0.0080002 Eh/α   predicted    -0.4203754E-03 ( -17.80%)
   displ. norm   :     0.5654957 α      lambda       -0.9678682E-03
   maximum displ.:     0.1974231 α      in ANC's #59, #48, #9, ...

........................................................................
.............................. CYCLE   46 ..............................
........................................................................
   1   -394.1029987 -0.394103E+03  0.100E-01    0.34       0.0  T
   2   -394.1030283 -0.296194E-04  0.532E-02    0.34       1.0  T
   3   -394.1029858  0.424637E-04  0.144E-02    0.35       1.0  T
   4   -394.1030307 -0.448541E-04  0.713E-03    0.34       1.0  T
   5   -394.1030387 -0.806849E-05  0.335E-03    0.34       2.0  T
   6   -394.1030403 -0.159546E-05  0.117E-03    0.34       5.8  T
   7   -394.1030406 -0.235665E-06  0.524E-04    0.34      12.9  T
   8   -394.1030406 -0.274711E-07  0.361E-04    0.34      18.8  T
     SCC iter.                  ...        0 min,  0.384 sec
     gradient                   ...        0 min,  0.173 sec
 * total energy  :  -388.1735326 Eh     change       -0.5150673E-03 Eh
   gradient norm :     0.0157019 Eh/α   predicted    -0.6387449E-03 (  24.01%)
   displ. norm   :     0.4766453 α      lambda       -0.8770286E-03
   maximum displ.:     0.1429485 α      in ANC's #59, #48, #9, ...

........................................................................
.............................. CYCLE   47 ..............................
........................................................................
   1   -394.0998030 -0.394100E+03  0.750E-02    0.34       0.0  T
   2   -394.0998182 -0.151771E-04  0.394E-02    0.34       1.0  T
   3   -394.0997855  0.326513E-04  0.125E-02    0.34       1.0  T
   4   -394.0998198 -0.342535E-04  0.581E-03    0.34       1.2  T
   5   -394.0998243 -0.449391E-05  0.253E-03    0.34       2.7  T
   6   -394.0998252 -0.905865E-06  0.834E-04    0.34       8.1  T
   7   -394.0998253 -0.114121E-06  0.394E-04    0.34      17.2  T
     SCC iter.                  ...        0 min,  0.341 sec
     gradient                   ...        0 min,  0.174 sec
 * total energy  :  -388.1742077 Eh     change       -0.6751210E-03 Eh
   gradient norm :     0.0130298 Eh/α   predicted    -0.5381431E-03 ( -20.29%)
   displ. norm   :     0.5059662 α      lambda       -0.9241340E-03
   maximum displ.:     0.1389998 α      in ANC's #9, #48, #2, ...

........................................................................
.............................. CYCLE   48 ..............................
........................................................................
   1   -394.0959053 -0.394096E+03  0.784E-02    0.34       0.0  T
   2   -394.0959204 -0.151759E-04  0.420E-02    0.34       1.0  T
   3   -394.0958547  0.657357E-04  0.170E-02    0.34       1.0  T
   4   -394.0959268 -0.721128E-04  0.564E-03    0.34       1.2  T
   5   -394.0959298 -0.302743E-05  0.257E-03    0.34       2.6  T
   6   -394.0959308 -0.907971E-06  0.891E-04    0.34       7.6  T
   7   -394.0959309 -0.131636E-06  0.433E-04    0.34      15.7  T
     SCC iter.                  ...        0 min,  0.342 sec
     gradient                   ...        0 min,  0.173 sec
 * total energy  :  -388.1747712 Eh     change       -0.5634907E-03 Eh
   gradient norm :     0.0083850 Eh/α   predicted    -0.5803587E-03 (   2.99%)
   displ. norm   :     0.4438289 α      lambda       -0.5272821E-03
   maximum displ.:     0.1282396 α      in ANC's #9, #2, #13, ...

........................................................................
.............................. CYCLE   49 ..............................
........................................................................
   1   -394.0960316 -0.394096E+03  0.543E-02    0.34       0.0  T
   2   -394.0960376 -0.601444E-05  0.291E-02    0.34       1.0  T
   3   -394.0959980  0.395666E-04  0.133E-02    0.34       1.0  T
   4   -394.0960408 -0.427745E-04  0.421E-03    0.34       1.6  T
   5   -394.0960422 -0.144078E-05  0.204E-03    0.34       3.3  T
   6   -394.0960429 -0.673732E-06  0.569E-04    0.34      11.9  T
   7   -394.0960430 -0.447318E-07  0.328E-04    0.34      20.7  T
     SCC iter.                  ...        0 min,  0.339 sec
     gradient                   ...        0 min,  0.173 sec
 * total energy  :  -388.1751864 Eh     change       -0.4151931E-03 Eh
   gradient norm :     0.0087135 Eh/α   predicted    -0.3155780E-03 ( -23.99%)
   displ. norm   :     0.5411078 α      lambda       -0.7351827E-03
   maximum displ.:     0.1674383 α      in ANC's #2, #13, #9, ...

........................................................................
.............................. CYCLE   50 ..............................
........................................................................
   1   -394.1016755 -0.394102E+03  0.543E-02    0.34       0.0  T
   2   -394.1016804 -0.485976E-05  0.294E-02    0.34       1.0  T
   3   -394.1016255  0.548968E-04  0.158E-02    0.34       1.0  T
   4   -394.1016852 -0.597103E-04  0.427E-03    0.34       1.6  T
   5   -394.1016864 -0.120670E-05  0.224E-03    0.34       3.0  T
   6   -394.1016873 -0.880156E-06  0.598E-04    0.34      11.3  T
   7   -394.1016874 -0.535449E-07  0.349E-04    0.34      19.4  T
     SCC iter.                  ...        0 min,  0.329 sec
     gradient                   ...        0 min,  0.173 sec
 * total energy  :  -388.1757647 Eh     change       -0.5782842E-03 Eh
   gradient norm :     0.0080852 Eh/α   predicted    -0.4752233E-03 ( -17.82%)
   displ. norm   :     0.7235080 α      lambda       -0.7581617E-03
   maximum displ.:     0.2210440 α      in ANC's #2, #13, #9, ...

........................................................................
.............................. CYCLE   51 ..............................
........................................................................
   1   -394.1015160 -0.394102E+03  0.784E-02    0.34       0.0  T
   2   -394.1015270 -0.110232E-04  0.415E-02    0.34       1.0  T
   3   -394.1014518  0.751461E-04  0.187E-02    0.34       1.0  T
   4   -394.1015328 -0.809531E-04  0.611E-03    0.34       1.1  T
   5   -394.1015359 -0.308292E-05  0.284E-03    0.34       2.4  T
   6   -394.1015372 -0.137241E-05  0.790E-04    0.34       8.6  T
   7   -394.1015374 -0.103735E-06  0.441E-04    0.34      15.3  T
   8   -394.1015374 -0.158831E-07  0.315E-04    0.34      21.5  T
     SCC iter.                  ...        0 min,  0.401 sec
     gradient                   ...        0 min,  0.173 sec
 * total energy  :  -388.1763325 Eh     change       -0.5678335E-03 Eh
   gradient norm :     0.0081059 Eh/α   predicted    -0.5775171E-03 (   1.71%)
   displ. norm   :     0.6556124 α      lambda       -0.7610001E-03
   maximum displ.:     0.2156569 α      in ANC's #2, #13, #9, ...

........................................................................
.............................. CYCLE   52 ..............................
........................................................................
   1   -394.1065947 -0.394107E+03  0.602E-02    0.34       0.0  T
   2   -394.1066008 -0.609018E-05  0.328E-02    0.34       1.0  T
   3   -394.1065512  0.495397E-04  0.150E-02    0.34       1.0  T
   4   -394.1066054 -0.541560E-04  0.427E-03    0.34       1.6  T
   5   -394.1066063 -0.948566E-06  0.222E-03    0.34       3.0  T
   6   -394.1066073 -0.101787E-05  0.693E-04    0.34       9.8  T
   7   -394.1066074 -0.845636E-07  0.416E-04    0.34      16.3  T
   8   -394.1066074 -0.132625E-07  0.285E-04    0.34      23.8  T
     SCC iter.                  ...        0 min,  0.390 sec
     gradient                   ...        0 min,  0.173 sec
 * total energy  :  -388.1769275 Eh     change       -0.5949736E-03 Eh
   gradient norm :     0.0085595 Eh/α   predicted    -0.5440544E-03 (  -8.56%)
   displ. norm   :     0.7301455 α      lambda       -0.7519381E-03
   maximum displ.:     0.2415400 α      in ANC's #2, #13, #9, ...

........................................................................
.............................. CYCLE   53 ..............................
........................................................................
   1   -394.1063674 -0.394106E+03  0.641E-02    0.34       0.0  T
   2   -394.1063737 -0.623206E-05  0.346E-02    0.35       1.0  T
   3   -394.1063267  0.469873E-04  0.148E-02    0.34       1.0  T
   4   -394.1063767 -0.500593E-04  0.499E-03    0.35       1.4  T
   5   -394.1063787 -0.194923E-05  0.239E-03    0.35       2.8  T
   6   -394.1063798 -0.107642E-05  0.662E-04    0.34      10.2  T
   7   -394.1063798 -0.795745E-07  0.384E-04    0.34      17.6  T
   8   -394.1063799 -0.145462E-07  0.263E-04    0.34      25.7  T
     SCC iter.                  ...        0 min,  0.395 sec
     gradient                   ...        0 min,  0.173 sec
 * total energy  :  -388.1775695 Eh     change       -0.6419864E-03 Eh
   gradient norm :     0.0087155 Eh/α   predicted    -0.5764062E-03 ( -10.22%)
   displ. norm   :     0.7755521 α      lambda       -0.8637499E-03
   maximum displ.:     0.2577884 α      in ANC's #2, #13, #10, ...

........................................................................
.............................. CYCLE   54 ..............................
........................................................................
   1   -394.1015924 -0.394102E+03  0.764E-02    0.35       0.0  T
   2   -394.1016040 -0.115986E-04  0.403E-02    0.35       1.0  T
   3   -394.1015721  0.318514E-04  0.134E-02    0.34       1.0  T
   4   -394.1016049 -0.328194E-04  0.610E-03    0.35       1.1  T
   5   -394.1016089 -0.397972E-05  0.285E-03    0.35       2.4  T
   6   -394.1016103 -0.137965E-05  0.852E-04    0.35       8.0  T
   7   -394.1016104 -0.119972E-06  0.452E-04    0.35      15.0  T
   8   -394.1016104 -0.156832E-07  0.330E-04    0.35      20.5  T
     SCC iter.                  ...        0 min,  0.385 sec
     gradient                   ...        0 min,  0.173 sec
 * total energy  :  -388.1782601 Eh     change       -0.6906731E-03 Eh
   gradient norm :     0.0063532 Eh/α   predicted    -0.6916438E-03 (   0.14%)
   displ. norm   :     0.7193726 α      lambda       -0.9003471E-03
   maximum displ.:     0.2439336 α      in ANC's #2, #13, #10, ...

........................................................................
.............................. CYCLE   55 ..............................
........................................................................
   1   -394.1095968 -0.394110E+03  0.665E-02    0.35       0.0  T
   2   -394.1096069 -0.100933E-04  0.364E-02    0.35       1.0  T
   3   -394.1095854  0.215009E-04  0.109E-02    0.34       1.0  T
   4   -394.1096082 -0.228795E-04  0.478E-03    0.35       1.4  T
   5   -394.1096111 -0.283796E-05  0.221E-03    0.35       3.1  T
   6   -394.1096119 -0.812627E-06  0.104E-03    0.35       6.5  T
   7   -394.1096121 -0.191875E-06  0.577E-04    0.35      11.7  T
   8   -394.1096121 -0.158640E-07  0.420E-04    0.35      16.1  T
     SCC iter.                  ...        0 min,  0.388 sec
     gradient                   ...        0 min,  0.173 sec
 * total energy  :  -388.1788406 Eh     change       -0.5804226E-03 Eh
   gradient norm :     0.0132044 Eh/α   predicted    -0.6831514E-03 (  17.70%)
   displ. norm   :     0.7445979 α      lambda       -0.7951946E-03
   maximum displ.:     0.2532482 α      in ANC's #2, #13, #7, ...

........................................................................
.............................. CYCLE   56 ..............................
........................................................................
   1   -394.1012183 -0.394101E+03  0.664E-02    0.35       0.0  T
[...]
   175   1 H    0.998 --    64 C    0.962
   176   1 H    0.998 --    65 C    0.958
   177   1 H    0.996 --    68 C    0.982
   178   1 H    0.997 --    68 C    0.982
   179   1 H    0.996 --    68 C    0.979
   180   1 H    0.998 --    69 C    0.965
   181   1 H    0.998 --    70 C    0.967
   182   1 H    0.999 --    77 C    0.960
   183   1 H    0.998 --    78 C    0.965
   184   1 H    0.997 --    81 C    0.982
   185   1 H    0.996 --    81 C    0.980
   186   1 H    0.997 --    81 C    0.984
   187   1 H    0.998 --    82 C    0.966
   188   1 H    0.998 --    83 C    0.966
   189   1 H    0.998 --    85 C    0.967
   190   1 H    0.997 --    86 C    0.967
   191   1 H    0.997 --    89 C    0.983
   192   1 H    0.996 --    89 C    0.979
   193   1 H    0.996 --    89 C    0.982
   194   1 H    0.998 --    90 C    0.963
   195   1 H    0.998 --    91 C    0.960
   196   1 H    0.998 --    95 C    0.960
   197   1 H    0.998 --    99 C    0.964
   198   1 H    0.997 --   100 C    0.968
   199   1 H    0.997 --   103 C    0.971
   200   1 H    0.999 --   103 C    0.967
   201   1 H    0.998 --   104 C    0.985
   202   1 H    0.998 --   104 C    0.980
   203   1 H    0.998 --   104 C    0.985
   204   1 H    0.998 --   105 C    0.961
   205   1 H    0.998 --   108 C    0.960
   206   1 H    0.998 --   111 C    0.961
   207   1 H    0.998 --   111 C    0.972
   208   1 H    0.997 --   112 C    0.987
   209   1 H    0.998 --   112 C    0.985
   210   1 H    0.998 --   112 C    0.984
   211   1 H    0.997 --   113 C    0.968
   212   1 H    0.998 --   114 C    0.968
   213   1 H    0.997 --   119 C    0.968
   214   1 H    0.997 --   120 C    0.969
   215   1 H    0.997 --   121 C    0.967
   216   1 H    0.997 --   122 C    0.969
   217   1 H    0.997 --   124 C    0.965
   218   1 H    0.994 --   125 C    0.949
 ---------------------------------------------------------------------------

Topologies differ in bond orders
Writing corrected topology to xtbtopo.mol

molecular dipole:
                 x           y           z       tot (Debye)
 q only:        0.907      -4.503       2.674
   full:        1.214      -5.082       2.265      14.474
molecular quadrupole (traceless):
                xx          xy          yy          xz          yz          zz
 q only:       77.036      29.610     -49.390     -20.641     -10.105     -27.646
  q+dip:       87.549      14.614     -75.325     -44.737     -11.905     -12.224
   full:       79.585      12.866     -74.131     -41.683     -10.009      -5.455

           -------------------------------------------------
          |                Geometry Summary                 |
           -------------------------------------------------

      molecular mass/u    :     2147.9033256
   center of mass at/Å    :        0.0528749       0.1026380      -0.9287966
  moments of inertia/u·Å² :        0.5630687E+05   0.1017961E+06   0.1244836E+06
rotational constants/cm⁻¹ :        0.2993885E-03   0.1656019E-03   0.1354205E-03

 * 202 selected distances

     #   Z          #   Z                                           value/Å
     1   6 C        2   6 C                                       1.3561447
     3   6 C        4   8 O                                       1.2065054
     5   6 C        6   6 C                                       1.3839387
     6   6 C        7  17 Cl                                      1.7107171
     6   6 C        8   6 C                                       1.4021795
     8   6 C        9  17 Cl                                      1.7078561
     8   6 C       10   6 C                                       1.3948989
    10   6 C       11  17 Cl                                      1.7104815
    10   6 C       12   6 C                                       1.4041510
    12   6 C       13  17 Cl                                      1.7149663
     5   6 C       14   6 C                                       1.4092657
    12   6 C       14   6 C                                       1.3901114
    15   6 C       16   6 C                                       1.3666726
    17   6 C       18   7 N                                       1.1469531
    19   6 C       20   7 N                                       1.1477143
    21   6 C       22   6 C                                       1.4027688
    22   6 C       23   6 C                                       1.3673513
    25   6 C       26   6 C                                       1.3810011
    26   6 C       27   6 C                                       1.3821919
    27   6 C       28   6 C                                       1.3996973
    28   6 C       29   8 O                                       1.3593845
    29   8 O       30   6 C                                       1.4137327
    30   6 C       31   6 C                                       1.5200276
    28   6 C       32   6 C                                       1.3920263
    25   6 C       33   6 C                                       1.3980760
    32   6 C       33   6 C                                       1.3876306
    34   6 C       35   6 C                                       1.3854518
    35   6 C       36   6 C                                       1.3916755
    36   6 C       37   8 O                                       1.3630239
    37   8 O       38   6 C                                       1.4129176
    38   6 C       39   6 C                                       1.5260933
    36   6 C       40   6 C                                       1.3992952
    40   6 C       41   6 C                                       1.3820738
    34   6 C       42   6 C                                       1.3996239
    41   6 C       42   6 C                                       1.3791716
    43   6 C       44   6 C                                       1.4045764
    23   6 C       45   6 C                                       1.4111449
    45   6 C       46   6 C                                       1.3897199
    21   6 C       47   6 C                                       1.4024643
    46   6 C       47   6 C                                       1.3811623
    44   6 C       48   6 C                                       1.3919403
    48   6 C       49   6 C                                       1.3831908
    49   6 C       50   6 C                                       1.4003355
    43   6 C       51   6 C                                       1.3661613
    50   6 C       51   6 C                                       1.4021827
    52   6 C       53   6 C                                       1.3936391
    53   6 C       54   7 N                                       1.3795023
    54   7 N       55   6 C                                       1.4111045
    55   6 C       56   6 C                                       1.3939609
    56   6 C       57   6 C                                       1.3768043
    57   6 C       58   6 C                                       1.3934818
    58   6 C       61   6 C                                       1.3887266
    55   6 C       62   6 C                                       1.3903069
    61   6 C       62   6 C                                       1.3808360
    54   7 N       63   6 C                                       1.3996409
    63   6 C       64   6 C                                       1.3942680
    64   6 C       65   6 C                                       1.3770540
    65   6 C       66   6 C                                       1.3911179
    66   6 C       69   6 C                                       1.3883947
    63   6 C       70   6 C                                       1.3939415
    69   6 C       70   6 C                                       1.3798311
    53   6 C       71   6 C                                       1.4168853
    71   6 C       72  16 S                                       1.7380994
    72  16 S       73   6 C                                       1.7498144 (max)
    73   6 C       74   6 C                                       1.3826736
    74   6 C       75   7 N                                       1.3946715
    75   7 N       76   6 C                                       1.3932791
    76   6 C       77   6 C                                       1.3966846
    77   6 C       78   6 C                                       1.3771526
    78   6 C       79   6 C                                       1.3888654
    79   6 C       82   6 C                                       1.3881647
    76   6 C       83   6 C                                       1.3951304
    82   6 C       83   6 C                                       1.3790203
    75   7 N       84   6 C                                       1.4053189
    84   6 C       85   6 C                                       1.3954666
    85   6 C       86   6 C                                       1.3760238
    86   6 C       87   6 C                                       1.3935973
    87   6 C       90   6 C                                       1.3869291
    84   6 C       91   6 C                                       1.3897071
    90   6 C       91   6 C                                       1.3810606
    71   6 C       92   6 C                                       1.3915127
    74   6 C       92   6 C                                       1.4100123
    92   6 C       93  16 S                                       1.7281720
    94   6 C       95   6 C                                       1.4014791
    95   6 C       96   6 C                                       1.3672185
    98   6 C       99   6 C                                       1.3786565
    99   6 C      100   6 C                                       1.3822277
   100   6 C      101   6 C                                       1.3991234
   101   6 C      102   8 O                                       1.3619482
   102   8 O      103   6 C                                       1.4131182
   103   6 C      104   6 C                                       1.5256232
   101   6 C      105   6 C                                       1.3922307
    98   6 C      106   6 C                                       1.4009046
   105   6 C      106   6 C                                       1.3866629
   107   6 C      108   6 C                                       1.3852174
   108   6 C      109   6 C                                       1.3921474
   109   6 C      110   8 O                                       1.3636090
   110   8 O      111   6 C                                       1.4143689
   111   6 C      112   6 C                                       1.5252544
   109   6 C      113   6 C                                       1.3981526
   113   6 C      114   6 C                                       1.3831012
   107   6 C      115   6 C                                       1.3987502
   114   6 C      115   6 C                                       1.3777253
   116   6 C      117   6 C                                       1.4095683
    96   6 C      118   6 C                                       1.4048376
   118   6 C      119   6 C                                       1.3897128
    94   6 C      120   6 C                                       1.3949017
   119   6 C      120   6 C                                       1.3852072
   117   6 C      121   6 C                                       1.3910011
   121   6 C      122   6 C                                       1.3794689
   122   6 C      123   6 C                                       1.4054517
   116   6 C      124   6 C                                       1.3691768
   123   6 C      124   6 C                                       1.4037334
   125   6 C      126   6 C                                       1.3620178
   127   6 C      128   8 O                                       1.2084749
   129   6 C      130   6 C                                       1.3844450
   130   6 C      131  17 Cl                                      1.7071414
   130   6 C      132   6 C                                       1.4015459
   132   6 C      133  17 Cl                                      1.7087513
   132   6 C      134   6 C                                       1.3947542
   134   6 C      135  17 Cl                                      1.7100829
   134   6 C      136   6 C                                       1.4046283
   136   6 C      137  17 Cl                                      1.7148042
   129   6 C      138   6 C                                       1.4092716
   136   6 C      138   6 C                                       1.3901777
   139   6 C      140   6 C                                       1.3691103
   141   6 C      142   7 N                                       1.1477539
   143   6 C      144   7 N                                       1.1474903
     1   6 C      145   1 H                                       1.0825246
    22   6 C      146   1 H                                       1.0790030
    26   6 C      147   1 H                                       1.0801470
    27   6 C      148   1 H                                       1.0780327
    30   6 C      149   1 H                                       1.0975036
    30   6 C      150   1 H                                       1.0993962
    31   6 C      151   1 H                                       1.0859170
    31   6 C      152   1 H                                       1.0864501
    31   6 C      153   1 H                                       1.0864907
    32   6 C      154   1 H                                       1.0780703
    35   6 C      155   1 H                                       1.0783625
    38   6 C      156   1 H                                       1.0971642
    38   6 C      157   1 H                                       1.0936164
    39   6 C      158   1 H                                       1.0876914
    39   6 C      159   1 H                                       1.0865591
    39   6 C      160   1 H                                       1.0874987
    40   6 C      161   1 H                                       1.0784857
    41   6 C      162   1 H                                       1.0786758
    46   6 C      163   1 H                                       1.0795813
    47   6 C      164   1 H                                       1.0803213
    48   6 C      165   1 H                                       1.0797907
    49   6 C      166   1 H                                       1.0803692
    51   6 C      167   1 H                                       1.0773520
    56   6 C      168   1 H                                       1.0799122
    57   6 C      169   1 H                                       1.0789919
    60   6 C      170   1 H                                       1.0860430
    60   6 C      171   1 H                                       1.0855524
    60   6 C      172   1 H                                       1.0861159
    61   6 C      173   1 H                                       1.0778587
    62   6 C      174   1 H                                       1.0799689
    64   6 C      175   1 H                                       1.0798135
    65   6 C      176   1 H                                       1.0779934
    68   6 C      177   1 H                                       1.0861238
    68   6 C      178   1 H                                       1.0860040
    68   6 C      179   1 H                                       1.0855918
    69   6 C      180   1 H                                       1.0778489
    70   6 C      181   1 H                                       1.0799065
    77   6 C      182   1 H                                       1.0793987
    78   6 C      183   1 H                                       1.0791978
    81   6 C      184   1 H                                       1.0863189
    81   6 C      185   1 H                                       1.0855078
    81   6 C      186   1 H                                       1.0856211
    82   6 C      187   1 H                                       1.0784966
    83   6 C      188   1 H                                       1.0792556
    85   6 C      189   1 H                                       1.0798459
    86   6 C      190   1 H                                       1.0792105
    89   6 C      191   1 H                                       1.0860669
    89   6 C      192   1 H                                       1.0855997
    89   6 C      193   1 H                                       1.0861181
    90   6 C      194   1 H                                       1.0772866 (min)
    91   6 C      195   1 H                                       1.0785122
    95   6 C      196   1 H                                       1.0776690
    99   6 C      197   1 H                                       1.0782965
   100   6 C      198   1 H                                       1.0784543
   103   6 C      199   1 H                                       1.0943080
   103   6 C      200   1 H                                       1.0969353
   104   6 C      201   1 H                                       1.0866939
   104   6 C      202   1 H                                       1.0866039
   104   6 C      203   1 H                                       1.0876378
   105   6 C      204   1 H                                       1.0786574
   108   6 C      205   1 H                                       1.0782529
   111   6 C      206   1 H                                       1.0958600
   111   6 C      207   1 H                                       1.0940662
   112   6 C      208   1 H                                       1.0874019
   112   6 C      209   1 H                                       1.0865129
   112   6 C      210   1 H                                       1.0876463
   113   6 C      211   1 H                                       1.0787945
   114   6 C      212   1 H                                       1.0792843
   119   6 C      213   1 H                                       1.0798715
   120   6 C      214   1 H                                       1.0803615
   121   6 C      215   1 H                                       1.0797353
   122   6 C      216   1 H                                       1.0804583
   124   6 C      217   1 H                                       1.0774199
   125   6 C      218   1 H                                       1.0835438

 * 6 distinct bonds (by element types)

   Z      Z             #   av. dist./Å        max./Å        min./Å
   1 H    6 C          74     1.0833464     1.0993962     1.0772866
   6 C    6 C          97     1.3955581     1.5260933     1.3561447
   6 C    7 N          10     1.2973429     1.4111045     1.1469531
   6 C    8 O          10     1.3517083     1.4143689     1.2065054
   6 C   16 S           3     1.7386952     1.7498144     1.7281720
   6 C   17 Cl          8     1.7106001     1.7149663     1.7071414


optimized geometry written to: xtbopt.mol


           -------------------------------------------------
          | TOTAL ENERGY             -388.199780907835 Eh   |
          | GRADIENT NORM               0.000869435507 Eh/α |
          | HOMO-LUMO GAP               0.285756836631 eV   |
           -------------------------------------------------

------------------------------------------------------------------------
 * finished run on 2022/02/04 at 01:38:19.452     
------------------------------------------------------------------------
 total:
 * wall-time:     0 d,  0 h,  1 min, 50.155 sec
 *  cpu-time:     0 d,  0 h, 14 min, 41.077 sec
 * ratio c/w:     7.998 speedup
 SCF:
 * wall-time:     0 d,  0 h,  0 min,  1.222 sec
 *  cpu-time:     0 d,  0 h,  0 min,  9.755 sec
 * ratio c/w:     7.984 speedup
 ANC optimizer:
 * wall-time:     0 d,  0 h,  1 min, 48.819 sec
 *  cpu-time:     0 d,  0 h, 14 min, 30.500 sec
 * ratio c/w:     7.999 speedup

