      -----------------------------------------------------------      
     |                   =====================                   |     
     |                           x T B                           |     
     |                   =====================                   |     
     |                         S. Grimme                         |     
     |          Mulliken Center for Theoretical Chemistry        |     
     |                    University of Bonn                     |     
      -----------------------------------------------------------      

   * xtb version 6.4.1 (unknown) compiled by 'oda6@login1.crc.pitt.edu' on 2021-06-25

   xtb is free software: you can redistribute it and/or modify it under
   the terms of the GNU Lesser General Public License as published by
   the Free Software Foundation, either version 3 of the License, or
   (at your option) any later version.
   
   xtb is distributed in the hope that it will be useful,
   but WITHOUT ANY WARRANTY; without even the implied warranty of
   MERCHANTABILITY or FITNESS FOR A PARTICULAR PURPOSE.  See the
   GNU Lesser General Public License for more details.
   
   Cite this work as:
   * C. Bannwarth, E. Caldeweyher, S. Ehlert, A. Hansen, P. Pracht,
     J. Seibert, S. Spicher, S. Grimme, WIREs Comput. Mol. Sci., 2020, 11,
     e01493. DOI: 10.1002/wcms.1493
   
   for GFN2-xTB:
   * C. Bannwarth, S. Ehlert and S. Grimme., J. Chem. Theory Comput., 2019,
     15, 1652-1671. DOI: 10.1021/acs.jctc.8b01176
   for GFN1-xTB:
   * S. Grimme, C. Bannwarth, P. Shushkov, J. Chem. Theory Comput., 2017,
     13, 1989-2009. DOI: 10.1021/acs.jctc.7b00118
   for GFN0-xTB:
   * P. Pracht, E. Caldeweyher, S. Ehlert, S. Grimme, ChemRxiv, 2019, preprint.
     DOI: 10.26434/chemrxiv.8326202.v1
   for GFN-FF:
   * S. Spicher and S. Grimme, Angew. Chem. Int. Ed., 2020, 59, 15665-15673.
     DOI: 10.1002/anie.202004239
   
   for DFT-D4:
   * E. Caldeweyher, C. Bannwarth and S. Grimme, J. Chem. Phys., 2017,
     147, 034112. DOI: 10.1063/1.4993215
   * E. Caldeweyher, S. Ehlert, A. Hansen, H. Neugebauer, S. Spicher,
     C. Bannwarth and S. Grimme, J. Chem. Phys., 2019, 150, 154122.
     DOI: 10.1063/1.5090222
   * E. Caldeweyher, J.-M. Mewes, S. Ehlert and S. Grimme, Phys. Chem. Chem. Phys.
     2020, 22, 8499-8512. DOI: 10.1039/D0CP00502A
   
   for sTDA-xTB:
   * S. Grimme and C. Bannwarth, J. Chem. Phys., 2016, 145, 054103.
     DOI: 10.1063/1.4959605
   
   in the mass-spec context:
   * V. Asgeirsson, C. Bauer and S. Grimme, Chem. Sci., 2017, 8, 4879.
     DOI: 10.1039/c7sc00601b
   * J. Koopman and S. Grimme, ACS Omega 2019, 4, 12, 15120-15133.
     DOI: 10.1021/acsomega.9b02011
   
   for metadynamics refer to:
   * S. Grimme, J. Chem. Theory Comput., 2019, 155, 2847-2862
     DOI: 10.1021/acs.jctc.9b00143
   
   for SPH calculations refer to:
   * S. Spicher and S. Grimme, J. Chem. Theory Comput., 2021, 17, 1701-1714
     DOI: 10.1021/acs.jctc.0c01306
   
   with help from (in alphabetical order)
   P. Atkinson, C. Bannwarth, F. Bohle, G. Brandenburg, E. Caldeweyher
   M. Checinski, S. Dohm, S. Ehlert, S. Ehrlich, I. Gerasimov, J. Koopman
   C. Lavigne, S. Lehtola, F. März, M. Müller, F. Musil, H. Neugebauer
   J. Pisarek, C. Plett, P. Pracht, J. Seibert, P. Shushkov, S. Spicher
   M. Stahn, M. Steiner, T. Strunk, J. Stückrath, T. Rose, and J. Unsleber
   
 * started run on 2022/02/04 at 05:16:53.591     

           -------------------------------------------------
          |                Calculation Setup                |
           -------------------------------------------------

          program call               : /ihome/ghutchison/oda6/xtb/xtb-641/bin/xtb ../../FF_optimized/65_158_130_158_65.mol -opt
          hostname                   : smp-n57
          coordinate file            : ../../FF_optimized/65_158_130_158_65.mol
          omp threads                :                     8
          number of atoms            :                   200
          number of electrons        :                   684
          charge                     :                     0
          spin                       :                   0.0
          first test random number   :      0.71496907285059

   ID    Z sym.   atoms
    1    6 C      1-3, 5, 6, 8, 10, 12, 14-17, 19, 21-28, 30, 31, 33-39, 41,
                  42, 44, 46, 47, 49, 50, 52-55, 57-63, 65-68, 70, 71, 73-76,
                  78-84, 86-89, 91-98, 100, 101, 103-109, 111, 112, 114, 116,
                  117, 119-121, 123, 124, 126, 128, 130, 132-135, 137
    2    8 O      4, 122
    3   17 Cl     7, 9, 11, 13, 125, 127, 129, 131
    4    7 N      18, 20, 51, 72, 136, 138
    5   16 S      29, 32, 40, 43, 45, 48, 56, 64, 69, 77, 85, 90, 99, 102,
                  110, 113, 115, 118
    6    1 H      139-200
########################################################################
[WARNING] Please study the warnings concerning your input carefully
-1- prog_main_parseArguments: the use of '-opt' is discouraged, please use '--opt' next time
########################################################################

           -------------------------------------------------
          |                 G F N 2 - x T B                 |
           -------------------------------------------------

        Reference                      10.1021/acs.jctc.8b01176
      * Hamiltonian:
        H0-scaling (s, p, d)           1.850000    2.230000    2.230000
        zeta-weighting                 0.500000
      * Dispersion:
        s8                             2.700000
        a1                             0.520000
        a2                             5.000000
        s9                             5.000000
      * Repulsion:
        kExp                           1.500000    1.000000
        rExp                           1.000000
      * Coulomb:
        alpha                          2.000000
        third order                    shell-resolved
        anisotropic                    true
        a3                             3.000000
        a5                             4.000000
        cn-shift                       1.200000
        cn-exp                         4.000000
        max-rad                        5.000000


          ...................................................
          :                      SETUP                      :
          :.................................................:
          :  # basis functions                 770          :
          :  # atomic orbitals                 744          :
          :  # shells                          364          :
          :  # electrons                       684          :
          :  max. iterations                   250          :
          :  Hamiltonian                  GFN2-xTB          :
          :  restarted?                      false          :
          :  GBSA solvation                  false          :
          :  PC potential                    false          :
          :  electronic temp.          300.0000000     K    :
          :  accuracy                    1.0000000          :
          :  -> integral cutoff          0.2500000E+02      :
          :  -> integral neglect         0.1000000E-07      :
          :  -> SCF convergence          0.1000000E-05 Eh   :
          :  -> wf. convergence          0.1000000E-03 e    :
          :  Broyden damping             0.4000000          :
          ...................................................

 iter      E             dE          RMSdq      gap      omega  full diag
   1   -379.0169621 -0.379017E+03  0.499E+00    1.21       0.0  T
   2   -379.2428244 -0.225862E+00  0.297E+00    0.83       1.0  T
   3   -378.2373366  0.100549E+01  0.236E+00    0.01       1.0  T
   4   -379.2307972 -0.993461E+00  0.109E+00    0.11       1.0  T
   5   -379.4362659 -0.205469E+00  0.562E-01    0.74       1.0  T
   6   -379.4515738 -0.153079E-01  0.376E-01    0.61       1.0  T
   7   -379.4572980 -0.572414E-02  0.267E-01    0.60       1.0  T
   8   -379.4624501 -0.515212E-02  0.138E-01    0.53       1.0  T
   9   -379.4639525 -0.150241E-02  0.809E-02    0.28       1.0  T
  10   -379.4588874  0.506510E-02  0.180E-01    0.12       1.0  T
  11   -379.4644015 -0.551407E-02  0.453E-02    0.22       1.0  T
  12   -379.4644539 -0.524147E-04  0.330E-02    0.25       1.0  T
  13   -379.4645350 -0.810801E-04  0.205E-02    0.21       1.0  T
  14   -379.4645540 -0.190351E-04  0.148E-02    0.23       1.0  T
  15   -379.4645367  0.172840E-04  0.170E-02    0.20       1.0  T
  16   -379.4645770 -0.402248E-04  0.803E-03    0.21       1.0  T
  17   -379.4645842 -0.722366E-05  0.353E-03    0.22       2.0  T
  18   -379.4645854 -0.125307E-05  0.216E-03    0.22       3.3  T
  19   -379.4645857 -0.292696E-06  0.157E-03    0.22       4.5  T
  20   -379.4645859 -0.201246E-06  0.109E-03    0.22       6.5  T
  21   -379.4645859 -0.132962E-07  0.100E-03    0.22       7.1  T
  22   -379.4645861 -0.116841E-06  0.527E-04    0.22      13.4  T
  23   -379.4645861 -0.284215E-07  0.256E-04    0.22      27.6  T

   *** convergence criteria satisfied after 23 iterations ***

         #    Occupation            Energy/Eh            Energy/eV
      -------------------------------------------------------------
         1        2.0000           -1.0894718             -29.6460
       ...           ...                  ...                  ...
       336        2.0000           -0.3732164             -10.1557
       337        2.0000           -0.3723241             -10.1315
       338        2.0000           -0.3716567             -10.1133
       339        2.0000           -0.3715676             -10.1109
       340        1.9997           -0.3683574             -10.0235
       341        1.9843           -0.3645311              -9.9194
       342        1.9795           -0.3642791              -9.9125 (HOMO)
       343        0.0365           -0.3561498              -9.6913 (LUMO)
       344        0.0000           -0.3473757              -9.4526
       345        0.0000           -0.3463069              -9.4235
       346        0.0000           -0.3440208              -9.3613
       347                         -0.3118267              -8.4852
       ...                                ...                  ...
       744                          1.0687167              29.0813
      -------------------------------------------------------------
                  HL-Gap            0.0081294 Eh            0.2212 eV
             Fermi-level           -0.3599357 Eh           -9.7943 eV

 SCC (total)                   0 d,  0 h,  0 min,  1.439 sec
 SCC setup                      ...        0 min,  0.002 sec (  0.131%)
 Dispersion                     ...        0 min,  0.014 sec (  0.951%)
 classical contributions        ...        0 min,  0.000 sec (  0.026%)
 integral evaluation            ...        0 min,  0.064 sec (  4.454%)
 iterations                     ...        0 min,  1.202 sec ( 83.543%)
 molecular gradient             ...        0 min,  0.152 sec ( 10.536%)
 printout                       ...        0 min,  0.005 sec (  0.353%)

         :::::::::::::::::::::::::::::::::::::::::::::::::::::
         ::                     SUMMARY                     ::
         :::::::::::::::::::::::::::::::::::::::::::::::::::::
         :: total energy            -374.507603926048 Eh    ::
         :: gradient norm              0.353642988775 Eh/a0 ::
         :: HOMO-LUMO gap              0.221210941744 eV    ::
         ::.................................................::
         :: SCC energy              -379.464586080085 Eh    ::
         :: -> isotropic ES            0.136293993588 Eh    ::
         :: -> anisotropic ES          0.022328911016 Eh    ::
         :: -> anisotropic XC          0.211092334926 Eh    ::
         :: -> dispersion             -0.376296003510 Eh    ::
         :: repulsion energy           4.944796650457 Eh    ::
         :: add. restraining           0.000000000000 Eh    ::
         :: total charge              -0.000000000000 e     ::
         :::::::::::::::::::::::::::::::::::::::::::::::::::::

      ----------------------------------------------------------- 
     |                   =====================                   |
     |                        A N C O P T                        |
     |                   =====================                   |
     |               Approximate Normal Coordinate               |
     |                Rational Function Optimizer                |
      ----------------------------------------------------------- 

          ...................................................
          :                      SETUP                      :
          :.................................................:
          :   optimization level            normal          :
          :   max. optcycles                   600          :
          :   ANC micro-cycles                  20          :
          :   degrees of freedom               594          :
          :.................................................:
          :   RF solver                   davidson          :
          :   write xtbopt.log                true          :
          :   linear?                        false          :
          :   energy convergence         0.5000000E-05 Eh   :
          :   grad. convergence          0.1000000E-02 Eh/α :
          :   maximium RF displ.         1.0000000          :
          :   Hlow (freq-cutoff)         0.1000000E-01      :
          :   Hmax (freq-cutoff)         5.0000000          :
          :   S6 in model hess.         20.0000000          :
          ...................................................

generating ANC from model Hessian ...
Using Lindh-Hessian (1995)
 Shifting diagonal of input Hessian by   1.001648469595517E-002
 Lowest  eigenvalues of input Hessian
    0.010000    0.010011    0.000000    0.000000    0.000000    0.000000
    0.000000    0.000000    0.010023    0.010033    0.010038    0.010057
    0.010078    0.010080    0.010085    0.010092    0.010110    0.010121
 Highest eigenvalues
    2.126869    2.138805    2.485454    2.502041    2.548872    2.558118
 

........................................................................
.............................. CYCLE    1 ..............................
........................................................................
   1   -379.4645861 -0.379465E+03  0.136E-04    0.22       0.0  T
   2   -379.4645861  0.642217E-09  0.125E-04    0.22      56.4  T
   3   -379.4645861 -0.137067E-08  0.965E-05    0.22      73.2  T
     SCC iter.                  ...        0 min,  0.159 sec
     gradient                   ...        0 min,  0.148 sec
 * total energy  :  -374.5076039 Eh     change       -0.7463200E-08 Eh
   gradient norm :     0.3536422 Eh/α   predicted     0.0000000E+00 (-100.00%)
   displ. norm   :     0.4793027 α      lambda       -0.1244619E+00
   maximum displ.:     0.0781328 α      in ANC's #307, #326, #508, ...

........................................................................
.............................. CYCLE    2 ..............................
........................................................................
   1   -379.6836693 -0.379684E+03  0.281E-01    0.22       0.0  T
   2   -379.6852510 -0.158167E-02  0.169E-01    0.26       1.0  T
   3   -379.6809411  0.430994E-02  0.162E-01    0.14       1.0  T
   4   -379.6845854 -0.364431E-02  0.864E-02    0.43       1.0  T
   5   -379.6858199 -0.123448E-02  0.540E-02    0.30       1.0  T
   6   -379.6857741  0.457759E-04  0.430E-02    0.30       1.0  T
   7   -379.6860345 -0.260449E-03  0.210E-02    0.25       1.0  T
   8   -379.6860649 -0.303730E-04  0.158E-02    0.20       1.0  T
   9   -379.6860969 -0.320269E-04  0.726E-03    0.22       1.0  T
  10   -379.6861012 -0.426579E-05  0.449E-03    0.22       1.6  T
  11   -379.6861020 -0.764849E-06  0.294E-03    0.22       2.4  T
  12   -379.6861023 -0.324823E-06  0.234E-03    0.22       3.0  T
  13   -379.6861028 -0.489672E-06  0.123E-03    0.22       5.8  T
  14   -379.6861029 -0.154867E-06  0.582E-04    0.22      12.1  T
  15   -379.6861029 -0.170235E-07  0.418E-04    0.22      16.9  T
     SCC iter.                  ...        0 min,  0.775 sec
     gradient                   ...        0 min,  0.148 sec
 * total energy  :  -374.6008018 Eh     change       -0.9319785E-01 Eh
   gradient norm :     0.1838087 Eh/α   predicted    -0.7656637E-01 ( -17.85%)
   displ. norm   :     0.4842947 α      lambda       -0.6202014E-01
   maximum displ.:     0.0912149 α      in ANC's #123, #205, #508, ...

........................................................................
.............................. CYCLE    3 ..............................
........................................................................
   1   -379.8243092 -0.379824E+03  0.254E-01    0.21       0.0  T
   2   -379.8257741 -0.146496E-02  0.153E-01    0.27       1.0  T
   3   -379.8202548  0.551932E-02  0.186E-01    0.12       1.0  T
   4   -379.8257778 -0.552298E-02  0.830E-02    0.35       1.0  T
   5   -379.8265496 -0.771821E-03  0.554E-02    0.27       1.0  T
   6   -379.8264355  0.114075E-03  0.473E-02    0.30       1.0  T
   7   -379.8267178 -0.282309E-03  0.287E-02    0.27       1.0  T
   8   -379.8268218 -0.103957E-03  0.903E-03    0.22       1.0  T
   9   -379.8268243 -0.255524E-05  0.723E-03    0.21       1.0  T
  10   -379.8268167  0.767804E-05  0.100E-02    0.21       1.0  T
  11   -379.8268295 -0.128788E-04  0.329E-03    0.22       2.2  T
  12   -379.8268306 -0.102368E-05  0.164E-03    0.22       4.3  T
  13   -379.8268308 -0.240673E-06  0.105E-03    0.22       6.7  T
  14   -379.8268309 -0.100578E-06  0.672E-04    0.22      10.5  T
  15   -379.8268309 -0.302248E-07  0.455E-04    0.22      15.6  T
     SCC iter.                  ...        0 min,  0.789 sec
     gradient                   ...        0 min,  0.149 sec
 * total energy  :  -374.6398865 Eh     change       -0.3908477E-01 Eh
   gradient norm :     0.0574681 Eh/α   predicted    -0.3828322E-01 (  -2.05%)
   displ. norm   :     0.5336785 α      lambda       -0.1564114E-01
   maximum displ.:     0.1428039 α      in ANC's #123, #47, #125, ...

........................................................................
.............................. CYCLE    4 ..............................
........................................................................
   1   -379.8722565 -0.379872E+03  0.176E-01    0.23       0.0  T
   2   -379.8724645 -0.207948E-03  0.103E-01    0.21       1.0  T
   3   -379.8717787  0.685754E-03  0.652E-02    0.23       1.0  T
   4   -379.8726205 -0.841845E-03  0.205E-02    0.22       1.0  T
   5   -379.8726740 -0.534711E-04  0.107E-02    0.22       1.0  T
   6   -379.8726763 -0.223388E-05  0.841E-03    0.23       1.0  T
   7   -379.8726824 -0.617973E-05  0.697E-03    0.21       1.0  T
   8   -379.8726884 -0.597088E-05  0.365E-03    0.22       1.9  T
   9   -379.8726888 -0.442412E-06  0.247E-03    0.22       2.9  T
  10   -379.8726893 -0.482997E-06  0.128E-03    0.22       5.5  T
  11   -379.8726895 -0.131244E-06  0.786E-04    0.22       9.0  T
  12   -379.8726895 -0.545682E-07  0.456E-04    0.22      15.5  T
     SCC iter.                  ...        0 min,  0.624 sec
     gradient                   ...        0 min,  0.148 sec
 * total energy  :  -374.6497037 Eh     change       -0.9817161E-02 Eh
   gradient norm :     0.0335149 Eh/α   predicted    -0.1005156E-01 (   2.39%)
   displ. norm   :     0.6875830 α      lambda       -0.1235635E-01
   maximum displ.:     0.1535860 α      in ANC's #123, #22, #47, ...

........................................................................
.............................. CYCLE    5 ..............................
........................................................................
   1   -379.9091767 -0.379909E+03  0.305E-01    0.24       0.0  T
   2   -379.9095117 -0.335027E-03  0.172E-01    0.22       1.0  T
   3   -379.9080048  0.150688E-02  0.877E-02    0.24       1.0  T
   4   -379.9097571 -0.175228E-02  0.184E-02    0.23       1.0  T
   5   -379.9097835 -0.263915E-04  0.130E-02    0.22       1.0  T
   6   -379.9097944 -0.109188E-04  0.100E-02    0.24       1.0  T
   7   -379.9098087 -0.142630E-04  0.524E-03    0.22       1.3  T
   8   -379.9098110 -0.226307E-05  0.345E-03    0.23       2.1  T
   9   -379.9098116 -0.608878E-06  0.243E-03    0.23       2.9  T
  10   -379.9098120 -0.458769E-06  0.152E-03    0.23       4.7  T
  11   -379.9098122 -0.183988E-06  0.100E-03    0.23       7.0  T
  12   -379.9098123 -0.784370E-07  0.677E-04    0.23      10.4  T
  13   -379.9098123 -0.405407E-07  0.440E-04    0.23      16.1  T
     SCC iter.                  ...        0 min,  0.665 sec
     gradient                   ...        0 min,  0.148 sec
 * total energy  :  -374.6519180 Eh     change       -0.2214261E-02 Eh
   gradient norm :     0.0460246 Eh/α   predicted    -0.9099060E-02 ( 310.93%)
   displ. norm   :     0.3716997 α      lambda       -0.8417581E-02
   maximum displ.:     0.0958313 α      in ANC's #47, #57, #70, ...

........................................................................
.............................. CYCLE    6 ..............................
........................................................................
   1   -379.9180400 -0.379918E+03  0.192E-01    0.23       0.0  T
   2   -379.9181593 -0.119291E-03  0.107E-01    0.23       1.0  T
   3   -379.9179998  0.159445E-03  0.327E-02    0.23       1.0  T
   4   -379.9181979 -0.198065E-03  0.972E-03    0.24       1.0  T
   5   -379.9182055 -0.755452E-05  0.799E-03    0.22       1.0  T
   6   -379.9182158 -0.103839E-04  0.399E-03    0.24       1.8  T
   7   -379.9182173 -0.147907E-05  0.198E-03    0.23       3.6  T
   8   -379.9182176 -0.299225E-06  0.141E-03    0.23       5.0  T
   9   -379.9182177 -0.928982E-07  0.103E-03    0.23       6.8  T
  10   -379.9182178 -0.739901E-07  0.657E-04    0.23      10.8  T
  11   -379.9182178 -0.425755E-07  0.407E-04    0.23      17.4  T
     SCC iter.                  ...        0 min,  0.563 sec
     gradient                   ...        0 min,  0.148 sec
 * total energy  :  -374.6566848 Eh     change       -0.4766803E-02 Eh
   gradient norm :     0.0442947 Eh/α   predicted    -0.4790311E-02 (   0.49%)
   displ. norm   :     0.4562619 α      lambda       -0.4811754E-02
   maximum displ.:     0.1225993 α      in ANC's #47, #81, #74, ...

........................................................................
.............................. CYCLE    7 ..............................
........................................................................
   1   -379.9005271 -0.379901E+03  0.172E-01    0.24       0.0  T
   2   -379.9005988 -0.716790E-04  0.965E-02    0.24       1.0  T
   3   -379.9001079  0.490962E-03  0.543E-02    0.23       1.0  T
   4   -379.9006647 -0.556847E-03  0.107E-02    0.25       1.0  T
   5   -379.9006789 -0.142004E-04  0.656E-03    0.23       1.1  T
   6   -379.9006825 -0.357659E-05  0.432E-03    0.24       1.6  T
   7   -379.9006854 -0.293166E-05  0.201E-03    0.24       3.5  T
   8   -379.9006857 -0.295767E-06  0.133E-03    0.24       5.3  T
   9   -379.9006858 -0.773497E-07  0.933E-04    0.24       7.6  T
  10   -379.9006859 -0.646393E-07  0.599E-04    0.24      11.8  T
     SCC iter.                  ...        0 min,  0.509 sec
     gradient                   ...        0 min,  0.148 sec
 * total energy  :  -374.6585873 Eh     change       -0.1902542E-02 Eh
   gradient norm :     0.0293674 Eh/α   predicted    -0.2906731E-02 (  52.78%)
   displ. norm   :     0.4329939 α      lambda       -0.3314063E-02
   maximum displ.:     0.1363831 α      in ANC's #47, #48, #74, ...

........................................................................
.............................. CYCLE    8 ..............................
........................................................................
   1   -379.9098533 -0.379910E+03  0.147E-01    0.25       0.0  T
   2   -379.9098959 -0.425703E-04  0.818E-02    0.25       1.0  T
   3   -379.9095043  0.391587E-03  0.418E-02    0.22       1.0  T
   4   -379.9099283 -0.423941E-03  0.960E-03    0.26       1.0  T
   5   -379.9099442 -0.159487E-04  0.464E-03    0.24       1.5  T
   6   -379.9099467 -0.247776E-05  0.226E-03    0.25       3.1  T
   7   -379.9099476 -0.934947E-06  0.876E-04    0.24       8.1  T
   8   -379.9099477 -0.952386E-07  0.440E-04    0.24      16.1  T
     SCC iter.                  ...        0 min,  0.424 sec
     gradient                   ...        0 min,  0.149 sec
 * total energy  :  -374.6609308 Eh     change       -0.2343501E-02 Eh
   gradient norm :     0.0274571 Eh/α   predicted    -0.1967725E-02 ( -16.03%)
   displ. norm   :     0.5980058 α      lambda       -0.3490040E-02
   maximum displ.:     0.1845674 α      in ANC's #47, #44, #74, ...

........................................................................
.............................. CYCLE    9 ..............................
........................................................................
   1   -379.9252666 -0.379925E+03  0.142E-01    0.25       0.0  T
   2   -379.9253111 -0.444462E-04  0.796E-02    0.26       1.0  T
   3   -379.9248299  0.481219E-03  0.432E-02    0.22       1.0  T
   4   -379.9253430 -0.513180E-03  0.113E-02    0.27       1.0  T
   5   -379.9253620 -0.189243E-04  0.538E-03    0.25       1.3  T
   6   -379.9253646 -0.258765E-05  0.286E-03    0.25       2.5  T
   7   -379.9253662 -0.168125E-05  0.109E-03    0.25       6.5  T
   8   -379.9253663 -0.893129E-07  0.757E-04    0.25       9.3  T
   9   -379.9253664 -0.302016E-07  0.535E-04    0.25      13.2  T
     SCC iter.                  ...        0 min,  0.462 sec
     gradient                   ...        0 min,  0.148 sec
 * total energy  :  -374.6632662 Eh     change       -0.2335395E-02 Eh
   gradient norm :     0.0215048 Eh/α   predicted    -0.2369065E-02 (   1.44%)
   displ. norm   :     0.6754475 α      lambda       -0.2533681E-02
   maximum displ.:     0.2060074 α      in ANC's #47, #44, #74, ...

........................................................................
.............................. CYCLE   10 ..............................
........................................................................
   1   -379.9237650 -0.379924E+03  0.132E-01    0.26       0.0  T
   2   -379.9237995 -0.345410E-04  0.735E-02    0.26       1.0  T
   3   -379.9236026  0.196864E-03  0.300E-02    0.24       1.0  T
   4   -379.9238168 -0.214121E-03  0.867E-03    0.27       1.0  T
   5   -379.9238225 -0.572148E-05  0.539E-03    0.25       1.3  T
   6   -379.9238269 -0.444153E-05  0.232E-03    0.26       3.1  T
   7   -379.9238281 -0.117777E-05  0.930E-04    0.26       7.6  T
   8   -379.9238282 -0.647682E-07  0.650E-04    0.26      10.9  T
   9   -379.9238282 -0.187346E-07  0.450E-04    0.26      15.7  T
     SCC iter.                  ...        0 min,  0.468 sec
     gradient                   ...        0 min,  0.148 sec
 * total energy  :  -374.6654647 Eh     change       -0.2198518E-02 Eh
   gradient norm :     0.0131700 Eh/α   predicted    -0.1844818E-02 ( -16.09%)
   displ. norm   :     0.7638392 α      lambda       -0.2680566E-02
   maximum displ.:     0.2252732 α      in ANC's #44, #47, #74, ...

........................................................................
.............................. CYCLE   11 ..............................
........................................................................
   1   -379.9251381 -0.379925E+03  0.148E-01    0.26       0.0  T
   2   -379.9251805 -0.424842E-04  0.822E-02    0.27       1.0  T
   3   -379.9249982  0.182339E-03  0.305E-02    0.24       1.0  T
   4   -379.9252030 -0.204833E-03  0.866E-03    0.27       1.0  T
   5   -379.9252049 -0.186984E-05  0.573E-03    0.26       1.2  T
   6   -379.9252105 -0.557843E-05  0.234E-03    0.27       3.0  T
   7   -379.9252117 -0.119810E-05  0.106E-03    0.26       6.7  T
   8   -379.9252118 -0.805246E-07  0.749E-04    0.26       9.4  T
   9   -379.9252118 -0.256310E-07  0.514E-04    0.26      13.8  T
     SCC iter.                  ...        0 min,  0.457 sec
     gradient                   ...        0 min,  0.148 sec
 * total energy  :  -374.6677242 Eh     change       -0.2259434E-02 Eh
   gradient norm :     0.0171223 Eh/α   predicted    -0.2122281E-02 (  -6.07%)
   displ. norm   :     0.7923395 α      lambda       -0.2544250E-02
   maximum displ.:     0.2372708 α      in ANC's #44, #47, #45, ...

........................................................................
.............................. CYCLE   12 ..............................
........................................................................
   1   -379.9340339 -0.379934E+03  0.141E-01    0.28       0.0  T
   2   -379.9340716 -0.377051E-04  0.780E-02    0.27       1.0  T
   3   -379.9338090  0.262646E-03  0.354E-02    0.29       1.0  T
   4   -379.9340949 -0.285929E-03  0.904E-03    0.27       1.0  T
   5   -379.9340972 -0.223532E-05  0.600E-03    0.28       1.2  T
   6   -379.9341053 -0.818827E-05  0.226E-03    0.27       3.1  T
   7   -379.9341061 -0.729986E-06  0.117E-03    0.27       6.1  T
   8   -379.9341062 -0.805741E-07  0.877E-04    0.27       8.1  T
   9   -379.9341062 -0.353111E-07  0.639E-04    0.27      11.1  T
     SCC iter.                  ...        0 min,  0.479 sec
     gradient                   ...        0 min,  0.148 sec
 * total energy  :  -374.6692981 Eh     change       -0.1573895E-02 Eh
   gradient norm :     0.0420324 Eh/α   predicted    -0.2070770E-02 (  31.57%)
   displ. norm   :     0.6957201 α      lambda       -0.2827922E-02
   maximum displ.:     0.2126739 α      in ANC's #47, #44, #45, ...

........................................................................
.............................. CYCLE   13 ..............................
........................................................................
   1   -379.9164732 -0.379916E+03  0.167E-01    0.26       0.0  T
   2   -379.9165506 -0.774152E-04  0.929E-02    0.28       1.0  T
   3   -379.9161114  0.439197E-03  0.438E-02    0.24       1.0  T
   4   -379.9165904 -0.478941E-03  0.100E-02    0.28       1.0  T
   5   -379.9165973 -0.690915E-05  0.675E-03    0.27       1.0  T
   6   -379.9166062 -0.889229E-05  0.249E-03    0.27       2.8  T
   7   -379.9166067 -0.589304E-06  0.164E-03    0.27       4.3  T
   8   -379.9166070 -0.231910E-06  0.116E-03    0.27       6.1  T
   9   -379.9166071 -0.705074E-07  0.849E-04    0.27       8.3  T
  10   -379.9166071 -0.587590E-07  0.523E-04    0.27      13.5  T
     SCC iter.                  ...        0 min,  0.524 sec
     gradient                   ...        0 min,  0.148 sec
 * total energy  :  -374.6709467 Eh     change       -0.1648624E-02 Eh
   gradient norm :     0.0388792 Eh/α   predicted    -0.2098364E-02 (  27.28%)
   displ. norm   :     0.5812812 α      lambda       -0.2192453E-02
   maximum displ.:     0.1529540 α      in ANC's #47, #44, #45, ...

........................................................................
.............................. CYCLE   14 ..............................
........................................................................
   1   -379.9178485 -0.379918E+03  0.124E-01    0.27       0.0  T
   2   -379.9178904 -0.418394E-04  0.689E-02    0.28       1.0  T
   3   -379.9176387  0.251662E-03  0.345E-02    0.25       1.0  T
   4   -379.9179159 -0.277187E-03  0.791E-03    0.28       1.0  T
   5   -379.9179186 -0.274135E-05  0.546E-03    0.27       1.3  T
   6   -379.9179251 -0.644880E-05  0.173E-03    0.27       4.1  T
   7   -379.9179255 -0.459974E-06  0.857E-04    0.27       8.2  T
   8   -379.9179256 -0.996339E-07  0.467E-04    0.27      15.1  T
     SCC iter.                  ...        0 min,  0.418 sec
     gradient                   ...        0 min,  0.148 sec
 * total energy  :  -374.6721069 Eh     change       -0.1160173E-02 Eh
   gradient norm :     0.0396677 Eh/α   predicted    -0.1466630E-02 (  26.41%)
   displ. norm   :     0.5451154 α      lambda       -0.2621647E-02
   maximum displ.:     0.1411371 α      in ANC's #45, #44, #31, ...

........................................................................
.............................. CYCLE   15 ..............................
........................................................................
   1   -379.9518182 -0.379952E+03  0.117E-01    0.30       0.0  T
   2   -379.9518367 -0.184875E-04  0.658E-02    0.27       1.0  T
   3   -379.9513233  0.513379E-03  0.462E-02    0.32       1.0  T
   4   -379.9518917 -0.568302E-03  0.755E-03    0.28       1.0  T
   5   -379.9518965 -0.483247E-05  0.499E-03    0.28       1.4  T
   6   -379.9519004 -0.393270E-05  0.175E-03    0.28       4.0  T
   7   -379.9519007 -0.311496E-06  0.104E-03    0.28       6.8  T
   8   -379.9519008 -0.100875E-06  0.703E-04    0.28      10.1  T
   9   -379.9519009 -0.268459E-07  0.504E-04    0.28      14.0  T
     SCC iter.                  ...        0 min,  0.464 sec
     gradient                   ...        0 min,  0.149 sec
 * total energy  :  -374.6730855 Eh     change       -0.9786844E-03 Eh
   gradient norm :     0.0464011 Eh/α   predicted    -0.1700338E-02 (  73.74%)
   displ. norm   :     0.5566424 α      lambda       -0.2280353E-02
   maximum displ.:     0.1565588 α      in ANC's #47, #44, #45, ...

........................................................................
.............................. CYCLE   16 ..............................
........................................................................
   1   -379.9341047 -0.379934E+03  0.132E-01    0.28       0.0  T
   2   -379.9341433 -0.386490E-04  0.729E-02    0.28       1.0  T
   3   -379.9340457  0.976429E-04  0.248E-02    0.27       1.0  T
   4   -379.9341627 -0.116982E-03  0.680E-03    0.28       1.0  T
   5   -379.9341633 -0.687130E-06  0.404E-03    0.28       1.8  T
   6   -379.9341663 -0.298400E-05  0.186E-03    0.28       3.8  T
   7   -379.9341667 -0.392665E-06  0.125E-03    0.28       5.7  T
   8   -379.9341668 -0.805547E-07  0.981E-04    0.28       7.2  T
   9   -379.9341669 -0.776657E-07  0.673E-04    0.28      10.5  T
     SCC iter.                  ...        0 min,  0.479 sec
     gradient                   ...        0 min,  0.150 sec
 * total energy  :  -374.6747089 Eh     change       -0.1623321E-02 Eh
   gradient norm :     0.0163920 Eh/α   predicted    -0.1493468E-02 (  -8.00%)
   displ. norm   :     0.6862449 α      lambda       -0.1701485E-02
   maximum displ.:     0.1764637 α      in ANC's #31, #47, #10, ...

........................................................................
.............................. CYCLE   17 ..............................
........................................................................
   1   -379.9309642 -0.379931E+03  0.114E-01    0.28       0.0  T
   2   -379.9309932 -0.289483E-04  0.624E-02    0.28       1.0  T
   3   -379.9308723  0.120910E-03  0.259E-02    0.27       1.0  T
   4   -379.9310104 -0.138128E-03  0.696E-03    0.29       1.0  T
   5   -379.9310107 -0.331350E-06  0.411E-03    0.28       1.7  T
   6   -379.9310141 -0.332630E-05  0.188E-03    0.28       3.8  T
   7   -379.9310146 -0.515209E-06  0.120E-03    0.28       5.9  T
   8   -379.9310147 -0.105445E-06  0.914E-04    0.28       7.7  T
   9   -379.9310147 -0.538728E-07  0.630E-04    0.28      11.2  T
     SCC iter.                  ...        0 min,  0.471 sec
     gradient                   ...        0 min,  0.148 sec
 * total energy  :  -374.6760334 Eh     change       -0.1324544E-02 Eh
   gradient norm :     0.0241748 Eh/α   predicted    -0.1251374E-02 (  -5.52%)
   displ. norm   :     0.7402246 α      lambda       -0.1661731E-02
   maximum displ.:     0.2095954 α      in ANC's #31, #10, #16, ...

........................................................................
.............................. CYCLE   18 ..............................
........................................................................
   1   -379.9381248 -0.379938E+03  0.988E-02    0.29       0.0  T
   2   -379.9381459 -0.211061E-04  0.530E-02    0.28       1.0  T
   3   -379.9380586  0.872477E-04  0.220E-02    0.29       1.0  T
   4   -379.9381539 -0.953055E-04  0.735E-03    0.28       1.0  T
   5   -379.9381552 -0.128215E-05  0.466E-03    0.29       1.5  T
   6   -379.9381601 -0.489449E-05  0.155E-03    0.28       4.6  T
   7   -379.9381605 -0.423254E-06  0.777E-04    0.28       9.1  T
   8   -379.9381606 -0.537251E-07  0.541E-04    0.28      13.1  T
     SCC iter.                  ...        0 min,  0.413 sec
     gradient                   ...        0 min,  0.148 sec
 * total energy  :  -374.6774629 Eh     change       -0.1429508E-02 Eh
   gradient norm :     0.0196111 Eh/α   predicted    -0.1286127E-02 ( -10.03%)
   displ. norm   :     0.7947894 α      lambda       -0.1792874E-02
   maximum displ.:     0.2421720 α      in ANC's #31, #10, #16, ...

........................................................................
.............................. CYCLE   19 ..............................
........................................................................
   1   -379.9468425 -0.379947E+03  0.102E-01    0.30       0.0  T
   2   -379.9468654 -0.229120E-04  0.546E-02    0.29       1.0  T
   3   -379.9467868  0.786129E-04  0.222E-02    0.29       1.0  T
   4   -379.9468749 -0.881045E-04  0.738E-03    0.29       1.0  T
   5   -379.9468762 -0.132143E-05  0.426E-03    0.29       1.7  T
   6   -379.9468797 -0.353086E-05  0.159E-03    0.29       4.5  T
   7   -379.9468802 -0.465854E-06  0.859E-04    0.29       8.2  T
   8   -379.9468803 -0.684087E-07  0.616E-04    0.29      11.5  T
     SCC iter.                  ...        0 min,  0.412 sec
     gradient                   ...        0 min,  0.148 sec
 * total energy  :  -374.6789436 Eh     change       -0.1480679E-02 Eh
   gradient norm :     0.0124579 Eh/α   predicted    -0.1462712E-02 (  -1.21%)
   displ. norm   :     0.8270656 α      lambda       -0.1644175E-02
   maximum displ.:     0.2647619 α      in ANC's #31, #10, #16, ...

........................................................................
.............................. CYCLE   20 ..............................
........................................................................
   1   -379.9494927 -0.379949E+03  0.103E-01    0.30       0.0  T
   2   -379.9495176 -0.249118E-04  0.546E-02    0.29       1.0  T
   3   -379.9494164  0.101245E-03  0.228E-02    0.31       1.0  T
   4   -379.9495230 -0.106613E-03  0.841E-03    0.29       1.0  T
   5   -379.9495280 -0.497416E-05  0.483E-03    0.30       1.5  T
   6   -379.9495331 -0.511599E-05  0.148E-03    0.29       4.8  T
   7   -379.9495334 -0.334183E-06  0.766E-04    0.29       9.2  T
   8   -379.9495335 -0.521430E-07  0.529E-04    0.29      13.4  T
     SCC iter.                  ...        0 min,  0.422 sec
     gradient                   ...        0 min,  0.148 sec
 * total energy  :  -374.6803332 Eh     change       -0.1389568E-02 Eh
   gradient norm :     0.0169980 Eh/α   predicted    -0.1384434E-02 (  -0.37%)
   displ. norm   :     0.8311520 α      lambda       -0.1556313E-02
   maximum displ.:     0.2777587 α      in ANC's #31, #10, #12, ...
 * RMSD in coord.:     0.6986817 α      energy gain  -0.1727292E+00 Eh

generating ANC from model Hessian ...
Using Lindh-Hessian (1995)
 Shifting diagonal of input Hessian by   1.005845999518622E-002
 Lowest  eigenvalues of input Hessian
    0.010000    0.010038    0.010058    0.000000    0.000000    0.000000
    0.000000    0.000000    0.000000    0.010062    0.010071    0.010077
    0.010092    0.010126    0.010128    0.010148    0.010162    0.010189
 Highest eigenvalues
    2.296768    2.302455    2.614031    2.618992    2.634817    2.639858
 

........................................................................
.............................. CYCLE   21 ..............................
........................................................................
   1   -379.9490470 -0.379949E+03  0.100E-01    0.30       0.0  T
   2   -379.9490700 -0.230497E-04  0.534E-02    0.30       1.0  T
   3   -379.9490294  0.405844E-04  0.170E-02    0.30       1.0  T
   4   -379.9490735 -0.440996E-04  0.745E-03    0.29       1.0  T
   5   -379.9490762 -0.260912E-05  0.400E-03    0.30       1.8  T
   6   -379.9490801 -0.390424E-05  0.141E-03    0.30       5.0  T
   7   -379.9490804 -0.385257E-06  0.684E-04    0.30      10.3  T
   8   -379.9490805 -0.310858E-07  0.490E-04    0.30      14.4  T
     SCC iter.                  ...        0 min,  0.412 sec
     gradient                   ...        0 min,  0.148 sec
 * total energy  :  -374.6817018 Eh     change       -0.1368655E-02 Eh
   gradient norm :     0.0097588 Eh/α   predicted     0.0000000E+00 (-100.00%)
   displ. norm   :     0.1861603 α      lambda       -0.5643461E-03
   maximum displ.:     0.0743836 α      in ANC's #30, #11, #16, ...

........................................................................
.............................. CYCLE   22 ..............................
........................................................................
   1   -379.9467501 -0.379947E+03  0.687E-02    0.30       0.0  T
   2   -379.9467615 -0.114416E-04  0.377E-02    0.30       1.0  T
   3   -379.9467484  0.131143E-04  0.901E-03    0.30       1.0  T
   4   -379.9467662 -0.177306E-04  0.279E-03    0.30       2.5  T
   5   -379.9467665 -0.354868E-06  0.189E-03    0.30       3.7  T
   6   -379.9467670 -0.513313E-06  0.836E-04    0.30       8.5  T
   7   -379.9467671 -0.676581E-07  0.566E-04    0.30      12.5  T
     SCC iter.                  ...        0 min,  0.364 sec
     gradient                   ...        0 min,  0.148 sec
 * total energy  :  -374.6820717 Eh     change       -0.3699143E-03 Eh
   gradient norm :     0.0065358 Eh/α   predicted    -0.2919579E-03 ( -21.07%)
   displ. norm   :     0.4608541 α      lambda       -0.1054076E-02
   maximum displ.:     0.1982651 α      in ANC's #30, #11, #16, ...

........................................................................
.............................. CYCLE   23 ..............................
........................................................................
   1   -379.9448443 -0.379945E+03  0.629E-02    0.30       0.0  T
   2   -379.9448527 -0.843895E-05  0.338E-02    0.30       1.0  T
   3   -379.9448243  0.284649E-04  0.132E-02    0.30       1.0  T
   4   -379.9448546 -0.303532E-04  0.522E-03    0.30       1.4  T
   5   -379.9448561 -0.149754E-05  0.283E-03    0.30       2.5  T
   6   -379.9448577 -0.160261E-05  0.114E-03    0.30       6.2  T
   7   -379.9448579 -0.216466E-06  0.655E-04    0.30      10.8  T
   8   -379.9448580 -0.271604E-07  0.488E-04    0.30      14.5  T
     SCC iter.                  ...        0 min,  0.412 sec
     gradient                   ...        0 min,  0.148 sec
 * total energy  :  -374.6827817 Eh     change       -0.7099514E-03 Eh
   gradient norm :     0.0156757 Eh/α   predicted    -0.6389743E-03 ( -10.00%)
   displ. norm   :     0.5959585 α      lambda       -0.1188360E-02
   maximum displ.:     0.2547335 α      in ANC's #30, #11, #16, ...

........................................................................
.............................. CYCLE   24 ..............................
........................................................................
   1   -379.9430370 -0.379943E+03  0.105E-01    0.30       0.0  T
   2   -379.9430615 -0.245786E-04  0.564E-02    0.31       1.0  T
   3   -379.9429740  0.875091E-04  0.202E-02    0.29       1.0  T
   4   -379.9430709 -0.968931E-04  0.675E-03    0.31       1.0  T
   5   -379.9430741 -0.315528E-05  0.421E-03    0.30       1.7  T
   6   -379.9430776 -0.347572E-05  0.125E-03    0.30       5.7  T
   7   -379.9430777 -0.171169E-06  0.758E-04    0.30       9.3  T
   8   -379.9430778 -0.363711E-07  0.515E-04    0.30      13.7  T
     SCC iter.                  ...        0 min,  0.416 sec
     gradient                   ...        0 min,  0.148 sec
 * total energy  :  -374.6836289 Eh     change       -0.8471799E-03 Eh
   gradient norm :     0.0163038 Eh/α   predicted    -0.8052140E-03 (  -4.95%)
   displ. norm   :     0.6410811 α      lambda       -0.1260313E-02
   maximum displ.:     0.2779907 α      in ANC's #30, #11, #16, ...

........................................................................
.............................. CYCLE   25 ..............................
........................................................................
   1   -379.9462435 -0.379946E+03  0.771E-02    0.31       0.0  T
   2   -379.9462577 -0.141112E-04  0.394E-02    0.31       1.0  T
   3   -379.9462338  0.238398E-04  0.132E-02    0.31       1.0  T
   4   -379.9462613 -0.275017E-04  0.574E-03    0.31       1.2  T
   5   -379.9462632 -0.192072E-05  0.251E-03    0.31       2.8  T
   6   -379.9462642 -0.993807E-06  0.859E-04    0.31       8.2  T
   7   -379.9462643 -0.900861E-07  0.478E-04    0.31      14.8  T
     SCC iter.                  ...        0 min,  0.359 sec
     gradient                   ...        0 min,  0.148 sec
 * total energy  :  -374.6846918 Eh     change       -0.1062914E-02 Eh
   gradient norm :     0.0129865 Eh/α   predicted    -0.8891426E-03 ( -16.35%)
   displ. norm   :     0.7264743 α      lambda       -0.1429334E-02
   maximum displ.:     0.3140182 α      in ANC's #30, #11, #16, ...

........................................................................
.............................. CYCLE   26 ..............................
........................................................................
   1   -379.9484726 -0.379948E+03  0.987E-02    0.31       0.0  T
   2   -379.9484988 -0.261545E-04  0.516E-02    0.31       1.0  T
   3   -379.9484677  0.311373E-04  0.153E-02    0.32       1.0  T
   4   -379.9485039 -0.362595E-04  0.701E-03    0.31       1.0  T
   5   -379.9485069 -0.298332E-05  0.365E-03    0.31       1.9  T
   6   -379.9485096 -0.270550E-05  0.130E-03    0.31       5.4  T
   7   -379.9485099 -0.250820E-06  0.765E-04    0.31       9.2  T
   8   -379.9485099 -0.436706E-07  0.557E-04    0.31      12.7  T
     SCC iter.                  ...        0 min,  0.404 sec
     gradient                   ...        0 min,  0.148 sec
 * total energy  :  -374.6858133 Eh     change       -0.1121545E-02 Eh
   gradient norm :     0.0145755 Eh/α   predicted    -0.1091859E-02 (  -2.65%)
   displ. norm   :     0.7451762 α      lambda       -0.1386343E-02
   maximum displ.:     0.3168194 α      in ANC's #30, #11, #16, ...

........................................................................
.............................. CYCLE   27 ..............................
........................................................................
   1   -379.9482469 -0.379948E+03  0.930E-02    0.31       0.0  T
   2   -379.9482682 -0.213680E-04  0.483E-02    0.31       1.0  T
   3   -379.9482370  0.312740E-04  0.154E-02    0.32       1.0  T
   4   -379.9482743 -0.373592E-04  0.657E-03    0.31       1.1  T
   5   -379.9482767 -0.236004E-05  0.306E-03    0.32       2.3  T
   6   -379.9482780 -0.135939E-05  0.120E-03    0.31       5.9  T
   7   -379.9482782 -0.149738E-06  0.766E-04    0.31       9.2  T
   8   -379.9482782 -0.248086E-07  0.595E-04    0.31      11.9  T
     SCC iter.                  ...        0 min,  0.427 sec
     gradient                   ...        0 min,  0.148 sec
 * total energy  :  -374.6869410 Eh     change       -0.1127703E-02 Eh
   gradient norm :     0.0135282 Eh/α   predicted    -0.1078085E-02 (  -4.40%)
   displ. norm   :     0.7652685 α      lambda       -0.1310079E-02
   maximum displ.:     0.3178253 α      in ANC's #30, #11, #2, ...

........................................................................
.............................. CYCLE   28 ..............................
........................................................................
   1   -379.9461926 -0.379946E+03  0.817E-02    0.32       0.0  T
   2   -379.9462094 -0.168340E-04  0.415E-02    0.32       1.0  T
   3   -379.9461840  0.254374E-04  0.139E-02    0.32       1.0  T
   4   -379.9462119 -0.279374E-04  0.657E-03    0.32       1.1  T
   5   -379.9462147 -0.280271E-05  0.311E-03    0.32       2.3  T
   6   -379.9462162 -0.145114E-05  0.132E-03    0.32       5.4  T
   7   -379.9462165 -0.357168E-06  0.591E-04    0.32      12.0  T
   8   -379.9462166 -0.313524E-07  0.426E-04    0.32      16.6  T
     SCC iter.                  ...        0 min,  0.422 sec
     gradient                   ...        0 min,  0.148 sec
 * total energy  :  -374.6881438 Eh     change       -0.1202745E-02 Eh
   gradient norm :     0.0119302 Eh/α   predicted    -0.1038654E-02 ( -13.64%)
   displ. norm   :     0.7447843 α      lambda       -0.1629872E-02
   maximum displ.:     0.2827304 α      in ANC's #30, #11, #2, ...

........................................................................
.............................. CYCLE   29 ..............................
........................................................................
   1   -379.9565822 -0.379957E+03  0.816E-02    0.32       0.0  T
   2   -379.9565994 -0.171574E-04  0.432E-02    0.32       1.0  T
   3   -379.9565394  0.599427E-04  0.187E-02    0.32       1.0  T
   4   -379.9566051 -0.656138E-04  0.691E-03    0.32       1.0  T
   5   -379.9566080 -0.289358E-05  0.367E-03    0.32       1.9  T
   6   -379.9566099 -0.197855E-05  0.163E-03    0.32       4.3  T
   7   -379.9566105 -0.543178E-06  0.764E-04    0.32       9.3  T
   8   -379.9566105 -0.551441E-07  0.533E-04    0.32      13.3  T
     SCC iter.                  ...        0 min,  0.415 sec
     gradient                   ...        0 min,  0.148 sec
 * total energy  :  -374.6893317 Eh     change       -0.1187970E-02 Eh
   gradient norm :     0.0120399 Eh/α   predicted    -0.1266989E-02 (   6.65%)
   displ. norm   :     0.8571845 α      lambda       -0.1518335E-02
   maximum displ.:     0.3503192 α      in ANC's #30, #11, #2, ...

........................................................................
.............................. CYCLE   30 ..............................
........................................................................
   1   -379.9433410 -0.379943E+03  0.998E-02    0.33       0.0  T
   2   -379.9433686 -0.275669E-04  0.506E-02    0.33       1.0  T
   3   -379.9433445  0.240934E-04  0.157E-02    0.32       1.0  T
   4   -379.9433730 -0.285158E-04  0.764E-03    0.32       1.0  T
   5   -379.9433772 -0.426304E-05  0.283E-03    0.32       2.5  T
   6   -379.9433779 -0.619139E-06  0.121E-03    0.32       5.8  T
   7   -379.9433781 -0.219875E-06  0.574E-04    0.32      12.3  T
   8   -379.9433781 -0.940781E-08  0.423E-04    0.32      16.7  T
     SCC iter.                  ...        0 min,  0.413 sec
     gradient                   ...        0 min,  0.148 sec
 * total energy  :  -374.6905391 Eh     change       -0.1207345E-02 Eh
   gradient norm :     0.0133121 Eh/α   predicted    -0.1316981E-02 (   9.08%)
   displ. norm   :     0.7996368 α      lambda       -0.1216607E-02
   maximum displ.:     0.3191532 α      in ANC's #30, #11, #2, ...

........................................................................
.............................. CYCLE   31 ..............................
........................................................................
   1   -379.9401774 -0.379940E+03  0.830E-02    0.33       0.0  T
   2   -379.9401942 -0.168059E-04  0.421E-02    0.33       1.0  T
   3   -379.9401660  0.282090E-04  0.151E-02    0.33       1.0  T
   4   -379.9401993 -0.332695E-04  0.624E-03    0.33       1.1  T
   5   -379.9402010 -0.176673E-05  0.243E-03    0.33       2.9  T
   6   -379.9402018 -0.770400E-06  0.923E-04    0.33       7.7  T
   7   -379.9402019 -0.125717E-06  0.424E-04    0.33      16.7  T
     SCC iter.                  ...        0 min,  0.365 sec
     gradient                   ...        0 min,  0.148 sec
 * total energy  :  -374.6916559 Eh     change       -0.1116797E-02 Eh
   gradient norm :     0.0120544 Eh/α   predicted    -0.9972715E-03 ( -10.70%)
   displ. norm   :     0.7410136 α      lambda       -0.1535876E-02
   maximum displ.:     0.2444624 α      in ANC's #2, #30, #11, ...

........................................................................
.............................. CYCLE   32 ..............................
........................................................................
   1   -379.9547351 -0.379955E+03  0.816E-02    0.33       0.0  T
   2   -379.9547529 -0.178332E-04  0.431E-02    0.34       1.0  T
   3   -379.9547060  0.468762E-04  0.182E-02    0.33       1.0  T
   4   -379.9547607 -0.547308E-04  0.635E-03    0.34       1.1  T
   5   -379.9547622 -0.141715E-05  0.336E-03    0.34       2.1  T
   6   -379.9547636 -0.144667E-05  0.131E-03    0.34       5.4  T
   7   -379.9547638 -0.147126E-06  0.890E-04    0.34       7.9  T
   8   -379.9547638 -0.673432E-07  0.663E-04    0.34      10.7  T
     SCC iter.                  ...        0 min,  0.432 sec
     gradient                   ...        0 min,  0.149 sec
 * total energy  :  -374.6928938 Eh     change       -0.1237912E-02 Eh
   gradient norm :     0.0081054 Eh/α   predicted    -0.1189619E-02 (  -3.90%)
   displ. norm   :     0.8891526 α      lambda       -0.1325610E-02
   maximum displ.:     0.3053533 α      in ANC's #30, #2, #11, ...

........................................................................
.............................. CYCLE   33 ..............................
........................................................................
   1   -379.9533832 -0.379953E+03  0.986E-02    0.34       0.0  T
   2   -379.9534083 -0.251318E-04  0.506E-02    0.34       1.0  T
   3   -379.9533569  0.514572E-04  0.196E-02    0.34       1.0  T
   4   -379.9534173 -0.603974E-04  0.741E-03    0.34       1.0  T
   5   -379.9534200 -0.268652E-05  0.297E-03    0.34       2.4  T
   6   -379.9534209 -0.916489E-06  0.127E-03    0.34       5.6  T
   7   -379.9534211 -0.248097E-06  0.569E-04    0.34      12.4  T
   8   -379.9534211 -0.137194E-07  0.424E-04    0.34      16.7  T
     SCC iter.                  ...        0 min,  0.421 sec
     gradient                   ...        0 min,  0.147 sec
 * total energy  :  -374.6940875 Eh     change       -0.1193704E-02 Eh
   gradient norm :     0.0096973 Eh/α   predicted    -0.1186819E-02 (  -0.58%)
   displ. norm   :     0.8450889 α      lambda       -0.1269599E-02
   maximum displ.:     0.2824861 α      in ANC's #2, #11, #30, ...

........................................................................
.............................. CYCLE   34 ..............................
........................................................................
   1   -379.9533558 -0.379953E+03  0.981E-02    0.34       0.0  T
   2   -379.9533801 -0.243244E-04  0.512E-02    0.35       1.0  T
   3   -379.9533230  0.570542E-04  0.202E-02    0.34       1.0  T
   4   -379.9533897 -0.666859E-04  0.726E-03    0.35       1.0  T
   5   -379.9533922 -0.246724E-05  0.298E-03    0.35       2.4  T
   6   -379.9533932 -0.102106E-05  0.136E-03    0.35       5.2  T
   7   -379.9533934 -0.213014E-06  0.830E-04    0.35       8.5  T
   8   -379.9533935 -0.384942E-07  0.653E-04    0.35      10.8  T
     SCC iter.                  ...        0 min,  0.415 sec
     gradient                   ...        0 min,  0.147 sec
 * total energy  :  -374.6952262 Eh     change       -0.1138688E-02 Eh
   gradient norm :     0.0097816 Eh/α   predicted    -0.1088159E-02 (  -4.44%)
   displ. norm   :     0.8403040 α      lambda       -0.1217104E-02
   maximum displ.:     0.2863481 α      in ANC's #2, #11, #6, ...

........................................................................
.............................. CYCLE   35 ..............................
........................................................................
   1   -379.9533659 -0.379953E+03  0.972E-02    0.35       0.0  T
   2   -379.9533891 -0.231986E-04  0.507E-02    0.35       1.0  T
   3   -379.9533333  0.557778E-04  0.200E-02    0.35       1.0  T
   4   -379.9533981 -0.648178E-04  0.723E-03    0.35       1.0  T
   5   -379.9534005 -0.237734E-05  0.310E-03    0.35       2.3  T
   6   -379.9534016 -0.109326E-05  0.141E-03    0.35       5.0  T
   7   -379.9534019 -0.302817E-06  0.774E-04    0.35       9.1  T
   8   -379.9534019 -0.440743E-07  0.583E-04    0.35      12.1  T
     SCC iter.                  ...        0 min,  0.417 sec
     gradient                   ...        0 min,  0.148 sec
 * total energy  :  -374.6962588 Eh     change       -0.1032614E-02 Eh
   gradient norm :     0.0101608 Eh/α   predicted    -0.1038259E-02 (   0.55%)
   displ. norm   :     0.7960350 α      lambda       -0.1283310E-02
   maximum displ.:     0.2731091 α      in ANC's #2, #6, #12, ...

........................................................................
.............................. CYCLE   36 ..............................
........................................................................
   1   -379.9585760 -0.379959E+03  0.978E-02    0.36       0.0  T
   2   -379.9586005 -0.245641E-04  0.514E-02    0.36       1.0  T
   3   -379.9585473  0.532714E-04  0.195E-02    0.35       1.0  T
   4   -379.9586085 -0.612655E-04  0.740E-03    0.36       1.0  T
   5   -379.9586111 -0.254195E-05  0.353E-03    0.36       2.0  T
   6   -379.9586126 -0.155038E-05  0.170E-03    0.36       4.2  T
   7   -379.9586132 -0.558852E-06  0.849E-04    0.36       8.3  T
   8   -379.9586132 -0.625975E-07  0.622E-04    0.36      11.4  T
     SCC iter.                  ...        0 min,  0.416 sec
     gradient                   ...        0 min,  0.147 sec
 * total energy  :  -374.6971527 Eh     change       -0.8938829E-03 Eh
   gradient norm :     0.0122054 Eh/α   predicted    -0.1048256E-02 (  17.27%)
   displ. norm   :     0.7823302 α      lambda       -0.1155365E-02
   maximum displ.:     0.2670553 α      in ANC's #2, #11, #6, ...

........................................................................
.............................. CYCLE   37 ..............................
........................................................................
   1   -379.9521752 -0.379952E+03  0.969E-02    0.36       0.0  T
   2   -379.9521983 -0.231006E-04  0.501E-02    0.37       1.0  T
   3   -379.9521428  0.555247E-04  0.192E-02    0.36       1.0  T
   4   -379.9522064 -0.636268E-04  0.738E-03    0.37       1.0  T
   5   -379.9522078 -0.138251E-05  0.418E-03    0.36       1.7  T
   6   -379.9522112 -0.338077E-05  0.161E-03    0.37       4.4  T
   7   -379.9522116 -0.447809E-06  0.913E-04    0.37       7.7  T
   8   -379.9522117 -0.577173E-07  0.699E-04    0.37      10.1  T
     SCC iter.                  ...        0 min,  0.412 sec
     gradient                   ...        0 min,  0.148 sec
 * total energy  :  -374.6980529 Eh     change       -0.9001935E-03 Eh
   gradient norm :     0.0122209 Eh/α   predicted    -0.9312506E-03 (   3.45%)
   displ. norm   :     0.6818021 α      lambda       -0.1019435E-02
   maximum displ.:     0.2404854 α      in ANC's #12, #2, #6, ...

........................................................................
.............................. CYCLE   38 ..............................
........................................................................
   1   -379.9599405 -0.379960E+03  0.826E-02    0.37       0.0  T
   2   -379.9599581 -0.175601E-04  0.433E-02    0.37       1.0  T
   3   -379.9599297  0.284131E-04  0.148E-02    0.37       1.0  T
   4   -379.9599632 -0.335457E-04  0.615E-03    0.37       1.1  T
   5   -379.9599655 -0.223154E-05  0.289E-03    0.37       2.4  T
   6   -379.9599665 -0.103144E-05  0.125E-03    0.37       5.7  T
   7   -379.9599667 -0.179637E-06  0.800E-04    0.37       8.8  T
   8   -379.9599667 -0.159184E-07  0.650E-04    0.37      10.9  T
     SCC iter.                  ...        0 min,  0.413 sec
     gradient                   ...        0 min,  0.147 sec
 * total energy  :  -374.6988125 Eh     change       -0.7596598E-03 Eh
   gradient norm :     0.0117885 Eh/α   predicted    -0.7466642E-03 (  -1.71%)
   displ. norm   :     0.7576838 α      lambda       -0.1085634E-02
   maximum displ.:     0.2614687 α      in ANC's #2, #12, #6, ...

........................................................................
.............................. CYCLE   39 ..............................
........................................................................
   1   -379.9542202 -0.379954E+03  0.872E-02    0.38       0.0  T
   2   -379.9542392 -0.190684E-04  0.453E-02    0.38       1.0  T
   3   -379.9542064  0.328056E-04  0.155E-02    0.38       1.0  T
   4   -379.9542442 -0.377417E-04  0.664E-03    0.38       1.1  T
   5   -379.9542472 -0.299227E-05  0.292E-03    0.38       2.4  T
   6   -379.9542482 -0.104163E-05  0.130E-03    0.38       5.5  T
   7   -379.9542485 -0.247817E-06  0.730E-04    0.38       9.7  T
   8   -379.9542485 -0.141284E-07  0.593E-04    0.38      11.9  T
     SCC iter.                  ...        0 min,  0.404 sec
     gradient                   ...        0 min,  0.148 sec
 * total energy  :  -374.6996365 Eh     change       -0.8239683E-03 Eh
   gradient norm :     0.0099230 Eh/α   predicted    -0.8544438E-03 (   3.70%)
   displ. norm   :     0.6391260 α      lambda       -0.1129511E-02
   maximum displ.:     0.2492933 α      in ANC's #12, #6, #2, ...

........................................................................
.............................. CYCLE   40 ..............................
........................................................................
   1   -379.9658227 -0.379966E+03  0.869E-02    0.38       0.0  T
   2   -379.9658446 -0.218814E-04  0.464E-02    0.38       1.0  T
   3   -379.9658212  0.234148E-04  0.143E-02    0.38       1.0  T
   4   -379.9658509 -0.296900E-04  0.619E-03    0.38       1.1  T
   5   -379.9658531 -0.220507E-05  0.332E-03    0.38       2.1  T
   6   -379.9658544 -0.136422E-05  0.172E-03    0.38       4.1  T
   7   -379.9658547 -0.249218E-06  0.127E-03    0.38       5.6  T
   8   -379.9658547 -0.495214E-07  0.103E-03    0.38       6.9  T
   9   -379.9658549 -0.112608E-06  0.609E-04    0.38      11.6  T
  10   -379.9658549 -0.319710E-07  0.409E-04    0.38      17.3  T
     SCC iter.                  ...        0 min,  0.506 sec
     gradient                   ...        0 min,  0.147 sec
 * total energy  :  -374.7004092 Eh     change       -0.7727437E-03 Eh
   gradient norm :     0.0133144 Eh/α   predicted    -0.7954518E-03 (   2.94%)
   displ. norm   :     0.7421595 α      lambda       -0.1017893E-02
   maximum displ.:     0.2787098 α      in ANC's #12, #6, #2, ...

........................................................................
.............................. CYCLE   41 ..............................
........................................................................
   1   -379.9614974 -0.379961E+03  0.898E-02    0.39       0.0  T
   2   -379.9615188 -0.213781E-04  0.465E-02    0.39       1.0  T
   3   -379.9614966  0.221953E-04  0.147E-02    0.39       1.0  T
   4   -379.9615246 -0.280499E-04  0.666E-03    0.39       1.1  T
   5   -379.9615264 -0.173896E-05  0.351E-03    0.39       2.0  T
   6   -379.9615283 -0.190207E-05  0.142E-03    0.39       5.0  T
   7   -379.9615284 -0.109546E-06  0.113E-03    0.39       6.3  T
   8   -379.9615284 -0.466472E-07  0.898E-04    0.39       7.9  T
   9   -379.9615285 -0.672046E-07  0.575E-04    0.39      12.3  T
     SCC iter.                  ...        0 min,  0.462 sec
     gradient                   ...        0 min,  0.147 sec
 * total energy  :  -374.7012471 Eh     change       -0.8378983E-03 Eh
   gradient norm :     0.0129599 Eh/α   predicted    -0.7892817E-03 (  -5.80%)
   displ. norm   :     0.7301588 α      lambda       -0.1183933E-02
   maximum displ.:     0.2844407 α      in ANC's #12, #6, #2, ...

........................................................................
.............................. CYCLE   42 ..............................
........................................................................
   1   -379.9578327 -0.379958E+03  0.101E-01    0.38       0.0  T
   2   -379.9578644 -0.316767E-04  0.540E-02    0.39       1.0  T
   3   -379.9578461  0.182739E-04  0.149E-02    0.39       1.0  T
   4   -379.9578722 -0.261395E-04  0.680E-03    0.39       1.0  T
   5   -379.9578750 -0.277405E-05  0.341E-03    0.39       2.1  T
   6   -379.9578765 -0.145250E-05  0.160E-03    0.39       4.4  T
   7   -379.9578767 -0.216391E-06  0.114E-03    0.39       6.2  T
   8   -379.9578767 -0.366289E-07  0.895E-04    0.39       7.9  T
   9   -379.9578768 -0.684465E-07  0.594E-04    0.39      11.9  T
     SCC iter.                  ...        0 min,  0.461 sec
     gradient                   ...        0 min,  0.147 sec
 * total energy  :  -374.7020668 Eh     change       -0.8196204E-03 Eh
   gradient norm :     0.0167264 Eh/α   predicted    -0.9075662E-03 (  10.73%)
   displ. norm   :     0.6755456 α      lambda       -0.1142984E-02
   maximum displ.:     0.2636213 α      in ANC's #12, #6, #2, ...
 * RMSD in coord.:     1.0213102 α      energy gain  -0.2173360E-01 Eh

generating ANC from model Hessian ...
Using Lindh-Hessian (1995)
 Shifting diagonal of input Hessian by   1.005250227115997E-002
 Lowest  eigenvalues of input Hessian
    0.010000    0.010033    0.010037    0.000000    0.000000    0.000000
    0.000000    0.000000    0.000000    0.010057    0.010066    0.010078
    0.010081    0.010101    0.010114    0.010142    0.010155    0.010191
 Highest eigenvalues
    2.295706    2.304172    2.609454    2.613167    2.636455    2.637557
 

........................................................................
.............................. CYCLE   43 ..............................
........................................................................
   1   -379.9638848 -0.379964E+03  0.797E-02    0.40       0.0  T
   2   -379.9639016 -0.168237E-04  0.425E-02    0.39       1.0  T
   3   -379.9638334  0.682489E-04  0.189E-02    0.40       1.0  T
   4   -379.9639091 -0.757250E-04  0.674E-03    0.39       1.0  T
   5   -379.9639105 -0.143372E-05  0.432E-03    0.39       1.6  T
   6   -379.9639140 -0.343163E-05  0.164E-03    0.39       4.3  T
   7   -379.9639143 -0.306298E-06  0.115E-03    0.39       6.1  T
   8   -379.9639144 -0.790511E-07  0.925E-04    0.39       7.6  T
   9   -379.9639144 -0.670641E-07  0.587E-04    0.39      12.1  T
     SCC iter.                  ...        0 min,  0.463 sec
     gradient                   ...        0 min,  0.147 sec
 * total energy  :  -374.7028767 Eh     change       -0.8099541E-03 Eh
   gradient norm :     0.0171735 Eh/α   predicted     0.0000000E+00 (-100.00%)
   displ. norm   :     0.1629022 α      lambda       -0.6846687E-03
   maximum displ.:     0.0690791 α      in ANC's #39, #41, #5, ...

........................................................................
.............................. CYCLE   44 ..............................
........................................................................
   1   -379.9615046 -0.379962E+03  0.658E-02    0.39       0.0  T
   2   -379.9615202 -0.156638E-04  0.364E-02    0.39       1.0  T
   3   -379.9614685  0.517230E-04  0.155E-02    0.38       1.0  T
   4   -379.9615287 -0.601975E-04  0.325E-03    0.39       2.2  T
   5   -379.9615295 -0.754069E-06  0.229E-03    0.39       3.1  T
   6   -379.9615302 -0.749936E-06  0.112E-03    0.39       6.3  T
   7   -379.9615303 -0.716445E-07  0.823E-04    0.39       8.6  T
   8   -379.9615303 -0.445118E-07  0.623E-04    0.39      11.4  T
     SCC iter.                  ...        0 min,  0.410 sec
     gradient                   ...        0 min,  0.147 sec
 * total energy  :  -374.7032530 Eh     change       -0.3762795E-03 Eh
   gradient norm :     0.0092008 Eh/α   predicted    -0.3514788E-03 (  -6.59%)
   displ. norm   :     0.2836412 α      lambda       -0.7700486E-03
   maximum displ.:     0.0820838 α      in ANC's #64, #5, #39, ...

........................................................................
.............................. CYCLE   45 ..............................
........................................................................
   1   -379.9619302 -0.379962E+03  0.608E-02    0.39       0.0  T
   2   -379.9619398 -0.968009E-05  0.337E-02    0.39       1.0  T
   3   -379.9619174  0.224511E-04  0.114E-02    0.39       1.0  T
   4   -379.9619429 -0.255074E-04  0.408E-03    0.39       1.7  T
   5   -379.9619441 -0.122000E-05  0.260E-03    0.39       2.7  T
   6   -379.9619452 -0.107169E-05  0.121E-03    0.39       5.8  T
   7   -379.9619453 -0.124844E-06  0.862E-04    0.39       8.2  T
   8   -379.9619453 -0.356622E-07  0.681E-04    0.39      10.4  T
     SCC iter.                  ...        0 min,  0.419 sec
     gradient                   ...        0 min,  0.147 sec
 * total energy  :  -374.7035897 Eh     change       -0.3367221E-03 Eh
   gradient norm :     0.0152396 Eh/α   predicted    -0.4160113E-03 (  23.55%)
   displ. norm   :     0.2911463 α      lambda       -0.6452963E-03
   maximum displ.:     0.1130259 α      in ANC's #39, #5, #41, ...

........................................................................
.............................. CYCLE   46 ..............................
........................................................................
   1   -379.9627433 -0.379963E+03  0.618E-02    0.40       0.0  T
   2   -379.9627529 -0.967224E-05  0.338E-02    0.40       1.0  T
   3   -379.9627399  0.130263E-04  0.911E-03    0.40       1.0  T
   4   -379.9627561 -0.162117E-04  0.343E-03    0.39       2.1  T
   5   -379.9627566 -0.526885E-06  0.214E-03    0.40       3.3  T
   6   -379.9627576 -0.950633E-06  0.831E-04    0.39       8.5  T
   7   -379.9627577 -0.627102E-07  0.604E-04    0.39      11.7  T
     SCC iter.                  ...        0 min,  0.363 sec
     gradient                   ...        0 min,  0.147 sec
 * total energy  :  -374.7040590 Eh     change       -0.4692704E-03 Eh
   gradient norm :     0.0130404 Eh/α   predicted    -0.3500107E-03 ( -25.41%)
   displ. norm   :     0.5530749 α      lambda       -0.1089187E-02
   maximum displ.:     0.2121180 α      in ANC's #39, #41, #5, ...

........................................................................
.............................. CYCLE   47 ..............................
........................................................................
   1   -379.9607285 -0.379961E+03  0.109E-01    0.40       0.0  T
   2   -379.9607630 -0.345099E-04  0.593E-02    0.40       1.0  T
   3   -379.9607331  0.298750E-04  0.160E-02    0.40       1.0  T
   4   -379.9607759 -0.428247E-04  0.593E-03    0.40       1.2  T
   5   -379.9607778 -0.188893E-05  0.259E-03    0.40       2.7  T
   6   -379.9607787 -0.902296E-06  0.117E-03    0.40       6.1  T
   7   -379.9607788 -0.785234E-07  0.833E-04    0.40       8.5  T
   8   -379.9607788 -0.267136E-07  0.617E-04    0.40      11.5  T
     SCC iter.                  ...        0 min,  0.409 sec
     gradient                   ...        0 min,  0.147 sec
 * total energy  :  -374.7048986 Eh     change       -0.8395888E-03 Eh
   gradient norm :     0.0118718 Eh/α   predicted    -0.7111818E-03 ( -15.29%)
   displ. norm   :     0.6673184 α      lambda       -0.1024845E-02
   maximum displ.:     0.2554913 α      in ANC's #39, #5, #41, ...

........................................................................
.............................. CYCLE   48 ..............................
........................................................................
   1   -379.9598001 -0.379960E+03  0.112E-01    0.41       0.0  T
   2   -379.9598318 -0.316835E-04  0.611E-02    0.40       1.0  T
   3   -379.9597616  0.702511E-04  0.215E-02    0.40       1.0  T
   4   -379.9598465 -0.849376E-04  0.688E-03    0.40       1.0  T
   5   -379.9598482 -0.163596E-05  0.351E-03    0.40       2.0  T
   6   -379.9598501 -0.198789E-05  0.117E-03    0.40       6.1  T
   7   -379.9598502 -0.106139E-06  0.816E-04    0.40       8.7  T
   8   -379.9598503 -0.566959E-07  0.587E-04    0.40      12.0  T
     SCC iter.                  ...        0 min,  0.406 sec
     gradient                   ...        0 min,  0.147 sec
 * total energy  :  -374.7057668 Eh     change       -0.8681960E-03 Eh
   gradient norm :     0.0115020 Eh/α   predicted    -0.7406140E-03 ( -14.70%)
   displ. norm   :     0.6819963 α      lambda       -0.1132732E-02
   maximum displ.:     0.2355783 α      in ANC's #39, #5, #41, ...

........................................................................
.............................. CYCLE   49 ..............................
........................................................................
   1   -379.9654595 -0.379965E+03  0.115E-01    0.42       0.0  T
   2   -379.9654939 -0.343535E-04  0.630E-02    0.41       1.0  T
   3   -379.9654204  0.734762E-04  0.209E-02    0.42       1.0  T
   4   -379.9655064 -0.859472E-04  0.746E-03    0.41       1.0  T
   5   -379.9655086 -0.228171E-05  0.450E-03    0.41       1.6  T
   6   -379.9655125 -0.383622E-05  0.153E-03    0.41       4.6  T
   7   -379.9655128 -0.325387E-06  0.956E-04    0.41       7.4  T
   8   -379.9655129 -0.662765E-07  0.705E-04    0.41      10.0  T
     SCC iter.                  ...        0 min,  0.408 sec
     gradient                   ...        0 min,  0.147 sec
 * total energy  :  -374.7066659 Eh     change       -0.8991082E-03 Eh
   gradient norm :     0.0116263 Eh/α   predicted    -0.8297962E-03 (  -7.71%)
   displ. norm   :     0.7206459 α      lambda       -0.1222242E-02
   maximum displ.:     0.2396638 α      in ANC's #39, #5, #41, ...

........................................................................
.............................. CYCLE   50 ..............................
........................................................................
   1   -379.9646777 -0.379965E+03  0.143E-01    0.42       0.0  T
   2   -379.9647312 -0.535166E-04  0.780E-02    0.41       1.0  T
   3   -379.9646215  0.109707E-03  0.269E-02    0.42       1.0  T
   4   -379.9647591 -0.137592E-03  0.769E-03    0.42       1.0  T
   5   -379.9647604 -0.128226E-05  0.407E-03    0.42       1.7  T
   6   -379.9647631 -0.271076E-05  0.169E-03    0.42       4.2  T
   7   -379.9647633 -0.180094E-06  0.127E-03    0.42       5.6  T
   8   -379.9647633 -0.791081E-07  0.914E-04    0.42       7.7  T
   9   -379.9647634 -0.590185E-07  0.641E-04    0.42      11.0  T
     SCC iter.                  ...        0 min,  0.461 sec
     gradient                   ...        0 min,  0.147 sec
 * total energy  :  -374.7073712 Eh     change       -0.7053133E-03 Eh
   gradient norm :     0.0239482 Eh/α   predicted    -0.9284982E-03 (  31.64%)
   displ. norm   :     0.4571142 α      lambda       -0.1250788E-02
   maximum displ.:     0.1672185 α      in ANC's #5, #18, #15, ...

........................................................................
.............................. CYCLE   51 ..............................
........................................................................
   1   -379.9818614 -0.379982E+03  0.807E-02    0.43       0.0  T
   2   -379.9818793 -0.179255E-04  0.446E-02    0.43       1.0  T
   3   -379.9817723  0.107011E-03  0.250E-02    0.44       1.0  T
   4   -379.9818966 -0.124259E-03  0.630E-03    0.43       1.1  T
   5   -379.9818970 -0.418474E-06  0.485E-03    0.43       1.5  T
   6   -379.9819007 -0.368539E-05  0.245E-03    0.43       2.9  T
   7   -379.9819011 -0.395830E-06  0.194E-03    0.43       3.6  T
   8   -379.9819013 -0.229676E-06  0.146E-03    0.43       4.8  T
   9   -379.9819015 -0.205105E-06  0.808E-04    0.43       8.8  T
  10   -379.9819016 -0.736173E-07  0.431E-04    0.43      16.4  T
     SCC iter.                  ...        0 min,  0.509 sec
     gradient                   ...        0 min,  0.147 sec
 * total energy  :  -374.7079280 Eh     change       -0.5568214E-03 Eh
   gradient norm :     0.0248393 Eh/α   predicted    -0.7560735E-03 (  35.78%)
   displ. norm   :     0.5639180 α      lambda       -0.1602171E-02
   maximum displ.:     0.1906493 α      in ANC's #5, #41, #39, ...

........................................................................
.............................. CYCLE   52 ..............................
........................................................................
   1   -379.9686090 -0.379969E+03  0.149E-01    0.42       0.0  T
   2   -379.9686626 -0.535778E-04  0.821E-02    0.43       1.0  T
   3   -379.9684642  0.198339E-03  0.315E-02    0.42       1.0  T
   4   -379.9686974 -0.233181E-03  0.713E-03    0.43       1.0  T
   5   -379.9686974 -0.475121E-07  0.459E-03    0.42       1.5  T
   6   -379.9687015 -0.403110E-05  0.186E-03    0.42       3.8  T
   7   -379.9687019 -0.398119E-06  0.122E-03    0.42       5.8  T
   8   -379.9687020 -0.104093E-06  0.839E-04    0.42       8.4  T
   9   -379.9687020 -0.470679E-07  0.567E-04    0.42      12.5  T
     SCC iter.                  ...        0 min,  0.456 sec
     gradient                   ...        0 min,  0.147 sec
 * total energy  :  -374.7084313 Eh     change       -0.5032697E-03 Eh
   gradient norm :     0.0179600 Eh/α   predicted    -0.1055835E-02 ( 109.80%)
   displ. norm   :     0.4009605 α      lambda       -0.1102983E-02
   maximum displ.:     0.1501093 α      in ANC's #5, #41, #18, ...

........................................................................
.............................. CYCLE   53 ..............................
........................................................................
   1   -379.9705285 -0.379971E+03  0.867E-02    0.42       0.0  T
   2   -379.9705463 -0.177642E-04  0.474E-02    0.43       1.0  T
   3   -379.9705135  0.327896E-04  0.147E-02    0.43       1.0  T
   4   -379.9705549 -0.413927E-04  0.418E-03    0.43       1.7  T
   5   -379.9705553 -0.427194E-06  0.216E-03    0.43       3.3  T
   6   -379.9705561 -0.772845E-06  0.875E-04    0.43       8.1  T
   7   -379.9705562 -0.946251E-07  0.493E-04    0.43      14.3  T
     SCC iter.                  ...        0 min,  0.356 sec
     gradient                   ...        0 min,  0.147 sec
 * total energy  :  -374.7091333 Eh     change       -0.7020353E-03 Eh
   gradient norm :     0.0169514 Eh/α   predicted    -0.6401563E-03 (  -8.81%)
   displ. norm   :     0.5280500 α      lambda       -0.7090239E-03
   maximum displ.:     0.2130765 α      in ANC's #5, #18, #15, ...

........................................................................
.............................. CYCLE   54 ..............................
........................................................................
   1   -379.9705160 -0.379971E+03  0.811E-02    0.43       0.0  T
   2   -379.9705313 -0.152335E-04  0.429E-02    0.43       1.0  T
   3   -379.9705128  0.184201E-04  0.127E-02    0.43       1.0  T
   4   -379.9705361 -0.232490E-04  0.539E-03    0.43       1.3  T
   5   -379.9705376 -0.150630E-05  0.225E-03    0.43       3.1  T
   6   -379.9705384 -0.801875E-06  0.114E-03    0.43       6.2  T
   7   -379.9705385 -0.123988E-06  0.818E-04    0.43       8.6  T
   8   -379.9705385 -0.350489E-07  0.627E-04    0.43      11.3  T
     SCC iter.                  ...        0 min,  0.406 sec
     gradient                   ...        0 min,  0.146 sec
 * total energy  :  -374.7096455 Eh     change       -0.5121888E-03 Eh
   gradient norm :     0.0118647 Eh/α   predicted    -0.4533683E-03 ( -11.48%)
[...]
   135   6 C    3.947 --   136 N    2.757   134 C    1.100
   136   7 N    2.980 --   135 C    2.757
   137   6 C    3.946 --   138 N    2.765   134 C    1.087
   138   7 N    2.983 --   137 C    2.765
   139   1 H    0.994 --     1 C    0.941
   140   1 H    0.996 --    22 C    0.958
   141   1 H    0.998 --    26 C    0.961
   142   1 H    0.998 --    27 C    0.960
   143   1 H    0.997 --    30 C    0.971
   144   1 H    0.996 --    30 C    0.971
   145   1 H    0.997 --    31 C    0.979
   146   1 H    0.997 --    31 C    0.986
   147   1 H    0.997 --    31 C    0.984
   148   1 H    0.996 --    37 C    0.952
   149   1 H    0.997 --    38 C    0.963
   150   1 H    0.997 --    41 C    0.970
   151   1 H    0.997 --    41 C    0.967
   152   1 H    0.997 --    42 C    0.986
   153   1 H    0.996 --    42 C    0.972
   154   1 H    0.998 --    42 C    0.983
   155   1 H    0.996 --    46 C    0.948
   156   1 H    0.999 --    53 C    0.967
   157   1 H    0.998 --    54 C    0.965
   158   1 H    0.995 --    57 C    0.979
   159   1 H    0.996 --    57 C    0.982
   160   1 H    0.996 --    57 C    0.982
   161   1 H    0.997 --    58 C    0.967
   162   1 H    0.998 --    59 C    0.966
   163   1 H    0.998 --    61 C    0.967
   164   1 H    0.997 --    62 C    0.967
   165   1 H    0.996 --    65 C    0.981
   166   1 H    0.997 --    65 C    0.982
   167   1 H    0.996 --    65 C    0.979
   168   1 H    0.998 --    66 C    0.965
   169   1 H    0.998 --    67 C    0.967
   170   1 H    0.998 --    74 C    0.966
   171   1 H    0.997 --    75 C    0.967
   172   1 H    0.995 --    78 C    0.979
   173   1 H    0.997 --    78 C    0.981
   174   1 H    0.997 --    78 C    0.982
   175   1 H    0.998 --    79 C    0.965
   176   1 H    0.998 --    80 C    0.966
   177   1 H    0.998 --    82 C    0.965
   178   1 H    0.997 --    83 C    0.965
   179   1 H    0.996 --    86 C    0.980
   180   1 H    0.995 --    86 C    0.973
   181   1 H    0.997 --    86 C    0.985
   182   1 H    0.997 --    87 C    0.968
   183   1 H    0.999 --    88 C    0.967
   184   1 H    0.997 --    92 C    0.960
   185   1 H    0.998 --    96 C    0.963
   186   1 H    0.997 --    97 C    0.962
   187   1 H    0.999 --   100 C    0.977
   188   1 H    0.996 --   100 C    0.971
   189   1 H    0.996 --   101 C    0.972
   190   1 H    0.997 --   101 C    0.985
   191   1 H    0.998 --   101 C    0.984
   192   1 H    0.997 --   107 C    0.955
   193   1 H    0.997 --   108 C    0.963
   194   1 H    0.996 --   111 C    0.969
   195   1 H    0.995 --   111 C    0.957
   196   1 H    0.997 --   112 C    0.976
   197   1 H    0.998 --   112 C    0.983
   198   1 H    0.997 --   112 C    0.986
   199   1 H    0.997 --   116 C    0.953
   200   1 H    0.989 --   119 C    0.951
 ---------------------------------------------------------------------------

Topologies differ in bond orders
Writing corrected topology to xtbtopo.mol

molecular dipole:
                 x           y           z       tot (Debye)
 q only:        1.615       1.650      -0.482
   full:        1.236       0.783      -0.446       3.888
molecular quadrupole (traceless):
                xx          xy          yy          xz          yz          zz
 q only:        5.980     -62.822      43.556    -127.827     -92.179     -49.536
  q+dip:       17.666     -44.090      26.106     -89.026     -81.595     -43.772
   full:       17.432     -42.802      26.391     -91.045     -80.452     -43.822

           -------------------------------------------------
          |                Geometry Summary                 |
           -------------------------------------------------

      molecular mass/u    :     2288.4375632
   center of mass at/Å    :        0.2661140      -0.1070180       0.4882986
  moments of inertia/u·Å² :        0.4243978E+05   0.2122577E+06   0.2247105E+06
rotational constants/cm⁻¹ :        0.3972130E-03   0.7942059E-04   0.7501932E-04

 * 189 selected distances

     #   Z          #   Z                                           value/Å
     1   6 C        2   6 C                                       1.3696597
     3   6 C        4   8 O                                       1.2125684
     5   6 C        6   6 C                                       1.3834434
     6   6 C        7  17 Cl                                      1.7058267
     6   6 C        8   6 C                                       1.4023993
     8   6 C        9  17 Cl                                      1.7093656
     8   6 C       10   6 C                                       1.3937769
    10   6 C       11  17 Cl                                      1.7104663
    10   6 C       12   6 C                                       1.4047033
    12   6 C       13  17 Cl                                      1.7148642
     5   6 C       14   6 C                                       1.4098354
    12   6 C       14   6 C                                       1.3893891
    15   6 C       16   6 C                                       1.3714767
    17   6 C       18   7 N                                       1.1487920
    19   6 C       20   7 N                                       1.1476657
     1   6 C       21   6 C                                       1.4057790
    21   6 C       22   6 C                                       1.3856765
    22   6 C       23   6 C                                       1.3988080
    23   6 C       24   6 C                                       1.4178943
    25   6 C       26   6 C                                       1.3667946
    26   6 C       27   6 C                                       1.4069569
    27   6 C       28   6 C                                       1.3674371
    28   6 C       29  16 S                                       1.7437191
    30   6 C       31   6 C                                       1.5166017
    25   6 C       32  16 S                                       1.7504912
    28   6 C       32  16 S                                       1.7323429
    24   6 C       33   6 C                                       1.3843596
    33   6 C       34   6 C                                       1.4162492
    34   6 C       35   6 C                                       1.4130644
    36   6 C       37   6 C                                       1.3698843
    37   6 C       38   6 C                                       1.4042000
    38   6 C       39   6 C                                       1.3670299
    39   6 C       40  16 S                                       1.7444638
    41   6 C       42   6 C                                       1.5150392
    36   6 C       43  16 S                                       1.7489770
    39   6 C       43  16 S                                       1.7340579
    23   6 C       44   6 C                                       1.4232152
    35   6 C       44   6 C                                       1.3944827
    21   6 C       45  16 S                                       1.7513609
    44   6 C       45  16 S                                       1.7398792
    34   6 C       46   6 C                                       1.4098718
    46   6 C       47   6 C                                       1.3705263
    33   6 C       48  16 S                                       1.7429197
    47   6 C       48  16 S                                       1.7485777
    47   6 C       49   6 C                                       1.4285051
    49   6 C       50   6 C                                       1.3890182
    50   6 C       51   7 N                                       1.3827989
    51   7 N       52   6 C                                       1.4044924
    52   6 C       53   6 C                                       1.3927402
    53   6 C       54   6 C                                       1.3806737
    54   6 C       55   6 C                                       1.3881259
    55   6 C       58   6 C                                       1.3940374
    52   6 C       59   6 C                                       1.3951194
    58   6 C       59   6 C                                       1.3761606
    51   7 N       60   6 C                                       1.4011023
    60   6 C       61   6 C                                       1.3945032
    61   6 C       62   6 C                                       1.3797172
    62   6 C       63   6 C                                       1.3923437
    63   6 C       66   6 C                                       1.3895025
    60   6 C       67   6 C                                       1.3927266
    66   6 C       67   6 C                                       1.3778042
    50   6 C       68   6 C                                       1.4225522
    68   6 C       69  16 S                                       1.7329588
    69  16 S       70   6 C                                       1.7482137
    70   6 C       71   6 C                                       1.3852003
    71   6 C       72   7 N                                       1.3904678
    72   7 N       73   6 C                                       1.3944084
    73   6 C       74   6 C                                       1.3960811
    74   6 C       75   6 C                                       1.3770210
    75   6 C       76   6 C                                       1.3919409
    76   6 C       79   6 C                                       1.3878262
    73   6 C       80   6 C                                       1.3937402
    79   6 C       80   6 C                                       1.3801793
    72   7 N       81   6 C                                       1.4052127
    81   6 C       82   6 C                                       1.3937024
    82   6 C       83   6 C                                       1.3808772
    83   6 C       84   6 C                                       1.3885238
    84   6 C       87   6 C                                       1.3898908
    81   6 C       88   6 C                                       1.3947113
    87   6 C       88   6 C                                       1.3775186
    68   6 C       89   6 C                                       1.3839214
    71   6 C       89   6 C                                       1.4141177
    89   6 C       90  16 S                                       1.7218684
    70   6 C       91   6 C                                       1.4337992
    91   6 C       92   6 C                                       1.3599093
    92   6 C       93   6 C                                       1.4142119
    93   6 C       94   6 C                                       1.4037474
    95   6 C       96   6 C                                       1.3658602
    96   6 C       97   6 C                                       1.4072131
    97   6 C       98   6 C                                       1.3624272
   100   6 C      101   6 C                                       1.5137468
    95   6 C      102  16 S                                       1.7358074
    98   6 C      102  16 S                                       1.7387059
    94   6 C      103   6 C                                       1.3843409
   103   6 C      104   6 C                                       1.4196739
   104   6 C      105   6 C                                       1.4151075
   106   6 C      107   6 C                                       1.3715665
   107   6 C      108   6 C                                       1.4016472
   108   6 C      109   6 C                                       1.3677010
   109   6 C      110  16 S                                       1.7423503
   111   6 C      112   6 C                                       1.5137207
   106   6 C      113  16 S                                       1.7455822
   109   6 C      113  16 S                                       1.7371076
    93   6 C      114   6 C                                       1.4144169
   105   6 C      114   6 C                                       1.3921132
    91   6 C      115  16 S                                       1.7518504 (max)
   114   6 C      115  16 S                                       1.7456704
   104   6 C      116   6 C                                       1.4068265
   116   6 C      117   6 C                                       1.3739968
   103   6 C      118  16 S                                       1.7367772
   117   6 C      118  16 S                                       1.7486022
   117   6 C      119   6 C                                       1.4193604
   119   6 C      120   6 C                                       1.3585405
   121   6 C      122   8 O                                       1.2055383
   123   6 C      124   6 C                                       1.3845888
   124   6 C      125  17 Cl                                      1.7056442
   124   6 C      126   6 C                                       1.4033966
   126   6 C      127  17 Cl                                      1.7090486
   126   6 C      128   6 C                                       1.3949445
   128   6 C      129  17 Cl                                      1.7100961
   128   6 C      130   6 C                                       1.4035258
   130   6 C      131  17 Cl                                      1.7129443
   123   6 C      132   6 C                                       1.4115783
   130   6 C      132   6 C                                       1.3870734
   133   6 C      134   6 C                                       1.3681410
   135   6 C      136   7 N                                       1.1482231
   137   6 C      138   7 N                                       1.1474862
     1   6 C      139   1 H                                       1.0835073
    22   6 C      140   1 H                                       1.0751108
    26   6 C      141   1 H                                       1.0760013
    27   6 C      142   1 H                                       1.0741937
    30   6 C      143   1 H                                       1.0884292
    30   6 C      144   1 H                                       1.0896144
    31   6 C      145   1 H                                       1.0882406
    31   6 C      146   1 H                                       1.0872454
    31   6 C      147   1 H                                       1.0873338
    37   6 C      148   1 H                                       1.0743167
    38   6 C      149   1 H                                       1.0741655 (min)
    41   6 C      150   1 H                                       1.0897654
    41   6 C      151   1 H                                       1.0905501
    42   6 C      152   1 H                                       1.0876427
    42   6 C      153   1 H                                       1.0878609
    42   6 C      154   1 H                                       1.0873942
    46   6 C      155   1 H                                       1.0743912
    53   6 C      156   1 H                                       1.0806112
    54   6 C      157   1 H                                       1.0779759
    57   6 C      158   1 H                                       1.0855574
    57   6 C      159   1 H                                       1.0862763
    57   6 C      160   1 H                                       1.0860473
    58   6 C      161   1 H                                       1.0790169
    59   6 C      162   1 H                                       1.0794711
    61   6 C      163   1 H                                       1.0796987
    62   6 C      164   1 H                                       1.0789486
    65   6 C      165   1 H                                       1.0859886
    65   6 C      166   1 H                                       1.0862186
    65   6 C      167   1 H                                       1.0856314
    66   6 C      168   1 H                                       1.0777189
    67   6 C      169   1 H                                       1.0799105
    74   6 C      170   1 H                                       1.0797986
    75   6 C      171   1 H                                       1.0790461
    78   6 C      172   1 H                                       1.0855165
    78   6 C      173   1 H                                       1.0861026
    78   6 C      174   1 H                                       1.0856386
    79   6 C      175   1 H                                       1.0782145
    80   6 C      176   1 H                                       1.0795023
    82   6 C      177   1 H                                       1.0797352
    83   6 C      178   1 H                                       1.0788458
    86   6 C      179   1 H                                       1.0856684
    86   6 C      180   1 H                                       1.0855809
    86   6 C      181   1 H                                       1.0854460
    87   6 C      182   1 H                                       1.0790301
    88   6 C      183   1 H                                       1.0799672
    92   6 C      184   1 H                                       1.0749045
    96   6 C      185   1 H                                       1.0756992
    97   6 C      186   1 H                                       1.0748418
   100   6 C      187   1 H                                       1.0906435
   100   6 C      188   1 H                                       1.0893818
   101   6 C      189   1 H                                       1.0876144
   101   6 C      190   1 H                                       1.0874861
   101   6 C      191   1 H                                       1.0877755
   107   6 C      192   1 H                                       1.0750872
   108   6 C      193   1 H                                       1.0744138
   111   6 C      194   1 H                                       1.0894588
   111   6 C      195   1 H                                       1.0900971
   112   6 C      196   1 H                                       1.0873142
   112   6 C      197   1 H                                       1.0881207
   112   6 C      198   1 H                                       1.0880575
   116   6 C      199   1 H                                       1.0751582
   119   6 C      200   1 H                                       1.0833396

 * 6 distinct bonds (by element types)

   Z      Z             #   av. dist./Å        max./Å        min./Å
   1 H    6 C          62     1.0827794     1.0906435     1.0741655
   6 C    6 C          85     1.3981237     1.5166017     1.3585405
   6 C    7 N          10     1.2970650     1.4052127     1.1474862
   6 C    8 O           2     1.2090533     1.2125684     1.2055383
   6 C   16 S          22     1.7419220     1.7518504     1.7218684
   6 C   17 Cl          8     1.7097820     1.7148642     1.7056442


optimized geometry written to: xtbopt.mol


           -------------------------------------------------
          | TOTAL ENERGY             -374.750061413635 Eh   |
          | GRADIENT NORM               0.000497875785 Eh/α |
          | HOMO-LUMO GAP               0.320871887029 eV   |
           -------------------------------------------------

------------------------------------------------------------------------
 * finished run on 2022/02/04 at 05:19:51.529     
------------------------------------------------------------------------
 total:
 * wall-time:     0 d,  0 h,  2 min, 57.937 sec
 *  cpu-time:     0 d,  0 h, 23 min, 43.321 sec
 * ratio c/w:     7.999 speedup
 SCF:
 * wall-time:     0 d,  0 h,  0 min,  1.446 sec
 *  cpu-time:     0 d,  0 h,  0 min, 11.560 sec
 * ratio c/w:     7.996 speedup
 ANC optimizer:
 * wall-time:     0 d,  0 h,  2 min, 56.366 sec
 *  cpu-time:     0 d,  0 h, 23 min, 30.848 sec
 * ratio c/w:     8.000 speedup

