      -----------------------------------------------------------      
     |                   =====================                   |     
     |                           x T B                           |     
     |                   =====================                   |     
     |                         S. Grimme                         |     
     |          Mulliken Center for Theoretical Chemistry        |     
     |                    University of Bonn                     |     
      -----------------------------------------------------------      

   * xtb version 6.4.1 (unknown) compiled by 'oda6@login1.crc.pitt.edu' on 2021-06-25

   xtb is free software: you can redistribute it and/or modify it under
   the terms of the GNU Lesser General Public License as published by
   the Free Software Foundation, either version 3 of the License, or
   (at your option) any later version.
   
   xtb is distributed in the hope that it will be useful,
   but WITHOUT ANY WARRANTY; without even the implied warranty of
   MERCHANTABILITY or FITNESS FOR A PARTICULAR PURPOSE.  See the
   GNU Lesser General Public License for more details.
   
   Cite this work as:
   * C. Bannwarth, E. Caldeweyher, S. Ehlert, A. Hansen, P. Pracht,
     J. Seibert, S. Spicher, S. Grimme, WIREs Comput. Mol. Sci., 2020, 11,
     e01493. DOI: 10.1002/wcms.1493
   
   for GFN2-xTB:
   * C. Bannwarth, S. Ehlert and S. Grimme., J. Chem. Theory Comput., 2019,
     15, 1652-1671. DOI: 10.1021/acs.jctc.8b01176
   for GFN1-xTB:
   * S. Grimme, C. Bannwarth, P. Shushkov, J. Chem. Theory Comput., 2017,
     13, 1989-2009. DOI: 10.1021/acs.jctc.7b00118
   for GFN0-xTB:
   * P. Pracht, E. Caldeweyher, S. Ehlert, S. Grimme, ChemRxiv, 2019, preprint.
     DOI: 10.26434/chemrxiv.8326202.v1
   for GFN-FF:
   * S. Spicher and S. Grimme, Angew. Chem. Int. Ed., 2020, 59, 15665-15673.
     DOI: 10.1002/anie.202004239
   
   for DFT-D4:
   * E. Caldeweyher, C. Bannwarth and S. Grimme, J. Chem. Phys., 2017,
     147, 034112. DOI: 10.1063/1.4993215
   * E. Caldeweyher, S. Ehlert, A. Hansen, H. Neugebauer, S. Spicher,
     C. Bannwarth and S. Grimme, J. Chem. Phys., 2019, 150, 154122.
     DOI: 10.1063/1.5090222
   * E. Caldeweyher, J.-M. Mewes, S. Ehlert and S. Grimme, Phys. Chem. Chem. Phys.
     2020, 22, 8499-8512. DOI: 10.1039/D0CP00502A
   
   for sTDA-xTB:
   * S. Grimme and C. Bannwarth, J. Chem. Phys., 2016, 145, 054103.
     DOI: 10.1063/1.4959605
   
   in the mass-spec context:
   * V. Asgeirsson, C. Bauer and S. Grimme, Chem. Sci., 2017, 8, 4879.
     DOI: 10.1039/c7sc00601b
   * J. Koopman and S. Grimme, ACS Omega 2019, 4, 12, 15120-15133.
     DOI: 10.1021/acsomega.9b02011
   
   for metadynamics refer to:
   * S. Grimme, J. Chem. Theory Comput., 2019, 155, 2847-2862
     DOI: 10.1021/acs.jctc.9b00143
   
   for SPH calculations refer to:
   * S. Spicher and S. Grimme, J. Chem. Theory Comput., 2021, 17, 1701-1714
     DOI: 10.1021/acs.jctc.0c01306
   
   with help from (in alphabetical order)
   P. Atkinson, C. Bannwarth, F. Bohle, G. Brandenburg, E. Caldeweyher
   M. Checinski, S. Dohm, S. Ehlert, S. Ehrlich, I. Gerasimov, J. Koopman
   C. Lavigne, S. Lehtola, F. März, M. Müller, F. Musil, H. Neugebauer
   J. Pisarek, C. Plett, P. Pracht, J. Seibert, P. Shushkov, S. Spicher
   M. Stahn, M. Steiner, T. Strunk, J. Stückrath, T. Rose, and J. Unsleber
   
 * started run on 2022/02/04 at 00:58:16.150     

           -------------------------------------------------
          |                Calculation Setup                |
           -------------------------------------------------

          program call               : /ihome/ghutchison/oda6/xtb/xtb-641/bin/xtb ../../FF_optimized/65_95_46_161_65.mol -opt
          hostname                   : smp-n57
          coordinate file            : ../../FF_optimized/65_95_46_161_65.mol
          omp threads                :                     8
          number of atoms            :                   114
          number of electrons        :                   422
          charge                     :                     0
          spin                       :                   0.0
          first test random number   :      0.99603557431280

   ID    Z sym.   atoms
    1    6 C      1-3, 5, 6, 8, 10, 12, 14-17, 19, 21-25, 27, 29-36, 38, 39,
                  41-50, 52-60, 62, 64, 65, 67-69, 71, 72, 74, 76, 78, 80-83,
                  85
    2    8 O      4, 70
    3   17 Cl     7, 9, 11, 13, 73, 75, 77, 79
    4    7 N      18, 20, 84, 86
    5    9 F      26, 28
    6   16 S      37, 40, 51, 61, 63, 66
    7    1 H      87-114
########################################################################
[WARNING] Please study the warnings concerning your input carefully
-1- prog_main_parseArguments: the use of '-opt' is discouraged, please use '--opt' next time
########################################################################

           -------------------------------------------------
          |                 G F N 2 - x T B                 |
           -------------------------------------------------

        Reference                      10.1021/acs.jctc.8b01176
      * Hamiltonian:
        H0-scaling (s, p, d)           1.850000    2.230000    2.230000
        zeta-weighting                 0.500000
      * Dispersion:
        s8                             2.700000
        a1                             0.520000
        a2                             5.000000
        s9                             5.000000
      * Repulsion:
        kExp                           1.500000    1.000000
        rExp                           1.000000
      * Coulomb:
        alpha                          2.000000
        third order                    shell-resolved
        anisotropic                    true
        a3                             3.000000
        a5                             4.000000
        cn-shift                       1.200000
        cn-exp                         4.000000
        max-rad                        5.000000


          ...................................................
          :                      SETUP                      :
          :.................................................:
          :  # basis functions                 456          :
          :  # atomic orbitals                 442          :
          :  # shells                          214          :
          :  # electrons                       422          :
          :  max. iterations                   250          :
          :  Hamiltonian                  GFN2-xTB          :
          :  restarted?                      false          :
          :  GBSA solvation                  false          :
          :  PC potential                    false          :
          :  electronic temp.          300.0000000     K    :
          :  accuracy                    1.0000000          :
          :  -> integral cutoff          0.2500000E+02      :
          :  -> integral neglect         0.1000000E-07      :
          :  -> SCF convergence          0.1000000E-05 Eh   :
          :  -> wf. convergence          0.1000000E-03 e    :
          :  Broyden damping             0.4000000          :
          ...................................................

 iter      E             dE          RMSdq      gap      omega  full diag
   1   -238.9407651 -0.238941E+03  0.503E+00    1.54       0.0  T
   2   -239.0364167 -0.956516E-01  0.315E+00    0.66       1.0  T
   3   -238.6658087  0.370608E+00  0.225E+00    0.03       1.0  T
   4   -239.0900683 -0.424260E+00  0.105E+00    0.18       1.0  T
   5   -239.2566642 -0.166596E+00  0.390E-01    0.46       1.0  T
   6   -239.2648564 -0.819217E-02  0.208E-01    0.33       1.0  T
   7   -239.2669054 -0.204902E-02  0.162E-01    0.25       1.0  T
   8   -239.2671700 -0.264554E-03  0.994E-02    0.14       1.0  T
   9   -239.2673928 -0.222816E-03  0.807E-02    0.28       1.0  T
  10   -239.2669808  0.411969E-03  0.736E-02    0.14       1.0  T
  11   -239.2676611 -0.680321E-03  0.572E-02    0.28       1.0  T
  12   -239.2683628 -0.701626E-03  0.235E-02    0.19       1.0  T
  13   -239.2683352  0.275871E-04  0.192E-02    0.17       1.0  T
  14   -239.2684043 -0.691692E-04  0.840E-03    0.18       1.1  T
  15   -239.2684092 -0.488248E-05  0.523E-03    0.18       1.8  T
  16   -239.2684113 -0.204056E-05  0.342E-03    0.19       2.7  T
  17   -239.2684118 -0.521902E-06  0.261E-03    0.19       3.6  T
  18   -239.2684118 -0.439678E-08  0.202E-03    0.19       4.6  T
  19   -239.2684123 -0.474236E-06  0.962E-04    0.19       9.7  T
  20   -239.2684123 -0.665034E-08  0.625E-04    0.19      15.0  T

   *** convergence criteria satisfied after 20 iterations ***

         #    Occupation            Energy/Eh            Energy/eV
      -------------------------------------------------------------
         1        2.0000           -1.0911349             -29.6913
       ...           ...                  ...                  ...
       205        2.0000           -0.4028624             -10.9624
       206        2.0000           -0.3984249             -10.8417
       207        2.0000           -0.3940151             -10.7217
       208        2.0000           -0.3882992             -10.5662
       209        2.0000           -0.3839347             -10.4474
       210        2.0000           -0.3762122             -10.2373
       211        1.9453           -0.3634006              -9.8886 (HOMO)
       212        0.0529           -0.3565827              -9.7031 (LUMO)
       213        0.0018           -0.3533387              -9.6148
       214        0.0000           -0.3475022              -9.4560
       215                         -0.3424188              -9.3177
       216                         -0.3008817              -8.1874
       ...                                ...                  ...
       442                          1.0596948              28.8358
      -------------------------------------------------------------
                  HL-Gap            0.0068178 Eh            0.1855 eV
             Fermi-level           -0.3600079 Eh           -9.7963 eV

 SCC (total)                   0 d,  0 h,  0 min,  0.464 sec
 SCC setup                      ...        0 min,  0.001 sec (  0.201%)
 Dispersion                     ...        0 min,  0.006 sec (  1.222%)
 classical contributions        ...        0 min,  0.000 sec (  0.031%)
 integral evaluation            ...        0 min,  0.027 sec (  5.893%)
 iterations                     ...        0 min,  0.380 sec ( 81.961%)
 molecular gradient             ...        0 min,  0.048 sec ( 10.267%)
 printout                       ...        0 min,  0.002 sec (  0.407%)

         :::::::::::::::::::::::::::::::::::::::::::::::::::::
         ::                     SUMMARY                     ::
         :::::::::::::::::::::::::::::::::::::::::::::::::::::
         :: total energy            -236.227287298751 Eh    ::
         :: gradient norm              0.291416863320 Eh/a0 ::
         :: HOMO-LUMO gap              0.185523073174 eV    ::
         ::.................................................::
         :: SCC energy              -239.268412270089 Eh    ::
         :: -> isotropic ES            0.133684957977 Eh    ::
         :: -> anisotropic ES          0.007925311800 Eh    ::
         :: -> anisotropic XC          0.116595559997 Eh    ::
         :: -> dispersion             -0.199269080709 Eh    ::
         :: repulsion energy           3.039650721312 Eh    ::
         :: add. restraining           0.000000000000 Eh    ::
         :: total charge              -0.000000000000 e     ::
         :::::::::::::::::::::::::::::::::::::::::::::::::::::

      ----------------------------------------------------------- 
     |                   =====================                   |
     |                        A N C O P T                        |
     |                   =====================                   |
     |               Approximate Normal Coordinate               |
     |                Rational Function Optimizer                |
      ----------------------------------------------------------- 

          ...................................................
          :                      SETUP                      :
          :.................................................:
          :   optimization level            normal          :
          :   max. optcycles                   342          :
          :   ANC micro-cycles                  20          :
          :   degrees of freedom               336          :
          :.................................................:
          :   RF solver                   davidson          :
          :   write xtbopt.log                true          :
          :   linear?                        false          :
          :   energy convergence         0.5000000E-05 Eh   :
          :   grad. convergence          0.1000000E-02 Eh/α :
          :   maximium RF displ.         1.0000000          :
          :   Hlow (freq-cutoff)         0.1000000E-01      :
          :   Hmax (freq-cutoff)         5.0000000          :
          :   S6 in model hess.         20.0000000          :
          ...................................................

generating ANC from model Hessian ...
Using Lindh-Hessian (1995)
 Shifting diagonal of input Hessian by   9.997762451315282E-003
 Lowest  eigenvalues of input Hessian
    0.000000    0.000000    0.000000    0.000000    0.000000    0.000000
    0.010000    0.010006    0.010024    0.010037    0.010062    0.010080
    0.010097    0.010123    0.010133    0.010160    0.010241    0.010335
 Highest eigenvalues
    2.126175    2.140555    2.489732    2.498048    2.547364    2.553707
 

........................................................................
.............................. CYCLE    1 ..............................
........................................................................
   1   -239.2684123 -0.239268E+03  0.337E-04    0.19       0.0  T
   2   -239.2684123  0.327661E-07  0.420E-04    0.19      22.3  T
   3   -239.2684123 -0.213883E-07  0.300E-04    0.19      31.2  T
     SCC iter.                  ...        0 min,  0.063 sec
     gradient                   ...        0 min,  0.046 sec
 * total energy  :  -236.2272873 Eh     change       -0.4872985E-07 Eh
   gradient norm :     0.2914136 Eh/α   predicted     0.0000000E+00 (-100.00%)
   displ. norm   :     0.4327815 α      lambda       -0.7927083E-01
   maximum displ.:     0.0892743 α      in ANC's #172, #161, #49, ...

........................................................................
.............................. CYCLE    2 ..............................
........................................................................
   1   -239.4214278 -0.239421E+03  0.330E-01    0.27       0.0  T
   2   -239.4226581 -0.123026E-02  0.192E-01    0.19       1.0  T
   3   -239.4217850  0.873083E-03  0.115E-01    0.29       1.0  T
   4   -239.4199871  0.179792E-02  0.100E-01    0.13       1.0  T
   5   -239.4225305 -0.254335E-02  0.524E-02    0.32       1.0  T
   6   -239.4230310 -0.500557E-03  0.267E-02    0.25       1.0  T
   7   -239.4231346 -0.103605E-03  0.165E-02    0.23       1.0  T
   8   -239.4231604 -0.257857E-04  0.109E-02    0.20       1.0  T
   9   -239.4231645 -0.412639E-05  0.772E-03    0.20       1.2  T
  10   -239.4231719 -0.737268E-05  0.419E-03    0.21       2.2  T
  11   -239.4231721 -0.160179E-06  0.256E-03    0.21       3.7  T
  12   -239.4231728 -0.746709E-06  0.110E-03    0.21       8.5  T
  13   -239.4231728 -0.484079E-08  0.779E-04    0.21      12.0  T
  14   -239.4231729 -0.701230E-07  0.435E-04    0.21      21.5  T
     SCC iter.                  ...        0 min,  0.270 sec
     gradient                   ...        0 min,  0.047 sec
 * total energy  :  -236.2851218 Eh     change       -0.5783440E-01 Eh
   gradient norm :     0.1471987 Eh/α   predicted    -0.4711068E-01 ( -18.54%)
   displ. norm   :     0.4402283 α      lambda       -0.3987904E-01
   maximum displ.:     0.0824481 α      in ANC's #172, #161, #52, ...

........................................................................
.............................. CYCLE    3 ..............................
........................................................................
   1   -239.5235161 -0.239524E+03  0.326E-01    0.24       0.0  T
   2   -239.5249587 -0.144263E-02  0.186E-01    0.28       1.0  T
   3   -239.5240686  0.890099E-03  0.121E-01    0.17       1.0  T
   4   -239.5244179 -0.349288E-03  0.768E-02    0.37       1.0  T
   5   -239.5255032 -0.108533E-02  0.410E-02    0.25       1.0  T
   6   -239.5255961 -0.928544E-04  0.208E-02    0.24       1.0  T
   7   -239.5256044 -0.835376E-05  0.152E-02    0.22       1.0  T
   8   -239.5256125 -0.804453E-05  0.100E-02    0.23       1.0  T
   9   -239.5256150 -0.253989E-05  0.659E-03    0.22       1.4  T
  10   -239.5256158 -0.728027E-06  0.400E-03    0.23       2.3  T
  11   -239.5256181 -0.233777E-05  0.180E-03    0.23       5.2  T
  12   -239.5256183 -0.182955E-06  0.115E-03    0.23       8.1  T
  13   -239.5256183 -0.388950E-07  0.906E-04    0.23      10.3  T
  14   -239.5256184 -0.400487E-07  0.627E-04    0.23      14.9  T
     SCC iter.                  ...        0 min,  0.285 sec
     gradient                   ...        0 min,  0.046 sec
 * total energy  :  -236.3058680 Eh     change       -0.2074622E-01 Eh
   gradient norm :     0.0574235 Eh/α   predicted    -0.2380396E-01 (  14.74%)
   displ. norm   :     0.5593597 α      lambda       -0.1378851E-01
   maximum displ.:     0.1805756 α      in ANC's #24, #14, #38, ...

........................................................................
.............................. CYCLE    4 ..............................
........................................................................
   1   -239.5014104 -0.239501E+03  0.410E-01    0.29       0.0  T
   2   -239.5017496 -0.339220E-03  0.228E-01    0.25       1.0  T
   3   -239.5005077  0.124193E-02  0.112E-01    0.26       1.0  T
   4   -239.5019645 -0.145675E-02  0.229E-02    0.25       1.0  T
   5   -239.5019941 -0.296143E-04  0.134E-02    0.25       1.0  T
   6   -239.5020008 -0.672404E-05  0.830E-03    0.25       1.1  T
   7   -239.5020032 -0.239181E-05  0.519E-03    0.25       1.8  T
   8   -239.5020039 -0.736432E-06  0.360E-03    0.25       2.6  T
   9   -239.5020043 -0.326794E-06  0.219E-03    0.25       4.3  T
  10   -239.5020044 -0.175334E-06  0.130E-03    0.25       7.2  T
  11   -239.5020046 -0.136482E-06  0.762E-04    0.25      12.3  T
  12   -239.5020046 -0.519134E-07  0.486E-04    0.25      19.3  T
     SCC iter.                  ...        0 min,  0.241 sec
     gradient                   ...        0 min,  0.046 sec
 * total energy  :  -236.3060129 Eh     change       -0.1449139E-03 Eh
   gradient norm :     0.0845892 Eh/α   predicted    -0.9051540E-02 (6146.15%)
   displ. norm   :     0.3873806 α      lambda       -0.1371606E-01
   maximum displ.:     0.1961100 α      in ANC's #14, #15, #52, ...

........................................................................
.............................. CYCLE    5 ..............................
........................................................................
   1   -239.5294699 -0.239529E+03  0.326E-01    0.25       0.0  T
   2   -239.5297150 -0.245054E-03  0.180E-01    0.25       1.0  T
   3   -239.5296370  0.779352E-04  0.360E-02    0.27       1.0  T
   4   -239.5297762 -0.139200E-03  0.153E-02    0.25       1.0  T
   5   -239.5297964 -0.201673E-04  0.851E-03    0.26       1.1  T
   6   -239.5297987 -0.225999E-05  0.612E-03    0.25       1.5  T
   7   -239.5298007 -0.207054E-05  0.433E-03    0.25       2.2  T
   8   -239.5298019 -0.117345E-05  0.315E-03    0.25       3.0  T
   9   -239.5298024 -0.458763E-06  0.201E-03    0.25       4.7  T
  10   -239.5298026 -0.258627E-06  0.977E-04    0.25       9.6  T
  11   -239.5298027 -0.310263E-07  0.733E-04    0.25      12.8  T
     SCC iter.                  ...        0 min,  0.219 sec
     gradient                   ...        0 min,  0.046 sec
 * total energy  :  -236.3118170 Eh     change       -0.5804148E-02 Eh
   gradient norm :     0.0323489 Eh/α   predicted    -0.7887182E-02 (  35.89%)
   displ. norm   :     0.4418181 α      lambda       -0.5052960E-02
   maximum displ.:     0.1481575 α      in ANC's #28, #49, #22, ...

........................................................................
.............................. CYCLE    6 ..............................
........................................................................
   1   -239.5293636 -0.239529E+03  0.415E-01    0.18       0.0  T
   2   -239.5293840 -0.203747E-04  0.233E-01    0.33       1.0  T
   3   -239.2495104  0.279874E+00  0.854E-01    0.06       1.0  T
   4   -239.5291943 -0.279684E+00  0.759E-02    0.45       1.0  T
   5   -239.5293772 -0.182966E-03  0.561E-02    0.44       1.0  T
   6   -239.5295063 -0.129065E-03  0.509E-02    0.41       1.0  T
   7   -239.5296019 -0.956273E-04  0.455E-02    0.39       1.0  T
   8   -239.5297042 -0.102244E-03  0.403E-02    0.36       1.0  T
   9   -239.5297770 -0.727889E-04  0.358E-02    0.34       1.0  T
  10   -239.5299010 -0.124002E-03  0.278E-02    0.31       1.0  T
  11   -239.5299739 -0.729840E-04  0.218E-02    0.29       1.0  T
  12   -239.5300664 -0.924452E-04  0.119E-02    0.26       1.0  T
  13   -239.5301002 -0.338546E-04  0.497E-03    0.24       1.9  T
  14   -239.5301071 -0.680502E-05  0.108E-03    0.23       8.7  T
  15   -239.5301071 -0.302327E-07  0.941E-04    0.23      10.0  T
  16   -239.5301072 -0.141864E-06  0.641E-04    0.23      14.6  T
     SCC iter.                  ...        0 min,  0.319 sec
     gradient                   ...        0 min,  0.046 sec
 * total energy  :  -236.3105960 Eh     change        0.1221067E-02 Eh
   gradient norm :     0.0423038 Eh/α   predicted    -0.3019659E-02 (-347.30%)
   displ. norm   :     0.2851249 α      lambda       -0.6094282E-02
   maximum displ.:     0.1150972 α      in ANC's #38, #42, #29, ...

........................................................................
.............................. CYCLE    7 ..............................
........................................................................
   1   -239.5421715 -0.239542E+03  0.252E-01    0.28       0.0  T
   2   -239.5422703 -0.987979E-04  0.139E-01    0.23       1.0  T
   3   -239.5418332  0.437129E-03  0.551E-02    0.31       1.0  T
   4   -239.5423363 -0.503118E-03  0.104E-02    0.25       1.0  T
   5   -239.5423433 -0.698710E-05  0.526E-03    0.25       1.8  T
   6   -239.5423443 -0.959662E-06  0.277E-03    0.24       3.4  T
   7   -239.5423448 -0.527767E-06  0.186E-03    0.25       5.0  T
   8   -239.5423452 -0.411633E-06  0.105E-03    0.25       8.9  T
   9   -239.5423452 -0.427629E-07  0.804E-04    0.25      11.7  T
  10   -239.5423453 -0.264519E-07  0.507E-04    0.25      18.5  T
     SCC iter.                  ...        0 min,  0.200 sec
     gradient                   ...        0 min,  0.046 sec
 * total energy  :  -236.3138333 Eh     change       -0.3237370E-02 Eh
   gradient norm :     0.0266676 Eh/α   predicted    -0.3294868E-02 (   1.78%)
   displ. norm   :     0.3615069 α      lambda       -0.2447640E-02
   maximum displ.:     0.1230612 α      in ANC's #38, #49, #28, ...

........................................................................
.............................. CYCLE    8 ..............................
........................................................................
   1   -239.5202340 -0.239520E+03  0.250E-01    0.28       0.0  T
   2   -239.5203328 -0.988034E-04  0.138E-01    0.26       1.0  T
   3   -239.5198832  0.449648E-03  0.707E-02    0.27       1.0  T
   4   -239.5204147 -0.531526E-03  0.903E-03    0.27       1.0  T
   5   -239.5204197 -0.496646E-05  0.570E-03    0.26       1.6  T
   6   -239.5204221 -0.237768E-05  0.309E-03    0.26       3.0  T
   7   -239.5204228 -0.725890E-06  0.196E-03    0.26       4.8  T
   8   -239.5204230 -0.229836E-06  0.137E-03    0.26       6.8  T
   9   -239.5204231 -0.489087E-07  0.106E-03    0.26       8.8  T
  10   -239.5204231 -0.608167E-07  0.644E-04    0.26      14.5  T
  11   -239.5204232 -0.286021E-07  0.380E-04    0.26      24.6  T
     SCC iter.                  ...        0 min,  0.221 sec
     gradient                   ...        0 min,  0.046 sec
 * total energy  :  -236.3132010 Eh     change        0.6323409E-03 Eh
   gradient norm :     0.0493617 Eh/α   predicted    -0.1383758E-02 (-318.83%)
   displ. norm   :     0.2508709 α      lambda       -0.4073074E-02
   maximum displ.:     0.0835747 α      in ANC's #24, #29, #49, ...

........................................................................
.............................. CYCLE    9 ..............................
........................................................................
   1   -239.5395027 -0.239540E+03  0.194E-01    0.24       0.0  T
   2   -239.5395785 -0.758729E-04  0.107E-01    0.27       1.0  T
   3   -239.5393776  0.200972E-03  0.382E-02    0.22       1.0  T
   4   -239.5396002 -0.222646E-03  0.106E-02    0.27       1.0  T
   5   -239.5396180 -0.177651E-04  0.594E-03    0.25       1.6  T
   6   -239.5396210 -0.301292E-05  0.290E-03    0.25       3.2  T
   7   -239.5396212 -0.156435E-06  0.211E-03    0.25       4.4  T
   8   -239.5396213 -0.181936E-06  0.157E-03    0.25       6.0  T
   9   -239.5396214 -0.113258E-06  0.106E-03    0.25       8.8  T
  10   -239.5396215 -0.647034E-07  0.577E-04    0.25      16.2  T
  11   -239.5396215 -0.164683E-07  0.356E-04    0.25      26.3  T
     SCC iter.                  ...        0 min,  0.222 sec
     gradient                   ...        0 min,  0.046 sec
 * total energy  :  -236.3152268 Eh     change       -0.2025841E-02 Eh
   gradient norm :     0.0141745 Eh/α   predicted    -0.2164712E-02 (   6.85%)
   displ. norm   :     0.2908852 α      lambda       -0.1061341E-02
   maximum displ.:     0.1227432 α      in ANC's #28, #29, #35, ...

........................................................................
.............................. CYCLE   10 ..............................
........................................................................
   1   -239.5391587 -0.239539E+03  0.117E-01    0.23       0.0  T
   2   -239.5391757 -0.169957E-04  0.661E-02    0.26       1.0  T
   3   -239.5388546  0.321106E-03  0.395E-02    0.21       1.0  T
   4   -239.5391731 -0.318513E-03  0.122E-02    0.27       1.0  T
   5   -239.5392060 -0.329348E-04  0.456E-03    0.25       2.1  T
   6   -239.5392064 -0.411375E-06  0.284E-03    0.25       3.3  T
   7   -239.5392069 -0.458750E-06  0.188E-03    0.25       5.0  T
   8   -239.5392070 -0.817145E-07  0.143E-03    0.25       6.6  T
   9   -239.5392070 -0.877322E-07  0.101E-03    0.25       9.3  T
  10   -239.5392071 -0.534807E-07  0.601E-04    0.25      15.6  T
  11   -239.5392071 -0.142709E-07  0.358E-04    0.25      26.2  T
     SCC iter.                  ...        0 min,  0.221 sec
     gradient                   ...        0 min,  0.046 sec
 * total energy  :  -236.3157755 Eh     change       -0.5486605E-03 Eh
   gradient norm :     0.0160649 Eh/α   predicted    -0.5755808E-03 (   4.91%)
   displ. norm   :     0.4616173 α      lambda       -0.1378422E-02
   maximum displ.:     0.1886676 α      in ANC's #29, #35, #24, ...

........................................................................
.............................. CYCLE   11 ..............................
........................................................................
   1   -239.5468777 -0.239547E+03  0.144E-01    0.25       0.0  T
   2   -239.5469049 -0.271689E-04  0.810E-02    0.25       1.0  T
   3   -239.5467816  0.123320E-03  0.319E-02    0.25       1.0  T
   4   -239.5469226 -0.141024E-03  0.650E-03    0.25       1.4  T
   5   -239.5469233 -0.695100E-06  0.416E-03    0.25       2.3  T
   6   -239.5469246 -0.134210E-05  0.230E-03    0.25       4.1  T
   7   -239.5469253 -0.678866E-06  0.136E-03    0.25       6.9  T
   8   -239.5469254 -0.132163E-06  0.910E-04    0.25      10.3  T
   9   -239.5469255 -0.255363E-07  0.648E-04    0.25      14.5  T
     SCC iter.                  ...        0 min,  0.180 sec
     gradient                   ...        0 min,  0.046 sec
 * total energy  :  -236.3162863 Eh     change       -0.5107678E-03 Eh
   gradient norm :     0.0289481 Eh/α   predicted    -0.8360777E-03 (  63.69%)
   displ. norm   :     0.4118675 α      lambda       -0.1394556E-02
   maximum displ.:     0.1585520 α      in ANC's #24, #29, #35, ...

........................................................................
.............................. CYCLE   12 ..............................
........................................................................
   1   -239.5429209 -0.239543E+03  0.128E-01    0.24       0.0  T
   2   -239.5429345 -0.136279E-04  0.730E-02    0.26       1.0  T
   3   -239.5426050  0.329573E-03  0.421E-02    0.22       1.0  T
   4   -239.5429518 -0.346836E-03  0.949E-03    0.26       1.0  T
   5   -239.5429637 -0.119036E-04  0.591E-03    0.25       1.6  T
   6   -239.5429668 -0.307586E-05  0.320E-03    0.25       2.9  T
   7   -239.5429672 -0.380768E-06  0.223E-03    0.25       4.2  T
   8   -239.5429673 -0.108918E-06  0.175E-03    0.25       5.4  T
   9   -239.5429674 -0.142288E-06  0.106E-03    0.25       8.8  T
  10   -239.5429675 -0.635145E-07  0.591E-04    0.25      15.9  T
  11   -239.5429675 -0.160974E-07  0.362E-04    0.25      25.9  T
     SCC iter.                  ...        0 min,  0.218 sec
     gradient                   ...        0 min,  0.046 sec
 * total energy  :  -236.3171604 Eh     change       -0.8740942E-03 Eh
   gradient norm :     0.0096623 Eh/α   predicted    -0.8155723E-03 (  -6.70%)
   displ. norm   :     0.3783062 α      lambda       -0.6261595E-03
   maximum displ.:     0.1380382 α      in ANC's #29, #24, #35, ...

........................................................................
.............................. CYCLE   13 ..............................
........................................................................
   1   -239.5437240 -0.239544E+03  0.108E-01    0.24       0.0  T
   2   -239.5437346 -0.106491E-04  0.612E-02    0.25       1.0  T
   3   -239.5435541  0.180529E-03  0.305E-02    0.22       1.0  T
   4   -239.5437433 -0.189242E-03  0.720E-03    0.26       1.3  T
   5   -239.5437499 -0.655273E-05  0.429E-03    0.24       2.2  T
   6   -239.5437519 -0.201245E-05  0.184E-03    0.25       5.1  T
   7   -239.5437521 -0.233389E-06  0.938E-04    0.25      10.0  T
   8   -239.5437521 -0.247033E-07  0.717E-04    0.25      13.1  T
     SCC iter.                  ...        0 min,  0.160 sec
     gradient                   ...        0 min,  0.046 sec
 * total energy  :  -236.3176422 Eh     change       -0.4818153E-03 Eh
   gradient norm :     0.0139578 Eh/α   predicted    -0.3578914E-03 ( -25.72%)
   displ. norm   :     0.5282990 α      lambda       -0.7891547E-03
   maximum displ.:     0.1732597 α      in ANC's #29, #14, #24, ...

........................................................................
.............................. CYCLE   14 ..............................
........................................................................
   1   -239.5464337 -0.239546E+03  0.144E-01    0.25       0.0  T
   2   -239.5464553 -0.216496E-04  0.816E-02    0.25       1.0  T
   3   -239.5462803  0.175009E-03  0.367E-02    0.24       1.0  T
   4   -239.5464763 -0.195974E-03  0.694E-03    0.25       1.3  T
   5   -239.5464770 -0.730332E-06  0.467E-03    0.25       2.0  T
   6   -239.5464786 -0.159590E-05  0.243E-03    0.25       3.9  T
   7   -239.5464795 -0.893595E-06  0.116E-03    0.25       8.1  T
   8   -239.5464796 -0.810339E-07  0.828E-04    0.25      11.3  T
   9   -239.5464796 -0.262088E-07  0.555E-04    0.25      16.9  T
     SCC iter.                  ...        0 min,  0.180 sec
     gradient                   ...        0 min,  0.046 sec
 * total energy  :  -236.3182512 Eh     change       -0.6089805E-03 Eh
   gradient norm :     0.0096879 Eh/α   predicted    -0.5047086E-03 ( -17.12%)
   displ. norm   :     0.5685514 α      lambda       -0.7110399E-03
   maximum displ.:     0.1908624 α      in ANC's #14, #17, #2, ...

........................................................................
.............................. CYCLE   15 ..............................
........................................................................
   1   -239.5477886 -0.239548E+03  0.143E-01    0.25       0.0  T
   2   -239.5478085 -0.199466E-04  0.811E-02    0.25       1.0  T
   3   -239.5475756  0.232933E-03  0.403E-02    0.23       1.0  T
   4   -239.5478308 -0.255245E-03  0.827E-03    0.25       1.1  T
   5   -239.5478342 -0.330730E-05  0.523E-03    0.24       1.8  T
   6   -239.5478362 -0.207692E-05  0.282E-03    0.25       3.3  T
   7   -239.5478374 -0.118358E-05  0.127E-03    0.25       7.3  T
   8   -239.5478375 -0.965590E-07  0.931E-04    0.25      10.1  T
   9   -239.5478375 -0.316416E-07  0.667E-04    0.25      14.1  T
     SCC iter.                  ...        0 min,  0.182 sec
     gradient                   ...        0 min,  0.046 sec
 * total energy  :  -236.3187981 Eh     change       -0.5469044E-03 Eh
   gradient norm :     0.0079619 Eh/α   predicted    -0.4704496E-03 ( -13.98%)
   displ. norm   :     0.5968429 α      lambda       -0.6261332E-03
   maximum displ.:     0.1881829 α      in ANC's #14, #2, #17, ...

........................................................................
.............................. CYCLE   16 ..............................
........................................................................
   1   -239.5448889 -0.239545E+03  0.142E-01    0.25       0.0  T
   2   -239.5449085 -0.195888E-04  0.814E-02    0.26       1.0  T
   3   -239.5445934  0.315117E-03  0.469E-02    0.23       1.0  T
   4   -239.5449387 -0.345347E-03  0.916E-03    0.26       1.0  T
   5   -239.5449448 -0.605053E-05  0.542E-03    0.24       1.7  T
   6   -239.5449470 -0.219078E-05  0.316E-03    0.25       3.0  T
   7   -239.5449482 -0.127232E-05  0.154E-03    0.25       6.1  T
   8   -239.5449483 -0.112603E-06  0.115E-03    0.25       8.1  T
   9   -239.5449484 -0.477038E-07  0.799E-04    0.25      11.7  T
  10   -239.5449484 -0.263402E-07  0.504E-04    0.25      18.6  T
     SCC iter.                  ...        0 min,  0.217 sec
     gradient                   ...        0 min,  0.047 sec
 * total energy  :  -236.3192921 Eh     change       -0.4939971E-03 Eh
   gradient norm :     0.0093536 Eh/α   predicted    -0.4245893E-03 ( -14.05%)
   displ. norm   :     0.5747208 α      lambda       -0.6459643E-03
   maximum displ.:     0.1909860 α      in ANC's #2, #14, #10, ...

........................................................................
.............................. CYCLE   17 ..............................
........................................................................
   1   -239.5522339 -0.239552E+03  0.119E-01    0.25       0.0  T
   2   -239.5522474 -0.135181E-04  0.684E-02    0.25       1.0  T
   3   -239.5520174  0.230074E-03  0.425E-02    0.25       1.0  T
   4   -239.5522775 -0.260119E-03  0.720E-03    0.25       1.3  T
   5   -239.5522807 -0.317650E-05  0.378E-03    0.25       2.5  T
   6   -239.5522813 -0.591845E-06  0.172E-03    0.25       5.5  T
   7   -239.5522814 -0.182778E-06  0.100E-03    0.25       9.4  T
   8   -239.5522815 -0.274454E-07  0.802E-04    0.25      11.7  T
   9   -239.5522815 -0.366977E-07  0.581E-04    0.25      16.1  T
     SCC iter.                  ...        0 min,  0.185 sec
     gradient                   ...        0 min,  0.046 sec
 * total energy  :  -236.3197247 Eh     change       -0.4326624E-03 Eh
   gradient norm :     0.0172773 Eh/α   predicted    -0.4296676E-03 (  -0.69%)
   displ. norm   :     0.6790196 α      lambda       -0.7255902E-03
   maximum displ.:     0.2165229 α      in ANC's #2, #14, #10, ...

........................................................................
.............................. CYCLE   18 ..............................
........................................................................
   1   -239.5365284 -0.239537E+03  0.160E-01    0.24       0.0  T
   2   -239.5365476 -0.191484E-04  0.920E-02    0.26       1.0  T
   3   -239.5360451  0.502538E-03  0.603E-02    0.23       1.0  T
   4   -239.5366029 -0.557859E-03  0.102E-02    0.26       1.0  T
   5   -239.5366098 -0.685174E-05  0.590E-03    0.25       1.6  T
   6   -239.5366119 -0.216515E-05  0.338E-03    0.25       2.8  T
   7   -239.5366135 -0.161523E-05  0.160E-03    0.25       5.9  T
   8   -239.5366137 -0.113597E-06  0.117E-03    0.25       8.0  T
   9   -239.5366137 -0.486643E-07  0.863E-04    0.25      10.8  T
  10   -239.5366137 -0.286394E-07  0.601E-04    0.25      15.6  T
     SCC iter.                  ...        0 min,  0.204 sec
     gradient                   ...        0 min,  0.046 sec
 * total energy  :  -236.3201435 Eh     change       -0.4188209E-03 Eh
   gradient norm :     0.0165511 Eh/α   predicted    -0.5300705E-03 (  26.56%)
   displ. norm   :     0.3830580 α      lambda       -0.5928890E-03
   maximum displ.:     0.1464852 α      in ANC's #15, #2, #10, ...

........................................................................
.............................. CYCLE   19 ..............................
........................................................................
   1   -239.5400459 -0.239540E+03  0.783E-02    0.25       0.0  T
   2   -239.5400539 -0.800083E-05  0.451E-02    0.25       1.0  T
   3   -239.5399670  0.869029E-04  0.267E-02    0.25       1.0  T
   4   -239.5400658 -0.988116E-04  0.416E-03    0.25       2.3  T
   5   -239.5400668 -0.970696E-06  0.245E-03    0.25       3.8  T
   6   -239.5400671 -0.275071E-06  0.134E-03    0.25       7.0  T
   7   -239.5400672 -0.973579E-07  0.928E-04    0.25      10.1  T
   8   -239.5400672 -0.434962E-07  0.702E-04    0.25      13.3  T
     SCC iter.                  ...        0 min,  0.164 sec
     gradient                   ...        0 min,  0.046 sec
 * total energy  :  -236.3205710 Eh     change       -0.4274685E-03 Eh
   gradient norm :     0.0130092 Eh/α   predicted    -0.3399454E-03 ( -20.47%)
   displ. norm   :     0.5235408 α      lambda       -0.7696036E-03
   maximum displ.:     0.1941299 α      in ANC's #15, #2, #1, ...

........................................................................
.............................. CYCLE   20 ..............................
........................................................................
   1   -239.5501972 -0.239550E+03  0.963E-02    0.26       0.0  T
   2   -239.5502074 -0.102206E-04  0.559E-02    0.25       1.0  T
   3   -239.5500773  0.130128E-03  0.335E-02    0.26       1.0  T
   4   -239.5502253 -0.148005E-03  0.569E-03    0.25       1.6  T
   5   -239.5502273 -0.202814E-05  0.357E-03    0.26       2.6  T
   6   -239.5502278 -0.505981E-06  0.227E-03    0.25       4.1  T
   7   -239.5502282 -0.372108E-06  0.158E-03    0.25       5.9  T
   8   -239.5502283 -0.860594E-07  0.124E-03    0.25       7.5  T
   9   -239.5502284 -0.820903E-07  0.773E-04    0.25      12.1  T
  10   -239.5502284 -0.314432E-07  0.447E-04    0.25      20.9  T
     SCC iter.                  ...        0 min,  0.201 sec
     gradient                   ...        0 min,  0.046 sec
 * total energy  :  -236.3210444 Eh     change       -0.4733456E-03 Eh
   gradient norm :     0.0143234 Eh/α   predicted    -0.4902743E-03 (   3.58%)
   displ. norm   :     0.6420998 α      lambda       -0.7145972E-03
   maximum displ.:     0.2389447 α      in ANC's #15, #2, #1, ...
 * RMSD in coord.:     0.5849448 α      energy gain  -0.9375705E-01 Eh

generating ANC from model Hessian ...
Using Lindh-Hessian (1995)
 Shifting diagonal of input Hessian by   9.993171587118474E-003
 Lowest  eigenvalues of input Hessian
    0.000000    0.000000    0.000000    0.000000    0.000000    0.000000
    0.010000    0.010009    0.010036    0.010070    0.010079    0.010102
    0.010132    0.010150    0.010162    0.010262    0.010373    0.010419
 Highest eigenvalues
    2.296964    2.302641    2.606566    2.609046    2.627956    2.659850
 

........................................................................
.............................. CYCLE   21 ..............................
........................................................................
   1   -239.5467443 -0.239547E+03  0.120E-01    0.25       0.0  T
   2   -239.5467561 -0.118068E-04  0.695E-02    0.26       1.0  T
   3   -239.5465250  0.231057E-03  0.429E-02    0.25       1.0  T
   4   -239.5467848 -0.259797E-03  0.732E-03    0.25       1.3  T
   5   -239.5467885 -0.366308E-05  0.374E-03    0.25       2.5  T
   6   -239.5467891 -0.622509E-06  0.168E-03    0.25       5.6  T
   7   -239.5467893 -0.228389E-06  0.966E-04    0.25       9.7  T
   8   -239.5467894 -0.443438E-07  0.699E-04    0.25      13.4  T
     SCC iter.                  ...        0 min,  0.163 sec
     gradient                   ...        0 min,  0.046 sec
 * total energy  :  -236.3214983 Eh     change       -0.4539140E-03 Eh
   gradient norm :     0.0182230 Eh/α   predicted     0.0000000E+00 (-100.00%)
   displ. norm   :     0.1250174 α      lambda       -0.5109275E-03
   maximum displ.:     0.0465832 α      in ANC's #4, #13, #30, ...

........................................................................
.............................. CYCLE   22 ..............................
........................................................................
   1   -239.5452534 -0.239545E+03  0.743E-02    0.26       0.0  T
   2   -239.5452643 -0.108991E-04  0.414E-02    0.26       1.0  T
   3   -239.5452391  0.252222E-04  0.161E-02    0.26       1.0  T
   4   -239.5452707 -0.315774E-04  0.301E-03    0.26       3.1  T
   5   -239.5452709 -0.277713E-06  0.211E-03    0.26       4.4  T
   6   -239.5452711 -0.203696E-06  0.127E-03    0.26       7.4  T
   7   -239.5452712 -0.480404E-07  0.934E-04    0.26      10.0  T
   8   -239.5452712 -0.298155E-07  0.661E-04    0.26      14.2  T
     SCC iter.                  ...        0 min,  0.161 sec
     gradient                   ...        0 min,  0.046 sec
 * total energy  :  -236.3217349 Eh     change       -0.2366462E-03 Eh
   gradient norm :     0.0083059 Eh/α   predicted    -0.2594820E-03 (   9.65%)
   displ. norm   :     0.1426956 α      lambda       -0.2865939E-03
   maximum displ.:     0.0638420 α      in ANC's #4, #13, #2, ...

........................................................................
.............................. CYCLE   23 ..............................
........................................................................
   1   -239.5476453 -0.239548E+03  0.407E-02    0.26       0.0  T
   2   -239.5476475 -0.219542E-05  0.232E-02    0.26       1.0  T
   3   -239.5476299  0.175681E-04  0.112E-02    0.25       1.0  T
   4   -239.5476493 -0.193307E-04  0.236E-03    0.26       4.0  T
   5   -239.5476497 -0.473318E-06  0.154E-03    0.26       6.1  T
   6   -239.5476499 -0.163980E-06  0.956E-04    0.26       9.8  T
   7   -239.5476499 -0.379674E-07  0.690E-04    0.26      13.6  T
     SCC iter.                  ...        0 min,  0.144 sec
     gradient                   ...        0 min,  0.048 sec
 * total energy  :  -236.3219176 Eh     change       -0.1826846E-03 Eh
   gradient norm :     0.0103079 Eh/α   predicted    -0.1463107E-03 ( -19.91%)
   displ. norm   :     0.2428954 α      lambda       -0.2828613E-03
   maximum displ.:     0.1132723 α      in ANC's #4, #13, #2, ...

........................................................................
.............................. CYCLE   24 ..............................
........................................................................
   1   -239.5494937 -0.239549E+03  0.423E-02    0.26       0.0  T
   2   -239.5494957 -0.202601E-05  0.244E-02    0.26       1.0  T
   3   -239.5494829  0.128456E-04  0.105E-02    0.26       1.0  T
   4   -239.5494973 -0.143877E-04  0.239E-03    0.26       3.9  T
   5   -239.5494976 -0.310814E-06  0.168E-03    0.26       5.6  T
   6   -239.5494977 -0.142668E-06  0.108E-03    0.26       8.7  T
   7   -239.5494978 -0.510930E-07  0.835E-04    0.26      11.2  T
   8   -239.5494978 -0.305337E-07  0.588E-04    0.26      15.9  T
     SCC iter.                  ...        0 min,  0.163 sec
     gradient                   ...        0 min,  0.046 sec
 * total energy  :  -236.3221483 Eh     change       -0.2307536E-03 Eh
   gradient norm :     0.0059025 Eh/α   predicted    -0.1497999E-03 ( -35.08%)
   displ. norm   :     0.5185859 α      lambda       -0.5159850E-03
   maximum displ.:     0.2358522 α      in ANC's #4, #13, #2, ...

........................................................................
.............................. CYCLE   25 ..............................
........................................................................
   1   -239.5498379 -0.239550E+03  0.952E-02    0.27       0.0  T
   2   -239.5498463 -0.840228E-05  0.546E-02    0.27       1.0  T
   3   -239.5497870  0.593118E-04  0.221E-02    0.26       1.0  T
   4   -239.5498534 -0.664020E-04  0.410E-03    0.27       2.3  T
   5   -239.5498541 -0.740652E-06  0.285E-03    0.26       3.3  T
   6   -239.5498546 -0.520584E-06  0.157E-03    0.26       6.0  T
   7   -239.5498548 -0.141987E-06  0.112E-03    0.26       8.4  T
   8   -239.5498548 -0.440175E-07  0.847E-04    0.26      11.1  T
   9   -239.5498549 -0.340443E-07  0.576E-04    0.26      16.3  T
     SCC iter.                  ...        0 min,  0.185 sec
     gradient                   ...        0 min,  0.046 sec
 * total energy  :  -236.3224129 Eh     change       -0.2645115E-03 Eh
   gradient norm :     0.0125319 Eh/α   predicted    -0.3273815E-03 (  23.77%)
   displ. norm   :     0.4665485 α      lambda       -0.5752719E-03
   maximum displ.:     0.2204870 α      in ANC's #4, #13, #2, ...

........................................................................
.............................. CYCLE   26 ..............................
........................................................................
   1   -239.5469322 -0.239547E+03  0.932E-02    0.26       0.0  T
   2   -239.5469414 -0.919472E-05  0.529E-02    0.27       1.0  T
   3   -239.5469139  0.274743E-04  0.151E-02    0.26       1.0  T
   4   -239.5469467 -0.327137E-04  0.349E-03    0.27       2.7  T
   5   -239.5469470 -0.308776E-06  0.236E-03    0.26       4.0  T
   6   -239.5469473 -0.341808E-06  0.123E-03    0.27       7.6  T
   7   -239.5469474 -0.103595E-06  0.876E-04    0.26      10.7  T
   8   -239.5469474 -0.261944E-07  0.642E-04    0.27      14.6  T
     SCC iter.                  ...        0 min,  0.162 sec
     gradient                   ...        0 min,  0.046 sec
 * total energy  :  -236.3227774 Eh     change       -0.3645129E-03 Eh
   gradient norm :     0.0125250 Eh/α   predicted    -0.3502450E-03 (  -3.91%)
   displ. norm   :     0.3858423 α      lambda       -0.3346920E-03
   maximum displ.:     0.1890671 α      in ANC's #4, #2, #13, ...

........................................................................
.............................. CYCLE   27 ..............................
........................................................................
   1   -239.5463443 -0.239546E+03  0.588E-02    0.27       0.0  T
   2   -239.5463469 -0.258730E-05  0.340E-02    0.27       1.0  T
   3   -239.5463240  0.229060E-04  0.133E-02    0.27       1.0  T
   4   -239.5463496 -0.256121E-04  0.214E-03    0.27       4.4  T
   5   -239.5463498 -0.149679E-06  0.143E-03    0.27       6.6  T
   6   -239.5463499 -0.106472E-06  0.677E-04    0.27      13.8  T
   7   -239.5463499 -0.196970E-07  0.474E-04    0.27      19.8  T
     SCC iter.                  ...        0 min,  0.142 sec
     gradient                   ...        0 min,  0.046 sec
 * total energy  :  -236.3230696 Eh     change       -0.2922220E-03 Eh
   gradient norm :     0.0088487 Eh/α   predicted    -0.1922651E-03 ( -34.21%)
   displ. norm   :     0.5676302 α      lambda       -0.6340742E-03
   maximum displ.:     0.2865945 α      in ANC's #4, #2, #13, ...

........................................................................
.............................. CYCLE   28 ..............................
........................................................................
   1   -239.5502369 -0.239550E+03  0.822E-02    0.26       0.0  T
   2   -239.5502426 -0.566249E-05  0.483E-02    0.27       1.0  T
   3   -239.5501669  0.757152E-04  0.245E-02    0.26       1.0  T
   4   -239.5502506 -0.837534E-04  0.461E-03    0.27       2.0  T
   5   -239.5502520 -0.139302E-05  0.290E-03    0.27       3.2  T
   6   -239.5502523 -0.286213E-06  0.185E-03    0.27       5.1  T
   7   -239.5502524 -0.885101E-07  0.142E-03    0.27       6.6  T
   8   -239.5502525 -0.730048E-07  0.950E-04    0.27       9.9  T
   9   -239.5502525 -0.325520E-07  0.620E-04    0.27      15.1  T
     SCC iter.                  ...        0 min,  0.187 sec
     gradient                   ...        0 min,  0.046 sec
 * total energy  :  -236.3235531 Eh     change       -0.4835375E-03 Eh
   gradient norm :     0.0077616 Eh/α   predicted    -0.4191976E-03 ( -13.31%)
   displ. norm   :     0.6626139 α      lambda       -0.5379448E-03
   maximum displ.:     0.3379454 α      in ANC's #4, #2, #13, ...

........................................................................
.............................. CYCLE   29 ..............................
........................................................................
   1   -239.5497536 -0.239550E+03  0.906E-02    0.27       0.0  T
   2   -239.5497580 -0.438929E-05  0.533E-02    0.27       1.0  T
   3   -239.5496734  0.846642E-04  0.253E-02    0.27       1.0  T
   4   -239.5497661 -0.927672E-04  0.373E-03    0.27       2.5  T
   5   -239.5497670 -0.834270E-06  0.230E-03    0.27       4.1  T
   6   -239.5497672 -0.237653E-06  0.126E-03    0.27       7.4  T
   7   -239.5497672 -0.540487E-07  0.923E-04    0.27      10.1  T
   8   -239.5497673 -0.251798E-07  0.673E-04    0.27      13.9  T
     SCC iter.                  ...        0 min,  0.158 sec
     gradient                   ...        0 min,  0.046 sec
 * total energy  :  -236.3239836 Eh     change       -0.4305046E-03 Eh
   gradient norm :     0.0089538 Eh/α   predicted    -0.3870668E-03 ( -10.09%)
   displ. norm   :     0.6849218 α      lambda       -0.4942343E-03
   maximum displ.:     0.3560080 α      in ANC's #4, #2, #13, ...

........................................................................
.............................. CYCLE   30 ..............................
........................................................................
   1   -239.5474659 -0.239547E+03  0.941E-02    0.27       0.0  T
   2   -239.5474701 -0.413815E-05  0.548E-02    0.27       1.0  T
   3   -239.5473890  0.810434E-04  0.244E-02    0.27       1.0  T
   4   -239.5474777 -0.886520E-04  0.349E-03    0.27       2.7  T
   5   -239.5474782 -0.534243E-06  0.223E-03    0.27       4.2  T
   6   -239.5474785 -0.244861E-06  0.104E-03    0.27       9.0  T
   7   -239.5474785 -0.491013E-07  0.697E-04    0.27      13.4  T
   8   -239.5474785 -0.125992E-07  0.511E-04    0.27      18.3  T
     SCC iter.                  ...        0 min,  0.161 sec
     gradient                   ...        0 min,  0.046 sec
 * total energy  :  -236.3244215 Eh     change       -0.4378379E-03 Eh
   gradient norm :     0.0096130 Eh/α   predicted    -0.3630511E-03 ( -17.08%)
   displ. norm   :     0.6586921 α      lambda       -0.5824134E-03
   maximum displ.:     0.3553331 α      in ANC's #4, #2, #1, ...

........................................................................
.............................. CYCLE   31 ..............................
........................................................................
   1   -239.5510846 -0.239551E+03  0.937E-02    0.28       0.0  T
   2   -239.5510901 -0.543472E-05  0.541E-02    0.27       1.0  T
   3   -239.5510201  0.699286E-04  0.226E-02    0.27       1.0  T
   4   -239.5510973 -0.771354E-04  0.385E-03    0.27       2.4  T
   5   -239.5510980 -0.704633E-06  0.250E-03    0.27       3.8  T
   6   -239.5510983 -0.308343E-06  0.121E-03    0.27       7.7  T
   7   -239.5510983 -0.483097E-07  0.867E-04    0.27      10.8  T
   8   -239.5510984 -0.215582E-07  0.629E-04    0.27      14.9  T
     SCC iter.                  ...        0 min,  0.159 sec
     gradient                   ...        0 min,  0.046 sec
 * total energy  :  -236.3249190 Eh     change       -0.4975678E-03 Eh
   gradient norm :     0.0073097 Eh/α   predicted    -0.4175564E-03 ( -16.08%)
   displ. norm   :     0.7534714 α      lambda       -0.5744526E-03
   maximum displ.:     0.4084252 α      in ANC's #4, #2, #1, ...

........................................................................
.............................. CYCLE   32 ..............................
........................................................................
   1   -239.5490944 -0.239549E+03  0.108E-01    0.28       0.0  T
   2   -239.5491009 -0.657359E-05  0.621E-02    0.28       1.0  T
   3   -239.5490396  0.612984E-04  0.212E-02    0.28       1.0  T
   4   -239.5491076 -0.679660E-04  0.374E-03    0.28       2.5  T
   5   -239.5491080 -0.417196E-06  0.246E-03    0.28       3.8  T
   6   -239.5491084 -0.343151E-06  0.112E-03    0.28       8.4  T
   7   -239.5491084 -0.498399E-07  0.791E-04    0.28      11.8  T
   8   -239.5491084 -0.171804E-07  0.584E-04    0.28      16.0  T
     SCC iter.                  ...        0 min,  0.163 sec
     gradient                   ...        0 min,  0.046 sec
 * total energy  :  -236.3254281 Eh     change       -0.5090250E-03 Eh
   gradient norm :     0.0062227 Eh/α   predicted    -0.4502986E-03 ( -11.54%)
   displ. norm   :     0.7320207 α      lambda       -0.5613842E-03
   maximum displ.:     0.4066468 α      in ANC's #4, #2, #3, ...

........................................................................
.............................. CYCLE   33 ..............................
........................................................................
   1   -239.5497758 -0.239550E+03  0.109E-01    0.29       0.0  T
   2   -239.5497831 -0.732735E-05  0.623E-02    0.28       1.0  T
   3   -239.5497318  0.513102E-04  0.194E-02    0.29       1.0  T
   4   -239.5497892 -0.574095E-04  0.364E-03    0.28       2.6  T
   5   -239.5497895 -0.272864E-06  0.237E-03    0.28       3.9  T
   6   -239.5497899 -0.360044E-06  0.103E-03    0.28       9.1  T
   7   -239.5497899 -0.499883E-07  0.702E-04    0.28      13.3  T
   8   -239.5497899 -0.172196E-07  0.522E-04    0.28      17.9  T
     SCC iter.                  ...        0 min,  0.163 sec
     gradient                   ...        0 min,  0.046 sec
 * total energy  :  -236.3259191 Eh     change       -0.4910748E-03 Eh
   gradient norm :     0.0067139 Eh/α   predicted    -0.4311075E-03 ( -12.21%)
   displ. norm   :     0.7838430 α      lambda       -0.5329765E-03
   maximum displ.:     0.4366719 α      in ANC's #4, #2, #1, ...

........................................................................
.............................. CYCLE   34 ..............................
........................................................................
   1   -239.5475998 -0.239548E+03  0.106E-01    0.29       0.0  T
   2   -239.5476057 -0.583014E-05  0.615E-02    0.28       1.0  T
   3   -239.5475682  0.374553E-04  0.168E-02    0.29       1.0  T
   4   -239.5476102 -0.419952E-04  0.345E-03    0.28       2.7  T
   5   -239.5476104 -0.231755E-06  0.223E-03    0.29       4.2  T
   6   -239.5476107 -0.323538E-06  0.104E-03    0.28       9.0  T
   7   -239.5476108 -0.453411E-07  0.755E-04    0.29      12.4  T
   8   -239.5476108 -0.162337E-07  0.549E-04    0.29      17.1  T
     SCC iter.                  ...        0 min,  0.162 sec
     gradient                   ...        0 min,  0.046 sec
 * total energy  :  -236.3264015 Eh     change       -0.4823903E-03 Eh
   gradient norm :     0.0066541 Eh/α   predicted    -0.4302218E-03 ( -10.81%)
   displ. norm   :     0.7633416 α      lambda       -0.5642331E-03
   maximum displ.:     0.4327545 α      in ANC's #4, #2, #3, ...

........................................................................
.............................. CYCLE   35 ..............................
........................................................................
   1   -239.5488299 -0.239549E+03  0.112E-01    0.29       0.0  T
   2   -239.5488378 -0.798896E-05  0.645E-02    0.29       1.0  T
   3   -239.5488030  0.348641E-04  0.164E-02    0.29       1.0  T
   4   -239.5488428 -0.397983E-04  0.391E-03    0.29       2.4  T
   5   -239.5488431 -0.291437E-06  0.254E-03    0.29       3.7  T
   6   -239.5488435 -0.475163E-06  0.114E-03    0.29       8.2  T
   7   -239.5488436 -0.554058E-07  0.853E-04    0.29      11.0  T
   8   -239.5488436 -0.277940E-07  0.622E-04    0.29      15.1  T
     SCC iter.                  ...        0 min,  0.163 sec
     gradient                   ...        0 min,  0.046 sec
 * total energy  :  -236.3268943 Eh     change       -0.4927808E-03 Eh
   gradient norm :     0.0071887 Eh/α   predicted    -0.4465063E-03 (  -9.39%)
   displ. norm   :     0.8037679 α      lambda       -0.5674218E-03
   maximum displ.:     0.4562120 α      in ANC's #4, #2, #1, ...

........................................................................
.............................. CYCLE   36 ..............................
........................................................................
   1   -239.5481023 -0.239548E+03  0.106E-01    0.29       0.0  T
   2   -239.5481085 -0.612187E-05  0.612E-02    0.29       1.0  T
   3   -239.5480736  0.348546E-04  0.164E-02    0.29       1.0  T
   4   -239.5481128 -0.392227E-04  0.357E-03    0.29       2.6  T
   5   -239.5481131 -0.272934E-06  0.228E-03    0.29       4.1  T
   6   -239.5481134 -0.309339E-06  0.115E-03    0.29       8.1  T
   7   -239.5481135 -0.615773E-07  0.831E-04    0.29      11.3  T
   8   -239.5481135 -0.209790E-07  0.610E-04    0.29      15.4  T
     SCC iter.                  ...        0 min,  0.158 sec
     gradient                   ...        0 min,  0.046 sec
 * total energy  :  -236.3273986 Eh     change       -0.5043055E-03 Eh
   gradient norm :     0.0080263 Eh/α   predicted    -0.4670039E-03 (  -7.40%)
   displ. norm   :     0.7804088 α      lambda       -0.6048698E-03
   maximum displ.:     0.4454166 α      in ANC's #4, #2, #3, ...

........................................................................
.............................. CYCLE   37 ..............................
........................................................................
   1   -239.5486358 -0.239549E+03  0.113E-01    0.29       0.0  T
   2   -239.5486447 -0.883344E-05  0.648E-02    0.29       1.0  T
   3   -239.5486039  0.408163E-04  0.184E-02    0.29       1.0  T
   4   -239.5486507 -0.468413E-04  0.398E-03    0.29       2.4  T
   5   -239.5486509 -0.155543E-06  0.264E-03    0.29       3.5  T
   6   -239.5486513 -0.491016E-06  0.123E-03    0.29       7.6  T
   7   -239.5486514 -0.572445E-07  0.935E-04    0.29      10.0  T
   8   -239.5486514 -0.304965E-07  0.689E-04    0.29      13.6  T
     SCC iter.                  ...        0 min,  0.157 sec
     gradient                   ...        0 min,  0.046 sec
 * total energy  :  -236.3279313 Eh     change       -0.5326317E-03 Eh
   gradient norm :     0.0082402 Eh/α   predicted    -0.4866313E-03 (  -8.64%)
   displ. norm   :     0.7808461 α      lambda       -0.5990012E-03
   maximum displ.:     0.4431719 α      in ANC's #4, #2, #3, ...

........................................................................
.............................. CYCLE   38 ..............................
........................................................................
   1   -239.5522942 -0.239552E+03  0.110E-01    0.29       0.0  T
   2   -239.5523030 -0.877133E-05  0.633E-02    0.29       1.0  T
   3   -239.5522423  0.607041E-04  0.214E-02    0.29       1.0  T
   4   -239.5523105 -0.682132E-04  0.392E-03    0.29       2.4  T
   5   -239.5523107 -0.199016E-06  0.259E-03    0.29       3.6  T
   6   -239.5523112 -0.440777E-06  0.112E-03    0.29       8.4  T
   7   -239.5523112 -0.731419E-07  0.733E-04    0.29      12.8  T
   8   -239.5523113 -0.197268E-07  0.536E-04    0.29      17.5  T
     SCC iter.                  ...        0 min,  0.161 sec
     gradient                   ...        0 min,  0.046 sec
 * total energy  :  -236.3284470 Eh     change       -0.5157782E-03 Eh
   gradient norm :     0.0071636 Eh/α   predicted    -0.4821186E-03 (  -6.53%)
   displ. norm   :     0.8387753 α      lambda       -0.5919535E-03
   maximum displ.:     0.4791177 α      in ANC's #4, #2, #1, ...

........................................................................
.............................. CYCLE   39 ..............................
........................................................................
   1   -239.5453294 -0.239545E+03  0.128E-01    0.29       0.0  T
   2   -239.5453417 -0.122659E-04  0.733E-02    0.29       1.0  T
   3   -239.5452392  0.102459E-03  0.278E-02    0.29       1.0  T
   4   -239.5453539 -0.114650E-03  0.515E-03    0.29       1.8  T
   5   -239.5453543 -0.486870E-06  0.363E-03    0.29       2.6  T
   6   -239.5453551 -0.757734E-06  0.182E-03    0.29       5.1  T
   7   -239.5453552 -0.110331E-06  0.139E-03    0.29       6.7  T
   8   -239.5453553 -0.595001E-07  0.979E-04    0.29       9.6  T
   9   -239.5453553 -0.368791E-07  0.656E-04    0.29      14.3  T
     SCC iter.                  ...        0 min,  0.179 sec
     gradient                   ...        0 min,  0.046 sec
 * total energy  :  -236.3289352 Eh     change       -0.4881304E-03 Eh
   gradient norm :     0.0122868 Eh/α   predicted    -0.5042104E-03 (   3.29%)
   displ. norm   :     0.6990520 α      lambda       -0.6185833E-03
   maximum displ.:     0.3792991 α      in ANC's #4, #2, #3, ...

........................................................................
.............................. CYCLE   40 ..............................
........................................................................
   1   -239.5559567 -0.239556E+03  0.106E-01    0.30       0.0  T
   2   -239.5559680 -0.113290E-04  0.612E-02    0.30       1.0  T
   3   -239.5558600  0.108039E-03  0.279E-02    0.29       1.0  T
   4   -239.5559816 -0.121627E-03  0.504E-03    0.30       1.9  T
   5   -239.5559828 -0.119464E-05  0.337E-03    0.30       2.8  T
   6   -239.5559834 -0.595138E-06  0.174E-03    0.30       5.4  T
   7   -239.5559835 -0.105181E-06  0.131E-03    0.30       7.1  T
   8   -239.5559836 -0.594639E-07  0.943E-04    0.30       9.9  T
   9   -239.5559836 -0.378223E-07  0.570E-04    0.30      16.4  T
     SCC iter.                  ...        0 min,  0.194 sec
     gradient                   ...        0 min,  0.047 sec
 * total energy  :  -236.3293425 Eh     change       -0.4073305E-03 Eh
   gradient norm :     0.0139903 Eh/α   predicted    -0.4604365E-03 (  13.04%)
   displ. norm   :     0.7481217 α      lambda       -0.6129563E-03
   maximum displ.:     0.4249140 α      in ANC's #4, #2, #3, ...

........................................................................
.............................. CYCLE   41 ..............................
........................................................................
   1   -239.5499112 -0.239550E+03  0.117E-01    0.30       0.0  T
   2   -239.5499231 -0.118755E-04  0.671E-02    0.30       1.0  T
   3   -239.5498223  0.100764E-03  0.267E-02    0.30       1.0  T
   4   -239.5499345 -0.112170E-03  0.472E-03    0.30       2.0  T
   5   -239.5499351 -0.654085E-06  0.314E-03    0.30       3.0  T
   6   -239.5499357 -0.548476E-06  0.148E-03    0.30       6.3  T
   7   -239.5499358 -0.701437E-07  0.111E-03    0.30       8.4  T
   8   -239.5499358 -0.353948E-07  0.842E-04    0.30      11.1  T
   9   -239.5499358 -0.240861E-07  0.564E-04    0.30      16.6  T
     SCC iter.                  ...        0 min,  0.182 sec
     gradient                   ...        0 min,  0.046 sec
 * total energy  :  -236.3298148 Eh     change       -0.4722901E-03 Eh
   gradient norm :     0.0126163 Eh/α   predicted    -0.4780156E-03 (   1.21%)
   displ. norm   :     0.7115668 α      lambda       -0.5449921E-03
   maximum displ.:     0.3944016 α      in ANC's #4, #2, #3, ...

........................................................................
.............................. CYCLE   42 ..............................
........................................................................
   1   -239.5462211 -0.239546E+03  0.986E-02    0.31       0.0  T
   2   -239.5462300 -0.886601E-05  0.574E-02    0.31       1.0  T
   3   -239.5461626  0.673433E-04  0.225E-02    0.31       1.0  T
   4   -239.5462380 -0.753595E-04  0.517E-03    0.31       1.8  T
   5   -239.5462393 -0.132171E-05  0.362E-03    0.31       2.6  T
   6   -239.5462398 -0.558581E-06  0.221E-03    0.31       4.2  T
   7   -239.5462400 -0.143238E-06  0.173E-03    0.31       5.4  T
   8   -239.5462401 -0.116641E-06  0.116E-03    0.31       8.1  T
   9   -239.5462402 -0.811330E-07  0.612E-04    0.31      15.3  T
  10   -239.5462402 -0.211067E-07  0.336E-04    0.31      27.9  T
     SCC iter.                  ...        0 min,  0.204 sec
     gradient                   ...        0 min,  0.046 sec
 * total energy  :  -236.3302481 Eh     change       -0.4332715E-03 Eh
   gradient norm :     0.0098242 Eh/α   predicted    -0.4104710E-03 (  -5.26%)
   displ. norm   :     0.5964296 α      lambda       -0.7456841E-03
   maximum displ.:     0.3182564 α      in ANC's #2, #4, #3, ...
 * RMSD in coord.:     1.1811502 α      energy gain  -0.9203701E-02 Eh

generating ANC from model Hessian ...
Using Lindh-Hessian (1995)
 Shifting diagonal of input Hessian by   9.993702681325071E-003
 Lowest  eigenvalues of input Hessian
    0.000000    0.000000    0.000000    0.000000    0.000000    0.000000
    0.010000    0.010010    0.010031    0.010072    0.010083    0.010103
    0.010140    0.010153    0.010158    0.010256    0.010371    0.010437
 Highest eigenvalues
    2.300170    2.302920    2.594538    2.608558    2.626866    2.636326
 

........................................................................
.............................. CYCLE   43 ..............................
........................................................................
   1   -239.5523707 -0.239552E+03  0.131E-01    0.32       0.0  T
   2   -239.5523936 -0.229254E-04  0.746E-02    0.32       1.0  T
   3   -239.5523250  0.686676E-04  0.263E-02    0.32       1.0  T
   4   -239.5524079 -0.829303E-04  0.600E-03    0.32       1.6  T
   5   -239.5524090 -0.110016E-05  0.423E-03    0.32       2.2  T
   6   -239.5524098 -0.852030E-06  0.228E-03    0.32       4.1  T
   7   -239.5524100 -0.160868E-06  0.179E-03    0.32       5.2  T
   8   -239.5524101 -0.834440E-07  0.128E-03    0.32       7.3  T
   9   -239.5524102 -0.105417E-06  0.710E-04    0.32      13.2  T
  10   -239.5524102 -0.272900E-07  0.448E-04    0.32      20.9  T
     SCC iter.                  ...        0 min,  0.203 sec
     gradient                   ...        0 min,  0.046 sec
 * total energy  :  -236.3305937 Eh     change       -0.3456819E-03 Eh
   gradient norm :     0.0223162 Eh/α   predicted     0.0000000E+00 (-100.00%)
   displ. norm   :     0.1090056 α      lambda       -0.5628751E-03
   maximum displ.:     0.0482306 α      in ANC's #19, #21, #43, ...

........................................................................
.............................. CYCLE   44 ..............................
........................................................................
   1   -239.5542957 -0.239554E+03  0.578E-02    0.31       0.0  T
   2   -239.5543017 -0.598329E-05  0.327E-02    0.32       1.0  T
   3   -239.5542708  0.309517E-04  0.179E-02    0.31       1.0  T
   4   -239.5543069 -0.361704E-04  0.306E-03    0.32       3.1  T
   5   -239.5543076 -0.686878E-06  0.187E-03    0.31       5.0  T
   6   -239.5543078 -0.147709E-06  0.118E-03    0.31       8.0  T
   7   -239.5543078 -0.536444E-07  0.810E-04    0.31      11.6  T
   8   -239.5543078 -0.179977E-07  0.607E-04    0.31      15.4  T
     SCC iter.                  ...        0 min,  0.163 sec
     gradient                   ...        0 min,  0.046 sec
 * total energy  :  -236.3308946 Eh     change       -0.3008174E-03 Eh
   gradient norm :     0.0068072 Eh/α   predicted    -0.2848027E-03 (  -5.32%)
   displ. norm   :     0.1426790 α      lambda       -0.2680415E-03
   maximum displ.:     0.0593444 α      in ANC's #21, #19, #1, ...

........................................................................
.............................. CYCLE   45 ..............................
........................................................................
   1   -239.5550529 -0.239555E+03  0.591E-02    0.32       0.0  T
   2   -239.5550578 -0.484343E-05  0.332E-02    0.32       1.0  T
   3   -239.5550436  0.141930E-04  0.111E-02    0.32       1.0  T
   4   -239.5550605 -0.169440E-04  0.263E-03    0.32       3.6  T
   5   -239.5550609 -0.339592E-06  0.186E-03    0.32       5.0  T
   6   -239.5550610 -0.161266E-06  0.113E-03    0.32       8.3  T
   7   -239.5550611 -0.422622E-07  0.882E-04    0.32      10.6  T
   8   -239.5550611 -0.302565E-07  0.635E-04    0.32      14.8  T
     SCC iter.                  ...        0 min,  0.163 sec
     gradient                   ...        0 min,  0.046 sec
 * total energy  :  -236.3310030 Eh     change       -0.1084823E-03 Eh
   gradient norm :     0.0107113 Eh/α   predicted    -0.1368470E-03 (  26.15%)
   displ. norm   :     0.2461278 α      lambda       -0.3876276E-03
   maximum displ.:     0.1223912 α      in ANC's #19, #21, #1, ...

........................................................................
.............................. CYCLE   46 ..............................
........................................................................
   1   -239.5541693 -0.239554E+03  0.770E-02    0.33       0.0  T
   2   -239.5541770 -0.771204E-05  0.435E-02    0.32       1.0  T
   3   -239.5541494  0.275707E-04  0.155E-02    0.33       1.0  T
   4   -239.5541822 -0.327600E-04  0.312E-03    0.32       3.0  T
   5   -239.5541826 -0.421492E-06  0.206E-03    0.32       4.5  T
   6   -239.5541828 -0.190085E-06  0.107E-03    0.32       8.7  T
   7   -239.5541828 -0.440976E-07  0.851E-04    0.32      11.0  T
   8   -239.5541828 -0.229660E-07  0.667E-04    0.32      14.0  T
     SCC iter.                  ...        0 min,  0.161 sec
     gradient                   ...        0 min,  0.046 sec
 * total energy  :  -236.3311933 Eh     change       -0.1903056E-03 Eh
   gradient norm :     0.0104726 Eh/α   predicted    -0.2055550E-03 (   8.01%)
   displ. norm   :     0.3026490 α      lambda       -0.4232821E-03
   maximum displ.:     0.1546469 α      in ANC's #19, #21, #1, ...

........................................................................
.............................. CYCLE   47 ..............................
........................................................................
   1   -239.5514595 -0.239551E+03  0.957E-02    0.32       0.0  T
   2   -239.5514742 -0.146408E-04  0.534E-02    0.32       1.0  T
   3   -239.5514438  0.303338E-04  0.174E-02    0.32       1.0  T
   4   -239.5514822 -0.383564E-04  0.355E-03    0.32       2.6  T
   5   -239.5514824 -0.202060E-06  0.243E-03    0.32       3.9  T
   6   -239.5514828 -0.372917E-06  0.116E-03    0.32       8.1  T
   7   -239.5514828 -0.415185E-07  0.922E-04    0.32      10.2  T
   8   -239.5514828 -0.285789E-07  0.682E-04    0.32      13.7  T
     SCC iter.                  ...        0 min,  0.161 sec
     gradient                   ...        0 min,  0.049 sec
 * total energy  :  -236.3314908 Eh     change       -0.2974182E-03 Eh
   gradient norm :     0.0103451 Eh/α   predicted    -0.2310338E-03 ( -22.32%)
   displ. norm   :     0.5082367 α      lambda       -0.6262767E-03
   maximum displ.:     0.2536954 α      in ANC's #19, #21, #1, ...

........................................................................
.............................. CYCLE   48 ..............................
........................................................................
   1   -239.5503663 -0.239550E+03  0.116E-01    0.33       0.0  T
   2   -239.5503832 -0.169405E-04  0.660E-02    0.33       1.0  T
   3   -239.5503151  0.681050E-04  0.262E-02    0.32       1.0  T
   4   -239.5503950 -0.798729E-04  0.497E-03    0.33       1.9  T
   5   -239.5503956 -0.578531E-06  0.334E-03    0.32       2.8  T
   6   -239.5503964 -0.789616E-06  0.140E-03    0.32       6.7  T
   7   -239.5503964 -0.855478E-07  0.100E-03    0.32       9.3  T
   8   -239.5503965 -0.244640E-07  0.744E-04    0.32      12.6  T
   9   -239.5503965 -0.227095E-07  0.448E-04    0.32      20.9  T
     SCC iter.                  ...        0 min,  0.185 sec
     gradient                   ...        0 min,  0.046 sec
 * total energy  :  -236.3319732 Eh     change       -0.4824312E-03 Eh
   gradient norm :     0.0165689 Eh/α   predicted    -0.3940238E-03 ( -18.33%)
   displ. norm   :     0.6150190 α      lambda       -0.7425204E-03
   maximum displ.:     0.3137410 α      in ANC's #19, #21, #1, ...

........................................................................
.............................. CYCLE   49 ..............................
........................................................................
   1   -239.5519838 -0.239552E+03  0.132E-01    0.34       0.0  T
   2   -239.5520046 -0.207339E-04  0.754E-02    0.33       1.0  T
   3   -239.5519045  0.100060E-03  0.298E-02    0.34       1.0  T
   4   -239.5520206 -0.116088E-03  0.544E-03    0.33       1.7  T
   5   -239.5520211 -0.501610E-06  0.364E-03    0.33       2.6  T
   6   -239.5520220 -0.847559E-06  0.154E-03    0.33       6.1  T
   7   -239.5520220 -0.853518E-07  0.113E-03    0.33       8.3  T
   8   -239.5520221 -0.376441E-07  0.836E-04    0.33      11.2  T
   9   -239.5520221 -0.276223E-07  0.487E-04    0.33      19.2  T
     SCC iter.                  ...        0 min,  0.178 sec
     gradient                   ...        0 min,  0.046 sec
 * total energy  :  -236.3325904 Eh     change       -0.6172435E-03 Eh
   gradient norm :     0.0176638 Eh/α   predicted    -0.5116946E-03 ( -17.10%)
   displ. norm   :     0.5551830 α      lambda       -0.1022327E-02
   maximum displ.:     0.2699260 α      in ANC's #19, #21, #1, ...

........................................................................
.............................. CYCLE   50 ..............................
........................................................................
   1   -239.5638610 -0.239564E+03  0.113E-01    0.37       0.0  T
   2   -239.5638764 -0.153459E-04  0.659E-02    0.36       1.0  T
   3   -239.5637736  0.102815E-03  0.306E-02    0.36       1.0  T
   4   -239.5638905 -0.116916E-03  0.550E-03    0.36       1.7  T
   5   -239.5638917 -0.120455E-05  0.386E-03    0.36       2.4  T
   6   -239.5638924 -0.738931E-06  0.230E-03    0.36       4.1  T
   7   -239.5638926 -0.132991E-06  0.182E-03    0.36       5.1  T
   8   -239.5638927 -0.120274E-06  0.135E-03    0.36       7.0  T
   9   -239.5638928 -0.862799E-07  0.843E-04    0.36      11.1  T
  10   -239.5638928 -0.518906E-07  0.413E-04    0.36      22.7  T
     SCC iter.                  ...        0 min,  0.204 sec
     gradient                   ...        0 min,  0.046 sec
 * total energy  :  -236.3331895 Eh     change       -0.5990216E-03 Eh
   gradient norm :     0.0197150 Eh/α   predicted    -0.6687489E-03 (  11.64%)
   displ. norm   :     0.6514147 α      lambda       -0.1120177E-02
   maximum displ.:     0.3221952 α      in ANC's #19, #21, #1, ...

........................................................................
.............................. CYCLE   51 ..............................
........................................................................
   1   -239.5557890 -0.239556E+03  0.178E-01    0.37       0.0  T
   2   -239.5558355 -0.464748E-04  0.101E-01    0.37       1.0  T
   3   -239.5555593  0.276158E-03  0.510E-02    0.36       1.0  T
   4   -239.5558786 -0.319297E-03  0.692E-03    0.37       1.4  T
   5   -239.5558779  0.664429E-06  0.522E-03    0.37       1.8  T
   6   -239.5558804 -0.246006E-05  0.210E-03    0.37       4.5  T
   7   -239.5558806 -0.160714E-06  0.143E-03    0.37       6.5  T
   8   -239.5558806 -0.720657E-07  0.108E-03    0.37       8.7  T
   9   -239.5558807 -0.349219E-07  0.724E-04    0.37      12.9  T
  10   -239.5558807 -0.339875E-07  0.391E-04    0.37      24.0  T
     SCC iter.                  ...        0 min,  0.205 sec
     gradient                   ...        0 min,  0.046 sec
 * total energy  :  -236.3337285 Eh     change       -0.5390283E-03 Eh
   gradient norm :     0.0344321 Eh/α   predicted    -0.7977581E-03 (  48.00%)
   displ. norm   :     0.3276764 α      lambda       -0.9051830E-03
   maximum displ.:     0.1454857 α      in ANC's #19, #1, #4, ...

........................................................................
.............................. CYCLE   52 ..............................
........................................................................
   1   -239.5543822 -0.239554E+03  0.906E-02    0.38       0.0  T
   2   -239.5543938 -0.115034E-04  0.516E-02    0.38       1.0  T
   3   -239.5543524  0.413657E-04  0.183E-02    0.38       1.0  T
   4   -239.5544007 -0.482904E-04  0.403E-03    0.38       2.3  T
   5   -239.5544013 -0.651636E-06  0.271E-03    0.38       3.5  T
   6   -239.5544018 -0.424633E-06  0.144E-03    0.38       6.5  T
   7   -239.5544018 -0.490446E-07  0.115E-03    0.38       8.1  T
   8   -239.5544019 -0.496039E-07  0.860E-04    0.38      10.9  T
   9   -239.5544019 -0.308789E-07  0.564E-04    0.38      16.6  T
     SCC iter.                  ...        0 min,  0.182 sec
     gradient                   ...        0 min,  0.046 sec
 * total energy  :  -236.3343302 Eh     change       -0.6017629E-03 Eh
   gradient norm :     0.0160601 Eh/α   predicted    -0.5011927E-03 ( -16.71%)
   displ. norm   :     0.3205352 α      lambda       -0.1128523E-02
   maximum displ.:     0.1170609 α      in ANC's #35, #1, #4, ...

........................................................................
.............................. CYCLE   53 ..............................
........................................................................
   1   -239.5647206 -0.239565E+03  0.103E-01    0.40       0.0  T
   2   -239.5647470 -0.264006E-04  0.630E-02    0.40       1.0  T
   3   -239.5646206  0.126426E-03  0.417E-02    0.40       1.0  T
   4   -239.5647898 -0.169230E-03  0.119E-02    0.40       1.0  T
   5   -239.5647984 -0.866126E-05  0.801E-03    0.40       1.2  T
   6   -239.5648002 -0.170518E-05  0.533E-03    0.40       1.8  T
   7   -239.5648012 -0.101607E-05  0.370E-03    0.40       2.5  T
   8   -239.5648018 -0.583626E-06  0.203E-03    0.40       4.6  T
   9   -239.5648020 -0.226280E-06  0.117E-03    0.40       8.0  T
  10   -239.5648020 -0.662784E-07  0.772E-04    0.40      12.1  T
  11   -239.5648021 -0.223096E-07  0.551E-04    0.40      17.0  T
     SCC iter.                  ...        0 min,  0.223 sec
[...]
    93   1 H        0.924     0.048     2.346     2.395
    94   1 H        0.925     0.043     2.408     2.427
    95   1 H        0.925     0.044     2.391     2.418
    96   1 H        0.925     0.041     2.436     2.441
    97   1 H        0.926     0.056     2.244     2.343
    98   1 H        0.926     0.057     2.235     2.338
    99   1 H        0.926     0.045     2.381     2.413
   100   1 H        0.926     0.039     2.462     2.454
   101   1 H        0.924     0.045     2.385     2.415
   102   1 H        0.924     0.046     2.374     2.409
   103   1 H        0.925     0.044     2.396     2.421
   104   1 H        0.925     0.042     2.425     2.435
   105   1 H        0.925     0.042     2.423     2.434
   106   1 H        0.926     0.048     2.350     2.397
   107   1 H        0.926     0.042     2.428     2.437
   108   1 H        0.924     0.048     2.346     2.395
   109   1 H        0.924     0.045     2.385     2.415
   110   1 H        0.925     0.054     2.265     2.354
   111   1 H        0.925     0.040     2.448     2.447
   112   1 H        0.925     0.039     2.462     2.454
   113   1 H        0.926     0.107     1.720     2.051
   114   1 H        0.925     0.072     2.062     2.245

 Mol. C6AA /au·bohr⁶  :     316209.159097
 Mol. C8AA /au·bohr⁸  :    9711251.162084
 Mol. α(0) /au        :        898.166680


Wiberg/Mayer (AO) data.
largest (>0.10) Wiberg bond orders for each atom

 ---------------------------------------------------------------------------
     #   Z sym  total        # sym  WBO       # sym  WBO       # sym  WBO
 ---------------------------------------------------------------------------
     1   6 C    3.942 --     2 C    1.652    21 C    1.133    87 H    0.945
     2   6 C    3.968 --     1 C    1.652    15 C    1.095     3 C    0.995
     3   6 C    3.933 --     4 O    1.805     5 C    1.017     2 C    0.995
     4   8 O    2.095 --     3 C    1.805
     5   6 C    3.971 --     6 C    1.372    14 C    1.271     3 C    1.017
     6   6 C    3.939 --     5 C    1.372     8 C    1.313     7 Cl   1.050
     7  17 Cl   1.227 --     6 C    1.050
     8   6 C    3.927 --    10 C    1.360     6 C    1.313     9 Cl   1.038
     9  17 Cl   1.202 --     8 C    1.038
    10   6 C    3.934 --     8 C    1.360    12 C    1.320    11 Cl   1.040
    11  17 Cl   1.206 --    10 C    1.040
    12   6 C    3.925 --    14 C    1.365    10 C    1.320    13 Cl   1.026
    13  17 Cl   1.201 --    12 C    1.026
    14   6 C    3.982 --    12 C    1.365     5 C    1.271    15 C    1.084
    15   6 C    3.976 --    16 C    1.521     2 C    1.095    14 C    1.084
    16   6 C    3.973 --    15 C    1.521    17 C    1.087    19 C    1.087
    17   6 C    3.948 --    18 N    2.779    16 C    1.087
    18   7 N    2.985 --    17 C    2.779
    19   6 C    3.948 --    20 N    2.781    16 C    1.087
    20   7 N    2.984 --    19 C    2.781
    21   6 C    3.965 --    22 C    1.328    27 C    1.306     1 C    1.133
    22   6 C    3.984 --    23 C    1.498    21 C    1.328    88 H    0.966
    23   6 C    3.982 --    22 C    1.498    24 C    1.335    89 H    0.965
    24   6 C    3.976 --    23 C    1.335    25 C    1.318    29 C    1.105
    25   6 C    3.886 --    27 C    1.376    24 C    1.318    26 F    0.984
    26   9 F    1.132 --    25 C    0.984
    27   6 C    3.888 --    25 C    1.376    21 C    1.306    28 F    0.989
    28   9 F    1.134 --    27 C    0.989
    29   6 C    3.916 --    30 C    1.404    40 S    1.157    24 C    1.105
    30   6 C    3.967 --    29 C    1.404    38 C    1.280    31 C    1.109
    31   6 C    3.946 --    32 C    1.529    37 S    1.129    30 C    1.109
    32   6 C    3.983 --    31 C    1.529    33 C    1.295    90 H    0.963
    33   6 C    3.983 --    34 C    1.576    32 C    1.295    91 H    0.964
    34   6 C    3.936 --    33 C    1.576    37 S    1.165    35 C    1.027
    35   6 C    3.996 --    34 C    1.027    36 C    0.998    92 H    0.971
                            93 H    0.966
    36   6 C    3.992 --    35 C    0.998    96 H    0.988    95 H    0.987
                            94 H    0.985
    37  16 S    2.589 --    34 C    1.165    31 C    1.129
    38   6 C    3.957 --    39 C    1.483    30 C    1.280    97 H    0.958
    39   6 C    3.941 --    38 C    1.483    41 C    1.158    40 S    1.148
    40  16 S    2.637 --    29 C    1.157    39 C    1.148
    41   6 C    3.925 --    42 C    1.518    39 C    1.158    63 S    1.107
    42   6 C    3.961 --    41 C    1.518    43 C    1.249    98 H    0.954
    43   6 C    3.963 --    44 C    1.257    42 C    1.249    62 C    1.244
    44   6 C    3.941 --    52 C    1.366    43 C    1.257    45 C    1.100
    45   6 C    3.945 --    46 C    1.540    51 S    1.121    44 C    1.100
                            48 C    0.101
    46   6 C    3.962 --    45 C    1.540    47 C    1.288    99 H    0.958
    47   6 C    3.982 --    48 C    1.582    46 C    1.288   100 H    0.964
    48   6 C    3.934 --    47 C    1.582    51 S    1.162    49 C    1.026
                            45 C    0.101
    49   6 C    3.996 --    48 C    1.026    50 C    0.998   101 H    0.970
                           102 H    0.968
    50   6 C    3.992 --    49 C    0.998   105 H    0.988   103 H    0.987
                           104 H    0.986
    51  16 S    2.581 --    48 C    1.162    45 C    1.121
    52   6 C    3.947 --    44 C    1.366    53 C    1.228    66 S    1.123
    53   6 C    3.969 --    64 C    1.294    54 C    1.233    52 C    1.228
    54   6 C    3.940 --    62 C    1.371    53 C    1.233    55 C    1.116
    55   6 C    3.941 --    56 C    1.514    61 S    1.126    54 C    1.116
    56   6 C    3.958 --    55 C    1.514    57 C    1.305   106 H    0.958
    57   6 C    3.978 --    58 C    1.559    56 C    1.305   107 H    0.964
    58   6 C    3.929 --    57 C    1.559    61 S    1.181    59 C    1.028
    59   6 C    3.995 --    58 C    1.028    60 C    0.996   109 H    0.971
                           108 H    0.967
    60   6 C    3.990 --    59 C    0.996   112 H    0.989   111 H    0.985
                           110 H    0.985
    61  16 S    2.612 --    58 C    1.181    55 C    1.126
    62   6 C    3.945 --    54 C    1.371    43 C    1.244    63 S    1.102
    63  16 S    2.534 --    41 C    1.107    62 C    1.102
    64   6 C    3.941 --    65 C    1.453    53 C    1.294   113 H    0.927
    65   6 C    3.932 --    64 C    1.453    67 C    1.259    66 S    1.068
    66  16 S    2.514 --    52 C    1.123    65 C    1.068
    67   6 C    3.946 --    68 C    1.537    65 C    1.259   114 H    0.947
    68   6 C    3.944 --    67 C    1.537    81 C    1.109    69 C    1.041
    69   6 C    3.931 --    70 O    1.753    68 C    1.041    71 C    1.015
    70   8 O    2.073 --    69 C    1.753
    71   6 C    3.971 --    72 C    1.378    80 C    1.274    69 C    1.015
    72   6 C    3.934 --    71 C    1.378    74 C    1.314    73 Cl   1.042
    73  17 Cl   1.213 --    72 C    1.042
    74   6 C    3.925 --    76 C    1.365    72 C    1.314    75 Cl   1.032
    75  17 Cl   1.193 --    74 C    1.032
    76   6 C    3.931 --    74 C    1.365    78 C    1.319    77 Cl   1.035
    77  17 Cl   1.196 --    76 C    1.035
    78   6 C    3.923 --    80 C    1.364    76 C    1.319    79 Cl   1.027
    79  17 Cl   1.204 --    78 C    1.027
    80   6 C    3.978 --    78 C    1.364    71 C    1.274    81 C    1.085
    81   6 C    3.970 --    82 C    1.508    68 C    1.109    80 C    1.085
    82   6 C    3.947 --    81 C    1.508    83 C    1.090    85 C    1.089
    83   6 C    3.947 --    84 N    2.774    82 C    1.090
    84   7 N    2.978 --    83 C    2.774
    85   6 C    3.947 --    86 N    2.769    82 C    1.089
    86   7 N    2.975 --    85 C    2.769
    87   1 H    0.988 --     1 C    0.945
    88   1 H    0.996 --    22 C    0.966
    89   1 H    0.995 --    23 C    0.965
    90   1 H    0.999 --    32 C    0.963
    91   1 H    0.998 --    33 C    0.964
    92   1 H    0.998 --    35 C    0.971
    93   1 H    0.996 --    35 C    0.966
    94   1 H    0.997 --    36 C    0.985
    95   1 H    0.998 --    36 C    0.987
    96   1 H    0.998 --    36 C    0.988
    97   1 H    0.996 --    38 C    0.958
    98   1 H    0.996 --    42 C    0.954
    99   1 H    0.998 --    46 C    0.958
   100   1 H    0.998 --    47 C    0.964
   101   1 H    0.997 --    49 C    0.970
   102   1 H    0.997 --    49 C    0.968
   103   1 H    0.998 --    50 C    0.987
   104   1 H    0.997 --    50 C    0.986
   105   1 H    0.998 --    50 C    0.988
   106   1 H    0.997 --    56 C    0.958
   107   1 H    0.998 --    57 C    0.964
   108   1 H    0.996 --    59 C    0.967
   109   1 H    0.998 --    59 C    0.971
   110   1 H    0.997 --    60 C    0.985
   111   1 H    0.997 --    60 C    0.985
   112   1 H    0.998 --    60 C    0.989
   113   1 H    0.988 --    64 C    0.927
   114   1 H    0.994 --    67 C    0.947
 ---------------------------------------------------------------------------

Topologies differ in bond orders
Writing corrected topology to xtbtopo.mol

molecular dipole:
                 x           y           z       tot (Debye)
 q only:       -2.363      -2.845      -0.913
   full:       -1.450      -3.749      -1.479      10.887
molecular quadrupole (traceless):
                xx          xy          yy          xz          yz          zz
 q only:       44.556      30.844      49.041      -4.373     -43.889     -93.597
  q+dip:       38.151      40.528      48.102       6.359     -23.728     -86.253
   full:       40.168      39.061      50.997       7.181     -26.205     -91.166

           -------------------------------------------------
          |                Geometry Summary                 |
           -------------------------------------------------

      molecular mass/u    :     1398.9440927
   center of mass at/Å    :        1.1425216      -0.1600215      -0.6508145
  moments of inertia/u·Å² :        0.2397928E+05   0.9720589E+05   0.1106941E+06
rotational constants/cm⁻¹ :        0.7030082E-03   0.1734219E-03   0.1522903E-03

 * 107 selected distances

     #   Z          #   Z                                           value/Å
     1   6 C        2   6 C                                       1.3497890
     3   6 C        4   8 O                                       1.2038315
     5   6 C        6   6 C                                       1.3855101
     6   6 C        7  17 Cl                                      1.7046557
     6   6 C        8   6 C                                       1.4031680
     8   6 C        9  17 Cl                                      1.7084314
     8   6 C       10   6 C                                       1.3957287
    10   6 C       11  17 Cl                                      1.7090607
    10   6 C       12   6 C                                       1.4036641
    12   6 C       13  17 Cl                                      1.7151337
     5   6 C       14   6 C                                       1.4109887
    12   6 C       14   6 C                                       1.3882118
    15   6 C       16   6 C                                       1.3658376
    17   6 C       18   7 N                                       1.1468710
    19   6 C       20   7 N                                       1.1466835
    21   6 C       22   6 C                                       1.4010498
    22   6 C       23   6 C                                       1.3730103
    23   6 C       24   6 C                                       1.4005495
    24   6 C       25   6 C                                       1.3986779
    21   6 C       27   6 C                                       1.3992408
    25   6 C       27   6 C                                       1.3831781
    27   6 C       28   9 F                                       1.3390977
    29   6 C       30   6 C                                       1.3882564
    30   6 C       31   6 C                                       1.4416325
    31   6 C       32   6 C                                       1.3685791
    32   6 C       33   6 C                                       1.4075375
    33   6 C       34   6 C                                       1.3622308
    34   6 C       35   6 C                                       1.4892939
    35   6 C       36   6 C                                       1.5303007
    31   6 C       37  16 S                                       1.7419144
    34   6 C       37  16 S                                       1.7312318
    30   6 C       38   6 C                                       1.4108960
    38   6 C       39   6 C                                       1.3727208
    29   6 C       40  16 S                                       1.7331416
    39   6 C       40  16 S                                       1.7336895
    39   6 C       41   6 C                                       1.4270307
    41   6 C       42   6 C                                       1.3670631
    42   6 C       43   6 C                                       1.4144939
    43   6 C       44   6 C                                       1.4123204
    45   6 C       46   6 C                                       1.3674898
    46   6 C       47   6 C                                       1.4080073
    47   6 C       48   6 C                                       1.3610935
    48   6 C       49   6 C                                       1.4894377
    49   6 C       50   6 C                                       1.5305102
    45   6 C       51  16 S                                       1.7444752
    48   6 C       51  16 S                                       1.7317895
    44   6 C       52   6 C                                       1.3912242
    52   6 C       53   6 C                                       1.4222215
    53   6 C       54   6 C                                       1.4161883
    55   6 C       56   6 C                                       1.3712435
    56   6 C       57   6 C                                       1.4052066
    57   6 C       58   6 C                                       1.3640253
    58   6 C       59   6 C                                       1.4883609
    59   6 C       60   6 C                                       1.5313128
    55   6 C       61  16 S                                       1.7429607
    58   6 C       61  16 S                                       1.7257920
    43   6 C       62   6 C                                       1.4186666
    54   6 C       62   6 C                                       1.3888783
    41   6 C       63  16 S                                       1.7463135 (max)
    62   6 C       63  16 S                                       1.7411688
    53   6 C       64   6 C                                       1.4039361
    64   6 C       65   6 C                                       1.3749248
    52   6 C       66  16 S                                       1.7382232
    65   6 C       67   6 C                                       1.4097365
    67   6 C       68   6 C                                       1.3685006
    69   6 C       70   8 O                                       1.2108182
    71   6 C       72   6 C                                       1.3840823
    72   6 C       73  17 Cl                                      1.7058631
    72   6 C       74   6 C                                       1.4020904
    74   6 C       75  17 Cl                                      1.7098169
    74   6 C       76   6 C                                       1.3942954
    76   6 C       77  17 Cl                                      1.7101424
    76   6 C       78   6 C                                       1.4043800
    78   6 C       79  17 Cl                                      1.7148447
    71   6 C       80   6 C                                       1.4082330
    78   6 C       80   6 C                                       1.3889390
    81   6 C       82   6 C                                       1.3677079
    83   6 C       84   7 N                                       1.1472389
    85   6 C       86   7 N                                       1.1476839
     1   6 C       87   1 H                                       1.0850153
    22   6 C       88   1 H                                       1.0794472
    23   6 C       89   1 H                                       1.0783870
    32   6 C       90   1 H                                       1.0751030
    33   6 C       91   1 H                                       1.0756688
    35   6 C       92   1 H                                       1.0919423
    35   6 C       93   1 H                                       1.0929439
    36   6 C       94   1 H                                       1.0868835
    36   6 C       95   1 H                                       1.0876839
    36   6 C       96   1 H                                       1.0876184
    38   6 C       97   1 H                                       1.0748791
    42   6 C       98   1 H                                       1.0735163
    46   6 C       99   1 H                                       1.0747193
    47   6 C      100   1 H                                       1.0754775
    49   6 C      101   1 H                                       1.0919972
    49   6 C      102   1 H                                       1.0927931
    50   6 C      103   1 H                                       1.0877323
    50   6 C      104   1 H                                       1.0869977
    50   6 C      105   1 H                                       1.0875122
    56   6 C      106   1 H                                       1.0748938
    57   6 C      107   1 H                                       1.0754617
    59   6 C      108   1 H                                       1.0925890
    59   6 C      109   1 H                                       1.0919634
    60   6 C      110   1 H                                       1.0878053
    60   6 C      111   1 H                                       1.0871137
    60   6 C      112   1 H                                       1.0878355
    64   6 C      113   1 H                                       1.0728518 (min)
    67   6 C      114   1 H                                       1.0841399

 * 7 distinct bonds (by element types)

   Z      Z             #   av. dist./Å        max./Å        min./Å
   1 H    6 C          28     1.0836061     1.0929439     1.0728518
   6 C    6 C          53     1.4058802     1.5313128     1.3497890
   6 C    7 N           4     1.1471193     1.1476839     1.1466835
   6 C    8 O           2     1.2073248     1.2108182     1.2038315
   6 C    9 F           1     1.3390977     1.3390977     1.3390977
   6 C   16 S          11     1.7373364     1.7463135     1.7257920
   6 C   17 Cl          8     1.7097436     1.7151337     1.7046557


optimized geometry written to: xtbopt.mol


           -------------------------------------------------
          | TOTAL ENERGY             -236.352317626413 Eh   |
          | GRADIENT NORM               0.000219487040 Eh/α |
          | HOMO-LUMO GAP               0.460283117365 eV   |
           -------------------------------------------------

------------------------------------------------------------------------
 * finished run on 2022/02/04 at 00:59:13.559     
------------------------------------------------------------------------
 total:
 * wall-time:     0 d,  0 h,  0 min, 57.409 sec
 *  cpu-time:     0 d,  0 h,  7 min, 39.154 sec
 * ratio c/w:     7.998 speedup
 SCF:
 * wall-time:     0 d,  0 h,  0 min,  0.466 sec
 *  cpu-time:     0 d,  0 h,  0 min,  3.729 sec
 * ratio c/w:     7.996 speedup
 ANC optimizer:
 * wall-time:     0 d,  0 h,  0 min, 56.863 sec
 *  cpu-time:     0 d,  0 h,  7 min, 34.864 sec
 * ratio c/w:     7.999 speedup

