      -----------------------------------------------------------      
     |                   =====================                   |     
     |                           x T B                           |     
     |                   =====================                   |     
     |                         S. Grimme                         |     
     |          Mulliken Center for Theoretical Chemistry        |     
     |                    University of Bonn                     |     
      -----------------------------------------------------------      

   * xtb version 6.4.1 (unknown) compiled by 'oda6@login1.crc.pitt.edu' on 2021-06-25

   xtb is free software: you can redistribute it and/or modify it under
   the terms of the GNU Lesser General Public License as published by
   the Free Software Foundation, either version 3 of the License, or
   (at your option) any later version.
   
   xtb is distributed in the hope that it will be useful,
   but WITHOUT ANY WARRANTY; without even the implied warranty of
   MERCHANTABILITY or FITNESS FOR A PARTICULAR PURPOSE.  See the
   GNU Lesser General Public License for more details.
   
   Cite this work as:
   * C. Bannwarth, E. Caldeweyher, S. Ehlert, A. Hansen, P. Pracht,
     J. Seibert, S. Spicher, S. Grimme, WIREs Comput. Mol. Sci., 2020, 11,
     e01493. DOI: 10.1002/wcms.1493
   
   for GFN2-xTB:
   * C. Bannwarth, S. Ehlert and S. Grimme., J. Chem. Theory Comput., 2019,
     15, 1652-1671. DOI: 10.1021/acs.jctc.8b01176
   for GFN1-xTB:
   * S. Grimme, C. Bannwarth, P. Shushkov, J. Chem. Theory Comput., 2017,
     13, 1989-2009. DOI: 10.1021/acs.jctc.7b00118
   for GFN0-xTB:
   * P. Pracht, E. Caldeweyher, S. Ehlert, S. Grimme, ChemRxiv, 2019, preprint.
     DOI: 10.26434/chemrxiv.8326202.v1
   for GFN-FF:
   * S. Spicher and S. Grimme, Angew. Chem. Int. Ed., 2020, 59, 15665-15673.
     DOI: 10.1002/anie.202004239
   
   for DFT-D4:
   * E. Caldeweyher, C. Bannwarth and S. Grimme, J. Chem. Phys., 2017,
     147, 034112. DOI: 10.1063/1.4993215
   * E. Caldeweyher, S. Ehlert, A. Hansen, H. Neugebauer, S. Spicher,
     C. Bannwarth and S. Grimme, J. Chem. Phys., 2019, 150, 154122.
     DOI: 10.1063/1.5090222
   * E. Caldeweyher, J.-M. Mewes, S. Ehlert and S. Grimme, Phys. Chem. Chem. Phys.
     2020, 22, 8499-8512. DOI: 10.1039/D0CP00502A
   
   for sTDA-xTB:
   * S. Grimme and C. Bannwarth, J. Chem. Phys., 2016, 145, 054103.
     DOI: 10.1063/1.4959605
   
   in the mass-spec context:
   * V. Asgeirsson, C. Bauer and S. Grimme, Chem. Sci., 2017, 8, 4879.
     DOI: 10.1039/c7sc00601b
   * J. Koopman and S. Grimme, ACS Omega 2019, 4, 12, 15120-15133.
     DOI: 10.1021/acsomega.9b02011
   
   for metadynamics refer to:
   * S. Grimme, J. Chem. Theory Comput., 2019, 155, 2847-2862
     DOI: 10.1021/acs.jctc.9b00143
   
   for SPH calculations refer to:
   * S. Spicher and S. Grimme, J. Chem. Theory Comput., 2021, 17, 1701-1714
     DOI: 10.1021/acs.jctc.0c01306
   
   with help from (in alphabetical order)
   P. Atkinson, C. Bannwarth, F. Bohle, G. Brandenburg, E. Caldeweyher
   M. Checinski, S. Dohm, S. Ehlert, S. Ehrlich, I. Gerasimov, J. Koopman
   C. Lavigne, S. Lehtola, F. März, M. Müller, F. Musil, H. Neugebauer
   J. Pisarek, C. Plett, P. Pracht, J. Seibert, P. Shushkov, S. Spicher
   M. Stahn, M. Steiner, T. Strunk, J. Stückrath, T. Rose, and J. Unsleber
   
 * started run on 2021/12/28 at 11:49:06.627     

           -------------------------------------------------
          |                Calculation Setup                |
           -------------------------------------------------

          program call               : /ihome/ghutchison/oda6/xtb/xtb-641/bin//xtb F-2Cl.mol --sp --alpb hexane
          hostname                   : smp-n39
          coordinate file            : F-2Cl.mol
          omp threads                :                     1
          number of atoms            :                   115
          number of electrons        :                   358
          charge                     :                     0
          spin                       :                   0.0
          first test random number   :      0.58107976680239

   ID    Z sym.   atoms
    1    6 C      1-11, 13-22, 24-26, 29-46, 48-53, 55, 56, 58, 60-69
    2   16 S      12, 47
    3    8 O      23, 54
    4    7 N      27, 28, 57, 59
    5   17 Cl     70-73
    6    1 H      74-115

           -------------------------------------------------
          |                 G F N 2 - x T B                 |
           -------------------------------------------------

        Reference                      10.1021/acs.jctc.8b01176
      * Hamiltonian:
        H0-scaling (s, p, d)           1.850000    2.230000    2.230000
        zeta-weighting                 0.500000
      * Dispersion:
        s8                             2.700000
        a1                             0.520000
        a2                             5.000000
        s9                             5.000000
      * Repulsion:
        kExp                           1.500000    1.000000
        rExp                           1.000000
      * Coulomb:
        alpha                          2.000000
        third order                    shell-resolved
        anisotropic                    true
        a3                             3.000000
        a5                             4.000000
        cn-shift                       1.200000
        cn-exp                         4.000000
        max-rad                        5.000000

      * Solvation model:               ALPB
        Solvent                        hexane
        Parameter file                 internal GFN2-xTB/ALPB
        Dielectric constant                1.8800E+00
        Reference state                gsolv [1 M gas/solution]
        Free energy shift                  4.8134E-03 Eh       3.0204E+00 kcal/mol
        Temperature                        2.9815E+02 K
        Density                            6.6000E-01 kg/L
        Solvent mass                       8.6180E+01 g/mol
        Interaction kernel             P16
        Born radius scaling (c1)           1.1040E+00
        Born radii integrator          GBOBC
        Born offset                        0.0000E+00 a0       0.0000E+00 AA
        H-bond correction              false
        Ion screening                  false
        Surface tension                    1.0000E-05 Eh       1.5569E+01 dyn/cm
        Grid points                               230 per atom

          ...................................................
          :                      SETUP                      :
          :.................................................:
          :  # basis functions                 370          :
          :  # atomic orbitals                 364          :
          :  # shells                          194          :
          :  # electrons                       358          :
          :  max. iterations                   250          :
          :  Hamiltonian                  GFN2-xTB          :
          :  restarted?                      false          :
          :  GBSA solvation                   true          :
          :  PC potential                    false          :
          :  electronic temp.          300.0000000     K    :
          :  accuracy                    1.0000000          :
          :  -> integral cutoff          0.2500000E+02      :
          :  -> integral neglect         0.1000000E-07      :
          :  -> SCF convergence          0.1000000E-05 Eh   :
          :  -> wf. convergence          0.1000000E-03 e    :
          :  Broyden damping             0.4000000          :
          ...................................................

 iter      E             dE          RMSdq      gap      omega  full diag
   1   -199.4885291 -0.199489E+03  0.433E+00    1.38       0.0  T
   2   -199.6109727 -0.122444E+00  0.251E+00    1.23       1.0  T
   3   -199.5097136  0.101259E+00  0.140E+00    1.07       1.0  T
   4   -199.6535118 -0.143798E+00  0.436E-01    1.18       1.0  T
   5   -199.6658385 -0.123267E-01  0.136E-01    1.11       1.0  T
   6   -199.6665824 -0.743939E-03  0.758E-02    1.14       1.0  T
   7   -199.6667365 -0.154053E-03  0.390E-02    1.13       1.0  T
   8   -199.6668008 -0.643253E-04  0.263E-02    1.14       1.0  T
   9   -199.6668203 -0.194614E-04  0.191E-02    1.14       1.0  T
  10   -199.6668358 -0.154941E-04  0.116E-02    1.14       1.0  T
  11   -199.6668410 -0.524447E-05  0.551E-03    1.14       1.7  T
  12   -199.6668422 -0.113307E-05  0.243E-03    1.14       3.8  T
  13   -199.6668425 -0.364364E-06  0.110E-03    1.14       8.5  T
  14   -199.6668425 -0.327703E-07  0.584E-04    1.14      16.0  T
  15   -199.6668426 -0.883543E-08  0.405E-04    1.14      23.0  T

   *** convergence criteria satisfied after 15 iterations ***

         #    Occupation            Energy/Eh            Energy/eV
      -------------------------------------------------------------
         1        2.0000           -1.0781780             -29.3387
       ...           ...                  ...                  ...
       173        2.0000           -0.4140507             -11.2669
       174        2.0000           -0.4111052             -11.1867
       175        2.0000           -0.4110474             -11.1852
       176        2.0000           -0.4079339             -11.1004
       177        2.0000           -0.4078460             -11.0981
       178        2.0000           -0.3929931             -10.6939
       179        2.0000           -0.3788289             -10.3085 (HOMO)
       180                         -0.3369798              -9.1697 (LUMO)
       181                         -0.3343417              -9.0979
       182                         -0.3261132              -8.8740
       183                         -0.3226272              -8.7791
       184                         -0.2861791              -7.7873
       ...                                ...                  ...
       364                          1.1543322              31.4110
      -------------------------------------------------------------
                  HL-Gap            0.0418490 Eh            1.1388 eV
             Fermi-level           -0.3579330 Eh           -9.7399 eV

 SCC (total)                   0 d,  0 h,  0 min,  0.638 sec
 SCC setup                      ...        0 min,  0.006 sec (  0.866%)
 Dispersion                     ...        0 min,  0.005 sec (  0.823%)
 classical contributions        ...        0 min,  0.001 sec (  0.079%)
 integral evaluation            ...        0 min,  0.054 sec (  8.490%)
 iterations                     ...        0 min,  0.369 sec ( 57.894%)
 molecular gradient             ...        0 min,  0.201 sec ( 31.458%)
 printout                       ...        0 min,  0.002 sec (  0.380%)

         :::::::::::::::::::::::::::::::::::::::::::::::::::::
         ::                     SUMMARY                     ::
         :::::::::::::::::::::::::::::::::::::::::::::::::::::
         :: total energy            -196.574363030845 Eh    ::
         :: total w/o Gsasa/hb      -196.505519539650 Eh    ::
         :: gradient norm              0.019632860181 Eh/a0 ::
         :: HOMO-LUMO gap              1.138770242488 eV    ::
         ::.................................................::
         :: SCC energy              -199.666842556673 Eh    ::
         :: -> isotropic ES            0.126126041266 Eh    ::
         :: -> anisotropic ES          0.010154068498 Eh    ::
         :: -> anisotropic XC          0.127166849426 Eh    ::
         :: -> dispersion             -0.175353476584 Eh    ::
         :: -> Gsolv                  -0.087547568048 Eh    ::
         ::    -> Gelec               -0.018704076853 Eh    ::
         ::    -> Gsasa               -0.073656847015 Eh    ::
         ::    -> Ghb                  0.000000000000 Eh    ::
         ::    -> Gshift               0.004813355820 Eh    ::
         :: repulsion energy           3.093131850669 Eh    ::
         :: add. restraining           0.000000000000 Eh    ::
         :: total charge              -0.000000000034 e     ::
         :::::::::::::::::::::::::::::::::::::::::::::::::::::

           -------------------------------------------------
          |                Property Printout                |
           -------------------------------------------------

    * Orbital Energies and Occupations

         #    Occupation            Energy/Eh            Energy/eV
      -------------------------------------------------------------
         1        2.0000           -1.0781780             -29.3387
       ...           ...                  ...                  ...
       167        2.0000           -0.4222591             -11.4903
       168        2.0000           -0.4203407             -11.4381
       169        2.0000           -0.4190831             -11.4038
       170        2.0000           -0.4180086             -11.3746
       171        2.0000           -0.4154187             -11.3041
       172        2.0000           -0.4144625             -11.2781
       173        2.0000           -0.4140507             -11.2669
       174        2.0000           -0.4111052             -11.1867
       175        2.0000           -0.4110474             -11.1852
       176        2.0000           -0.4079339             -11.1004
       177        2.0000           -0.4078460             -11.0981
       178        2.0000           -0.3929931             -10.6939
       179        2.0000           -0.3788289             -10.3085 (HOMO)
       180                         -0.3369798              -9.1697 (LUMO)
       181                         -0.3343417              -9.0979
       182                         -0.3261132              -8.8740
       183                         -0.3226272              -8.7791
       184                         -0.2861791              -7.7873
       185                         -0.2768736              -7.5341
       186                         -0.2632837              -7.1643
       187                         -0.2506029              -6.8193
       188                         -0.2500093              -6.8031
       189                         -0.2497730              -6.7967
       190                         -0.2417220              -6.5776
       ...                                ...                  ...
       364                          1.1543322              31.4110
      -------------------------------------------------------------
                  HL-Gap            0.0418490 Eh            1.1388 eV
             Fermi-level           -0.3579330 Eh           -9.7399 eV

     #   Z          covCN         q      C6AA      α(0)
     1   6 C        3.039     0.002    27.939     8.670
     2   6 C        3.055     0.002    27.923     8.666
     3   6 C        2.909    -0.037    28.926     8.819
     4   6 C        3.045     0.002    27.949     8.671
     5   6 C        3.069     0.005    27.844     8.652
     6   6 C        2.910    -0.038    28.952     8.823
     7   6 C        3.935     0.015    20.267     6.398
     8   6 C        3.212    -0.009    27.571     8.546
     9   6 C        3.076     0.018    27.537     8.604
    10   6 C        3.064    -0.042    28.985     8.828
    11   6 C        2.991     0.021    27.518     8.605
    12  16 S        2.305     0.056   138.792    19.828
    13   6 C        2.917    -0.012    28.317     8.726
    14   6 C        3.008    -0.039    28.964     8.828
    15   6 C        3.019     0.039    27.106     8.540
    16   6 C        3.035     0.011    27.733     8.638
    17   6 C        3.046    -0.015    28.342     8.731
    18   6 C        2.872     0.234    23.108     7.880
    19   6 C        2.956    -0.036    28.888     8.816
    20   6 C        2.920     0.099    25.796     8.329
    21   6 C        2.922     0.098    25.832     8.335
    22   6 C        2.951    -0.024    28.599     8.771
    23   8 O        0.939    -0.393    21.510     6.220
    24   6 C        2.947     0.011    27.767     8.643
    25   6 C        1.947     0.133    27.836     8.520
    26   6 C        1.945     0.133    27.823     8.518
    27   7 N        0.911    -0.266    26.892     7.500
    28   7 N        0.911    -0.259    26.725     7.477
    29   6 C        3.804    -0.055    21.555     6.610
    30   6 C        3.808    -0.053    21.514     6.603
    31   6 C        3.038     0.003    27.932     8.669
    32   6 C        3.056     0.002    27.922     8.666
    33   6 C        3.932     0.010    20.343     6.410
    34   6 C        3.806    -0.051    21.484     6.598
    35   6 C        3.806    -0.051    21.493     6.600
    36   6 C        2.910    -0.039    28.979     8.827
    37   6 C        3.070     0.000    27.945     8.668
    38   6 C        3.044     0.000    27.978     8.675
    39   6 C        2.909    -0.037    28.925     8.819
    40   6 C        3.932     0.015    20.265     6.397
    41   6 C        3.204    -0.010    27.666     8.568
    42   6 C        3.079     0.017    27.555     8.606
    43   6 C        3.806    -0.052    21.510     6.602
    44   6 C        3.805    -0.051    21.493     6.600
    45   6 C        3.067    -0.042    28.968     8.825
    46   6 C        2.990     0.021    27.520     8.605
    47  16 S        2.302     0.055   138.808    19.829
    48   6 C        2.918    -0.012    28.318     8.726
    49   6 C        3.008    -0.039    28.963     8.828
    50   6 C        3.019     0.039    27.105     8.540
    51   6 C        3.035     0.011    27.733     8.638
    52   6 C        3.046    -0.015    28.341     8.731
    53   6 C        2.872     0.234    23.108     7.880
    54   8 O        0.939    -0.393    21.509     6.220
    55   6 C        2.947     0.011    27.768     8.643
    56   6 C        1.947     0.133    27.837     8.520
    57   7 N        0.911    -0.259    26.725     7.477
    58   6 C        1.945     0.133    27.821     8.518
    59   7 N        0.911    -0.266    26.895     7.500
    60   6 C        2.956    -0.036    28.888     8.816
    61   6 C        2.920     0.099    25.796     8.329
    62   6 C        2.922     0.098    25.832     8.335
    63   6 C        2.951    -0.024    28.598     8.771
    64   6 C        3.751    -0.106    22.592     6.779
    65   6 C        3.751    -0.107    22.612     6.782
    66   6 C        3.751    -0.106    22.593     6.779
    67   6 C        3.751    -0.106    22.591     6.778
    68   6 C        3.751    -0.104    22.548     6.772
    69   6 C        3.751    -0.107    22.612     6.781
    70  17 Cl       0.995    -0.132   103.275    15.547
    71  17 Cl       1.000    -0.131   103.260    15.546
    72  17 Cl       1.000    -0.131   103.258    15.546
    73  17 Cl       0.995    -0.132   103.274    15.547
    74   1 H        0.926     0.052     2.294     2.368
    75   1 H        0.926     0.049     2.337     2.391
    76   1 H        0.926     0.059     2.206     2.323
    77   1 H        0.925     0.076     2.017     2.221
    78   1 H        0.926     0.093     1.851     2.128
    79   1 H        0.926     0.098     1.808     2.103
    80   1 H        0.924     0.046     2.371     2.408
    81   1 H        0.924     0.043     2.406     2.426
    82   1 H        0.924     0.035     2.511     2.478
    83   1 H        0.924     0.044     2.396     2.420
    84   1 H        0.924     0.031     2.575     2.510
    85   1 H        0.924     0.045     2.377     2.411
    86   1 H        0.924     0.031     2.575     2.509
    87   1 H        0.924     0.045     2.377     2.411
    88   1 H        0.926     0.048     2.344     2.394
    89   1 H        0.926     0.052     2.291     2.367
    90   1 H        0.924     0.048     2.349     2.397
    91   1 H        0.924     0.033     2.542     2.493
    92   1 H        0.924     0.046     2.369     2.407
    93   1 H        0.924     0.033     2.539     2.492
    94   1 H        0.926     0.061     2.190     2.314
    95   1 H        0.925     0.076     2.018     2.221
    96   1 H        0.926     0.093     1.851     2.128
    97   1 H        0.926     0.098     1.808     2.103
    98   1 H        0.925     0.044     2.402     2.424
    99   1 H        0.925     0.039     2.459     2.452
   100   1 H        0.925     0.040     2.451     2.448
   101   1 H        0.925     0.045     2.389     2.417
   102   1 H        0.925     0.039     2.461     2.453
   103   1 H        0.925     0.040     2.445     2.445
   104   1 H        0.925     0.040     2.450     2.448
   105   1 H        0.925     0.038     2.480     2.463
   106   1 H        0.925     0.044     2.403     2.424
   107   1 H        0.925     0.040     2.451     2.448
   108   1 H        0.925     0.037     2.483     2.464
   109   1 H        0.925     0.043     2.404     2.425
   110   1 H        0.925     0.035     2.514     2.480
   111   1 H        0.925     0.041     2.442     2.444
   112   1 H        0.925     0.034     2.524     2.484
   113   1 H        0.925     0.042     2.422     2.434
   114   1 H        0.925     0.042     2.427     2.436
   115   1 H        0.925     0.041     2.431     2.438

 Mol. C6AA /au·bohr⁶  :     220643.493294
 Mol. C8AA /au·bohr⁸  :    6071375.804843
 Mol. α(0) /au        :        740.539200


Wiberg/Mayer (AO) data.
largest (>0.10) Wiberg bond orders for each atom

 ---------------------------------------------------------------------------
     #   Z sym  total        # sym  WBO       # sym  WBO       # sym  WBO
 ---------------------------------------------------------------------------
     1   6 C    3.944 --     6 C    1.354     2 C    1.305    31 C    1.110
     2   6 C    3.971 --     3 C    1.463     1 C    1.305    33 C    0.989
     3   6 C    3.970 --     2 C    1.463     4 C    1.346    74 H    0.961
     4   6 C    3.969 --     3 C    1.346     5 C    1.279     9 C    1.158
     5   6 C    3.959 --     6 C    1.469     4 C    1.279     7 C    0.988
     6   6 C    3.980 --     5 C    1.469     1 C    1.354    75 H    0.961
     7   6 C    3.988 --     5 C    0.988     8 C    0.986    29 C    0.966
                            30 C    0.950
     8   6 C    3.959 --    10 C    1.449     9 C    1.321     7 C    0.986
     9   6 C    3.930 --     8 C    1.321    12 S    1.234     4 C    1.158
    10   6 C    3.964 --     8 C    1.449    11 C    1.325    76 H    0.961
    11   6 C    3.935 --    13 C    1.335    10 C    1.325    12 S    1.099
    12  16 S    2.762 --     9 C    1.234    11 C    1.099    23 O    0.112
    13   6 C    3.947 --    14 C    1.460    11 C    1.335    77 H    0.937
    14   6 C    3.958 --    13 C    1.460    15 C    1.151    18 C    1.078
    15   6 C    3.968 --    24 C    1.475    14 C    1.151    16 C    1.080
    16   6 C    3.981 --    19 C    1.406    17 C    1.289    15 C    1.080
    17   6 C    3.976 --    22 C    1.422    16 C    1.289    18 C    1.019
    18   6 C    3.913 --    23 O    1.692    14 C    1.078    17 C    1.019
    19   6 C    3.969 --    16 C    1.406    20 C    1.389    78 H    0.953
    20   6 C    3.915 --    19 C    1.389    21 C    1.350    71 Cl   1.006
    21   6 C    3.909 --    22 C    1.384    20 C    1.350    70 Cl   1.004
    22   6 C    3.973 --    17 C    1.422    21 C    1.384    79 H    0.958
    23   8 O    2.078 --    18 C    1.692    12 S    0.112
    24   6 C    3.941 --    15 C    1.475    26 C    1.101    25 C    1.097
    25   6 C    3.942 --    28 N    2.757    24 C    1.097
    26   6 C    3.943 --    27 N    2.745    24 C    1.101
    27   7 N    2.956 --    26 C    2.745
    28   7 N    2.962 --    25 C    2.757
    29   6 C    3.994 --    68 C    1.020    81 H    0.975    80 H    0.972
                             7 C    0.966
    30   6 C    3.992 --    69 C    1.019    82 H    0.978    83 H    0.974
                             7 C    0.950
    31   6 C    3.944 --    36 C    1.355    32 C    1.304     1 C    1.110
    32   6 C    3.971 --    39 C    1.464    31 C    1.304    33 C    0.989
    33   6 C    3.988 --    32 C    0.989     2 C    0.989    35 C    0.959
                            34 C    0.957
    34   6 C    3.993 --    66 C    1.019    84 H    0.977    85 H    0.971
                            33 C    0.957
    35   6 C    3.993 --    67 C    1.019    86 H    0.977    87 H    0.971
                            33 C    0.959
    36   6 C    3.980 --    37 C    1.469    31 C    1.355    88 H    0.960
    37   6 C    3.959 --    36 C    1.469    38 C    1.280    40 C    0.985
    38   6 C    3.969 --    39 C    1.345    37 C    1.280    42 C    1.159
    39   6 C    3.970 --    32 C    1.464    38 C    1.345    89 H    0.961
    40   6 C    3.987 --    41 C    0.987    37 C    0.985    44 C    0.960
                            43 C    0.957
    41   6 C    3.959 --    45 C    1.448    42 C    1.321    40 C    0.987
    42   6 C    3.930 --    41 C    1.321    47 S    1.233    38 C    1.159
    43   6 C    3.993 --    64 C    1.019    91 H    0.977    90 H    0.972
                            40 C    0.957
    44   6 C    3.993 --    65 C    1.019    93 H    0.977    92 H    0.971
                            40 C    0.960
    45   6 C    3.964 --    41 C    1.448    46 C    1.325    94 H    0.959
    46   6 C    3.934 --    48 C    1.335    45 C    1.325    47 S    1.100
    47  16 S    2.761 --    42 C    1.233    46 C    1.100    54 O    0.112
    48   6 C    3.947 --    49 C    1.460    46 C    1.335    95 H    0.937
    49   6 C    3.958 --    48 C    1.460    50 C    1.151    53 C    1.078
    50   6 C    3.968 --    55 C    1.475    49 C    1.151    51 C    1.080
    51   6 C    3.981 --    60 C    1.406    52 C    1.289    50 C    1.080
    52   6 C    3.976 --    63 C    1.422    51 C    1.289    53 C    1.019
    53   6 C    3.913 --    54 O    1.692    49 C    1.078    52 C    1.019
    54   8 O    2.078 --    53 C    1.692    47 S    0.112
    55   6 C    3.941 --    50 C    1.475    58 C    1.101    56 C    1.097
    56   6 C    3.942 --    57 N    2.757    55 C    1.097
    57   7 N    2.962 --    56 C    2.757
    58   6 C    3.943 --    59 N    2.744    55 C    1.101
    59   7 N    2.956 --    58 C    2.744
    60   6 C    3.969 --    51 C    1.406    61 C    1.389    96 H    0.953
    61   6 C    3.915 --    60 C    1.389    62 C    1.350    72 Cl   1.006
    62   6 C    3.909 --    63 C    1.384    61 C    1.350    73 Cl   1.004
    63   6 C    3.973 --    52 C    1.422    62 C    1.384    97 H    0.958
    64   6 C    3.994 --    43 C    1.019    99 H    0.984    98 H    0.984
                           100 H    0.984
    65   6 C    3.994 --    44 C    1.019   102 H    0.985   101 H    0.984
                           103 H    0.984
    66   6 C    3.994 --    34 C    1.019   105 H    0.985   106 H    0.984
                           104 H    0.984
    67   6 C    3.994 --    35 C    1.019   108 H    0.985   109 H    0.984
                           107 H    0.983
    68   6 C    3.996 --    29 C    1.020   112 H    0.987   110 H    0.986
                           111 H    0.986
    69   6 C    3.994 --    30 C    1.019   115 H    0.985   114 H    0.984
                           113 H    0.984
    70  17 Cl   1.151 --    21 C    1.004
    71  17 Cl   1.155 --    20 C    1.006
    72  17 Cl   1.155 --    61 C    1.006
    73  17 Cl   1.151 --    62 C    1.004
    74   1 H    0.997 --     3 C    0.961
    75   1 H    0.996 --     6 C    0.961
    76   1 H    0.996 --    10 C    0.961
    77   1 H    0.993 --    13 C    0.937
    78   1 H    0.991 --    19 C    0.953
    79   1 H    0.990 --    22 C    0.958
    80   1 H    0.997 --    29 C    0.972
    81   1 H    0.997 --    29 C    0.975
    82   1 H    0.998 --    30 C    0.978
    83   1 H    0.997 --    30 C    0.974
    84   1 H    0.999 --    34 C    0.977
    85   1 H    0.997 --    34 C    0.971
    86   1 H    0.999 --    35 C    0.977
    87   1 H    0.997 --    35 C    0.971
    88   1 H    0.997 --    36 C    0.960
    89   1 H    0.997 --    39 C    0.961
    90   1 H    0.997 --    43 C    0.972
    91   1 H    0.999 --    43 C    0.977
    92   1 H    0.997 --    44 C    0.971
    93   1 H    0.999 --    44 C    0.977
    94   1 H    0.996 --    45 C    0.959
    95   1 H    0.993 --    48 C    0.937
    96   1 H    0.991 --    60 C    0.953
    97   1 H    0.990 --    63 C    0.958
    98   1 H    0.998 --    64 C    0.984
    99   1 H    0.997 --    64 C    0.984
   100   1 H    0.998 --    64 C    0.984
   101   1 H    0.998 --    65 C    0.984
   102   1 H    0.998 --    65 C    0.985
   103   1 H    0.998 --    65 C    0.984
   104   1 H    0.998 --    66 C    0.984
   105   1 H    0.998 --    66 C    0.985
   106   1 H    0.998 --    66 C    0.984
   107   1 H    0.998 --    67 C    0.983
   108   1 H    0.998 --    67 C    0.985
   109   1 H    0.998 --    67 C    0.984
   110   1 H    0.999 --    68 C    0.986
   111   1 H    0.998 --    68 C    0.986
   112   1 H    0.999 --    68 C    0.987
   113   1 H    0.998 --    69 C    0.984
   114   1 H    0.997 --    69 C    0.984
   115   1 H    0.998 --    69 C    0.985
 ---------------------------------------------------------------------------

Topologies differ in bond orders
Writing corrected topology to xtbtopo.mol

molecular dipole:
                 x           y           z       tot (Debye)
 q only:        0.582      -0.792      -1.911
   full:        0.365      -0.016      -0.731       2.076
molecular quadrupole (traceless):
                xx          xy          yy          xz          yz          zz
 q only:     -130.180     126.070      81.258    -102.460      48.420      48.922
  q+dip:     -121.721     101.134      60.897    -100.701      49.694      60.824
   full:     -123.621     112.384      68.008    -106.553      42.335      55.613


           -------------------------------------------------
          | TOTAL ENERGY             -196.574363030845 Eh   |
          | GRADIENT NORM               0.019632860181 Eh/α |
          | HOMO-LUMO GAP               1.138770242488 eV   |
           -------------------------------------------------

------------------------------------------------------------------------
 * finished run on 2021/12/28 at 11:49:07.339     
------------------------------------------------------------------------
 total:
 * wall-time:     0 d,  0 h,  0 min,  0.712 sec
 *  cpu-time:     0 d,  0 h,  0 min,  0.701 sec
 * ratio c/w:     0.984 speedup
 SCF:
 * wall-time:     0 d,  0 h,  0 min,  0.640 sec
 *  cpu-time:     0 d,  0 h,  0 min,  0.638 sec
 * ratio c/w:     0.997 speedup

