      -----------------------------------------------------------      
     |                   =====================                   |     
     |                           x T B                           |     
     |                   =====================                   |     
     |                         S. Grimme                         |     
     |          Mulliken Center for Theoretical Chemistry        |     
     |                    University of Bonn                     |     
      -----------------------------------------------------------      

   * xtb version 6.4.1 (unknown) compiled by 'oda6@login1.crc.pitt.edu' on 2021-06-25

   xtb is free software: you can redistribute it and/or modify it under
   the terms of the GNU Lesser General Public License as published by
   the Free Software Foundation, either version 3 of the License, or
   (at your option) any later version.
   
   xtb is distributed in the hope that it will be useful,
   but WITHOUT ANY WARRANTY; without even the implied warranty of
   MERCHANTABILITY or FITNESS FOR A PARTICULAR PURPOSE.  See the
   GNU Lesser General Public License for more details.
   
   Cite this work as:
   * C. Bannwarth, E. Caldeweyher, S. Ehlert, A. Hansen, P. Pracht,
     J. Seibert, S. Spicher, S. Grimme, WIREs Comput. Mol. Sci., 2020, 11,
     e01493. DOI: 10.1002/wcms.1493
   
   for GFN2-xTB:
   * C. Bannwarth, S. Ehlert and S. Grimme., J. Chem. Theory Comput., 2019,
     15, 1652-1671. DOI: 10.1021/acs.jctc.8b01176
   for GFN1-xTB:
   * S. Grimme, C. Bannwarth, P. Shushkov, J. Chem. Theory Comput., 2017,
     13, 1989-2009. DOI: 10.1021/acs.jctc.7b00118
   for GFN0-xTB:
   * P. Pracht, E. Caldeweyher, S. Ehlert, S. Grimme, ChemRxiv, 2019, preprint.
     DOI: 10.26434/chemrxiv.8326202.v1
   for GFN-FF:
   * S. Spicher and S. Grimme, Angew. Chem. Int. Ed., 2020, 59, 15665-15673.
     DOI: 10.1002/anie.202004239
   
   for DFT-D4:
   * E. Caldeweyher, C. Bannwarth and S. Grimme, J. Chem. Phys., 2017,
     147, 034112. DOI: 10.1063/1.4993215
   * E. Caldeweyher, S. Ehlert, A. Hansen, H. Neugebauer, S. Spicher,
     C. Bannwarth and S. Grimme, J. Chem. Phys., 2019, 150, 154122.
     DOI: 10.1063/1.5090222
   * E. Caldeweyher, J.-M. Mewes, S. Ehlert and S. Grimme, Phys. Chem. Chem. Phys.
     2020, 22, 8499-8512. DOI: 10.1039/D0CP00502A
   
   for sTDA-xTB:
   * S. Grimme and C. Bannwarth, J. Chem. Phys., 2016, 145, 054103.
     DOI: 10.1063/1.4959605
   
   in the mass-spec context:
   * V. Asgeirsson, C. Bauer and S. Grimme, Chem. Sci., 2017, 8, 4879.
     DOI: 10.1039/c7sc00601b
   * J. Koopman and S. Grimme, ACS Omega 2019, 4, 12, 15120-15133.
     DOI: 10.1021/acsomega.9b02011
   
   for metadynamics refer to:
   * S. Grimme, J. Chem. Theory Comput., 2019, 155, 2847-2862
     DOI: 10.1021/acs.jctc.9b00143
   
   for SPH calculations refer to:
   * S. Spicher and S. Grimme, J. Chem. Theory Comput., 2021, 17, 1701-1714
     DOI: 10.1021/acs.jctc.0c01306
   
   with help from (in alphabetical order)
   P. Atkinson, C. Bannwarth, F. Bohle, G. Brandenburg, E. Caldeweyher
   M. Checinski, S. Dohm, S. Ehlert, S. Ehrlich, I. Gerasimov, J. Koopman
   C. Lavigne, S. Lehtola, F. März, M. Müller, F. Musil, H. Neugebauer
   J. Pisarek, C. Plett, P. Pracht, J. Seibert, P. Shushkov, S. Spicher
   M. Stahn, M. Steiner, T. Strunk, J. Stückrath, T. Rose, and J. Unsleber
   
 * started run on 2021/12/28 at 11:49:37.225     

           -------------------------------------------------
          |                Calculation Setup                |
           -------------------------------------------------

          program call               : /ihome/ghutchison/oda6/xtb/xtb-641/bin//xtb HF-PCIC.mol --sp --alpb hexane
          hostname                   : smp-n39
          coordinate file            : HF-PCIC.mol
          omp threads                :                     1
          number of atoms            :                   106
          number of electrons        :                   362
          charge                     :                     0
          spin                       :                   0.0
          first test random number   :      0.49269197130521

   ID    Z sym.   atoms
    1    6 C      1, 3-11, 13, 15-17, 19-27, 29, 31-33, 35-40, 42-50, 52-57,
                  59-68
    2    8 O      2, 18
    3    7 N      12, 14, 28, 30
    4   16 S      34, 41, 51, 58
    5    9 F      69-74
    6    1 H      75-106

           -------------------------------------------------
          |                 G F N 2 - x T B                 |
           -------------------------------------------------

        Reference                      10.1021/acs.jctc.8b01176
      * Hamiltonian:
        H0-scaling (s, p, d)           1.850000    2.230000    2.230000
        zeta-weighting                 0.500000
      * Dispersion:
        s8                             2.700000
        a1                             0.520000
        a2                             5.000000
        s9                             5.000000
      * Repulsion:
        kExp                           1.500000    1.000000
        rExp                           1.000000
      * Coulomb:
        alpha                          2.000000
        third order                    shell-resolved
        anisotropic                    true
        a3                             3.000000
        a5                             4.000000
        cn-shift                       1.200000
        cn-exp                         4.000000
        max-rad                        5.000000

      * Solvation model:               ALPB
        Solvent                        hexane
        Parameter file                 internal GFN2-xTB/ALPB
        Dielectric constant                1.8800E+00
        Reference state                gsolv [1 M gas/solution]
        Free energy shift                  4.8134E-03 Eh       3.0204E+00 kcal/mol
        Temperature                        2.9815E+02 K
        Density                            6.6000E-01 kg/L
        Solvent mass                       8.6180E+01 g/mol
        Interaction kernel             P16
        Born radius scaling (c1)           1.1040E+00
        Born radii integrator          GBOBC
        Born offset                        0.0000E+00 a0       0.0000E+00 AA
        H-bond correction              false
        Ion screening                  false
        Surface tension                    1.0000E-05 Eh       1.5569E+01 dyn/cm
        Grid points                               230 per atom

          ...................................................
          :                      SETUP                      :
          :.................................................:
          :  # basis functions                 352          :
          :  # atomic orbitals                 348          :
          :  # shells                          184          :
          :  # electrons                       362          :
          :  max. iterations                   250          :
          :  Hamiltonian                  GFN2-xTB          :
          :  restarted?                      false          :
          :  GBSA solvation                   true          :
          :  PC potential                    false          :
          :  electronic temp.          300.0000000     K    :
          :  accuracy                    1.0000000          :
          :  -> integral cutoff          0.2500000E+02      :
          :  -> integral neglect         0.1000000E-07      :
          :  -> SCF convergence          0.1000000E-05 Eh   :
          :  -> wf. convergence          0.1000000E-03 e    :
          :  Broyden damping             0.4000000          :
          ...................................................

 iter      E             dE          RMSdq      gap      omega  full diag
   1   -204.4345180 -0.204435E+03  0.457E+00    1.17       0.0  T
   2   -204.5554352 -0.120917E+00  0.268E+00    1.16       1.0  T
   3   -204.4431438  0.112291E+00  0.152E+00    0.95       1.0  T
   4   -204.6027730 -0.159629E+00  0.460E-01    1.13       1.0  T
   5   -204.6159088 -0.131358E-01  0.138E-01    1.07       1.0  T
   6   -204.6163967 -0.487915E-03  0.639E-02    1.10       1.0  T
   7   -204.6164678 -0.711079E-04  0.295E-02    1.09       1.0  T
   8   -204.6165372 -0.693970E-04  0.100E-02    1.09       1.0  T
   9   -204.6165395 -0.231872E-05  0.488E-03    1.09       2.0  T
  10   -204.6165405 -0.102090E-05  0.185E-03    1.09       5.2  T
  11   -204.6165406 -0.115845E-06  0.897E-04    1.09      10.8  T
  12   -204.6165406 -0.200152E-07  0.477E-04    1.09      20.4  T

   *** convergence criteria satisfied after 12 iterations ***

         #    Occupation            Energy/Eh            Energy/eV
      -------------------------------------------------------------
         1        2.0000           -0.8522469             -23.1908
       ...           ...                  ...                  ...
       175        2.0000           -0.4218455             -11.4790
       176        2.0000           -0.4173005             -11.3553
       177        2.0000           -0.4165682             -11.3354
       178        2.0000           -0.4157396             -11.3129
       179        2.0000           -0.4120761             -11.2132
       180        2.0000           -0.3929402             -10.6924
       181        2.0000           -0.3826859             -10.4134 (HOMO)
       182                         -0.3426421              -9.3238 (LUMO)
       183                         -0.3394692              -9.2374
       184                         -0.3326047              -9.0506
       185                         -0.3297719              -8.9735
       186                         -0.3057676              -8.3204
       ...                                ...                  ...
       348                          1.1512425              31.3269
      -------------------------------------------------------------
                  HL-Gap            0.0400437 Eh            1.0896 eV
             Fermi-level           -0.3626806 Eh           -9.8690 eV

 SCC (total)                   0 d,  0 h,  0 min,  0.490 sec
 SCC setup                      ...        0 min,  0.005 sec (  0.990%)
 Dispersion                     ...        0 min,  0.004 sec (  0.905%)
 classical contributions        ...        0 min,  0.000 sec (  0.081%)
 integral evaluation            ...        0 min,  0.049 sec (  9.996%)
 iterations                     ...        0 min,  0.266 sec ( 54.309%)
 molecular gradient             ...        0 min,  0.163 sec ( 33.262%)
 printout                       ...        0 min,  0.002 sec (  0.445%)

         :::::::::::::::::::::::::::::::::::::::::::::::::::::
         ::                     SUMMARY                     ::
         :::::::::::::::::::::::::::::::::::::::::::::::::::::
         :: total energy            -201.646035662392 Eh    ::
         :: total w/o Gsasa/hb      -201.584379277098 Eh    ::
         :: gradient norm              0.023467408662 Eh/a0 ::
         :: HOMO-LUMO gap              1.089645808653 eV    ::
         ::.................................................::
         :: SCC energy              -204.616540645900 Eh    ::
         :: -> isotropic ES            0.181079647993 Eh    ::
         :: -> anisotropic ES          0.010363142223 Eh    ::
         :: -> anisotropic XC          0.092715686264 Eh    ::
         :: -> dispersion             -0.157839693148 Eh    ::
         :: -> Gsolv                  -0.086940391090 Eh    ::
         ::    -> Gelec               -0.025284005796 Eh    ::
         ::    -> Gsasa               -0.066469741114 Eh    ::
         ::    -> Ghb                  0.000000000000 Eh    ::
         ::    -> Gshift               0.004813355820 Eh    ::
         :: repulsion energy           2.972072649858 Eh    ::
         :: add. restraining           0.000000000000 Eh    ::
         :: total charge              -0.000000000049 e     ::
         :::::::::::::::::::::::::::::::::::::::::::::::::::::

           -------------------------------------------------
          |                Property Printout                |
           -------------------------------------------------

    * Orbital Energies and Occupations

         #    Occupation            Energy/Eh            Energy/eV
      -------------------------------------------------------------
         1        2.0000           -0.8522469             -23.1908
       ...           ...                  ...                  ...
       169        2.0000           -0.4378766             -11.9152
       170        2.0000           -0.4363792             -11.8745
       171        2.0000           -0.4316623             -11.7461
       172        2.0000           -0.4263777             -11.6023
       173        2.0000           -0.4245395             -11.5523
       174        2.0000           -0.4220359             -11.4842
       175        2.0000           -0.4218455             -11.4790
       176        2.0000           -0.4173005             -11.3553
       177        2.0000           -0.4165682             -11.3354
       178        2.0000           -0.4157396             -11.3129
       179        2.0000           -0.4120761             -11.2132
       180        2.0000           -0.3929402             -10.6924
       181        2.0000           -0.3826859             -10.4134 (HOMO)
       182                         -0.3426421              -9.3238 (LUMO)
       183                         -0.3394692              -9.2374
       184                         -0.3326047              -9.0506
       185                         -0.3297719              -8.9735
       186                         -0.3057676              -8.3204
       187                         -0.2898254              -7.8866
       188                         -0.2778934              -7.5619
       189                         -0.2684542              -7.3050
       190                         -0.2641742              -7.1885
       191                         -0.2554563              -6.9513
       192                         -0.2537159              -6.9040
       ...                                ...                  ...
       348                          1.1512425              31.3269
      -------------------------------------------------------------
                  HL-Gap            0.0400437 Eh            1.0896 eV
             Fermi-level           -0.3626806 Eh           -9.8690 eV

     #   Z          covCN         q      C6AA      α(0)
     1   6 C        2.873     0.234    23.108     7.880
     2   8 O        0.952    -0.390    21.444     6.211
     3   6 C        3.048    -0.016    28.368     8.735
     4   6 C        2.912    -0.033    28.826     8.804
     5   6 C        2.783     0.168    24.362     8.085
     6   6 C        2.782     0.170    24.328     8.079
     7   6 C        2.914    -0.045    29.115     8.848
     8   6 C        3.037     0.010    27.750     8.640
     9   6 C        3.019     0.039    27.110     8.541
    10   6 C        2.947     0.013    27.722     8.636
    11   6 C        1.944     0.134    27.817     8.517
    12   7 N        0.911    -0.263    26.810     7.489
    13   6 C        1.946     0.133    27.838     8.520
    14   7 N        0.911    -0.255    26.635     7.464
    15   6 C        3.008    -0.039    28.963     8.828
    16   6 C        2.918    -0.012    28.326     8.728
    17   6 C        2.866     0.236    23.070     7.873
    18   8 O        0.856    -0.413    21.950     6.281
    19   6 C        3.049    -0.017    28.392     8.739
    20   6 C        2.913    -0.033    28.832     8.805
    21   6 C        2.783     0.168    24.370     8.086
    22   6 C        2.782     0.170    24.327     8.079
    23   6 C        2.914    -0.045    29.126     8.850
    24   6 C        3.032     0.011    27.745     8.640
    25   6 C        3.021     0.039    27.114     8.541
    26   6 C        2.947     0.013    27.715     8.635
    27   6 C        1.949     0.133    27.831     8.519
    28   7 N        0.911    -0.255    26.630     7.464
    29   6 C        1.946     0.132    27.849     8.522
    30   7 N        0.911    -0.259    26.717     7.476
    31   6 C        3.001    -0.039    28.945     8.825
    32   6 C        2.957    -0.011    28.277     8.722
    33   6 C        2.991     0.027    27.400     8.587
    34  16 S        2.274     0.015   140.450    19.946
    35   6 C        3.071     0.029    27.285     8.565
    36   6 C        3.237    -0.010    27.366     8.486
    37   6 C        3.049    -0.040    28.934     8.822
    38   6 C        3.076     0.009    27.737     8.635
    39   6 C        3.237    -0.009    27.341     8.482
    40   6 C        3.934     0.020    20.166     6.382
    41  16 S        2.258     0.033   139.696    19.893
    42   6 C        3.002     0.025    27.424     8.590
    43   6 C        3.069    -0.051    29.190     8.859
    44   6 C        2.995     0.000    28.013     8.682
    45   6 C        2.928    -0.055    29.369     8.887
    46   6 C        2.785     0.165    24.426     8.095
    47   6 C        2.995     0.001    27.992     8.679
    48   6 C        2.928    -0.055    29.374     8.888
    49   6 C        2.785     0.165    24.425     8.095
    50   6 C        3.001     0.024    27.451     8.595
    51  16 S        2.262     0.035   139.616    19.887
    52   6 C        3.079     0.011    27.680     8.625
    53   6 C        3.235    -0.010    27.371     8.489
    54   6 C        3.068    -0.051    29.190     8.859
    55   6 C        3.077     0.014    27.609     8.615
    56   6 C        3.216    -0.011    27.579     8.543
    57   6 C        3.933     0.020    20.177     6.383
    58  16 S        2.301     0.066   138.399    19.800
    59   6 C        2.990     0.023    27.490     8.601
    60   6 C        3.062    -0.041    28.952     8.824
    61   6 C        3.806    -0.052    21.510     6.602
    62   6 C        3.751    -0.109    22.641     6.786
    63   6 C        3.806    -0.053    21.529     6.605
    64   6 C        3.751    -0.108    22.620     6.783
    65   6 C        3.805    -0.054    21.531     6.606
    66   6 C        3.751    -0.107    22.616     6.782
    67   6 C        3.806    -0.051    21.485     6.599
    68   6 C        3.751    -0.110    22.665     6.789
    69   9 F        0.792    -0.224    11.486     4.003
    70   9 F        0.794    -0.223    11.474     4.001
    71   9 F        0.787    -0.203    11.266     3.965
    72   9 F        0.787    -0.205    11.283     3.968
    73   9 F        0.787    -0.204    11.275     3.966
    74   9 F        0.787    -0.203    11.262     3.964
    75   1 H        0.926     0.101     1.778     2.085
    76   1 H        0.926     0.097     1.812     2.105
    77   1 H        0.925     0.079     1.992     2.207
    78   1 H        0.926     0.100     1.784     2.089
    79   1 H        0.926     0.097     1.814     2.106
    80   1 H        0.925     0.077     2.015     2.220
    81   1 H        0.926     0.102     1.762     2.076
    82   1 H        0.926     0.061     2.186     2.312
    83   1 H        0.926     0.083     1.948     2.183
    84   1 H        0.926     0.083     1.947     2.182
    85   1 H        0.926     0.060     2.196     2.318
    86   1 H        0.926     0.066     2.127     2.281
    87   1 H        0.924     0.050     2.321     2.382
    88   1 H        0.924     0.036     2.500     2.472
    89   1 H        0.925     0.042     2.419     2.432
    90   1 H        0.925     0.046     2.367     2.406
    91   1 H        0.925     0.042     2.420     2.433
    92   1 H        0.924     0.051     2.303     2.373
    93   1 H        0.924     0.036     2.500     2.473
    94   1 H        0.925     0.042     2.422     2.434
    95   1 H        0.925     0.046     2.376     2.410
    96   1 H        0.925     0.040     2.444     2.445
    97   1 H        0.924     0.055     2.262     2.352
    98   1 H        0.924     0.036     2.506     2.475
    99   1 H        0.925     0.042     2.421     2.433
   100   1 H        0.925     0.046     2.372     2.408
   101   1 H        0.925     0.040     2.452     2.449
   102   1 H        0.924     0.035     2.514     2.479
   103   1 H        0.924     0.049     2.331     2.387
   104   1 H        0.925     0.049     2.337     2.390
   105   1 H        0.925     0.046     2.365     2.405
   106   1 H        0.925     0.041     2.431     2.438

 Mol. C6AA /au·bohr⁶  :     195136.985711
 Mol. C8AA /au·bohr⁸  :    5358906.888814
 Mol. α(0) /au        :        697.916350


Wiberg/Mayer (AO) data.
largest (>0.10) Wiberg bond orders for each atom

 ---------------------------------------------------------------------------
     #   Z sym  total        # sym  WBO       # sym  WBO       # sym  WBO
 ---------------------------------------------------------------------------
     1   6 C    3.913 --     2 O    1.690    15 C    1.082     3 C    1.017
     2   8 O    2.085 --     1 C    1.690    58 S    0.120
     3   6 C    3.976 --     4 C    1.419     8 C    1.300     1 C    1.017
     4   6 C    3.973 --     3 C    1.419     5 C    1.384    75 H    0.958
     5   6 C    3.874 --     4 C    1.384     6 C    1.338    73 F    0.976
     6   6 C    3.880 --     7 C    1.387     5 C    1.338    74 F    0.978
     7   6 C    3.969 --     8 C    1.405     6 C    1.387    76 H    0.953
     8   6 C    3.981 --     7 C    1.405     3 C    1.300     9 C    1.077
     9   6 C    3.969 --    10 C    1.478    15 C    1.153     8 C    1.077
    10   6 C    3.942 --     9 C    1.478    11 C    1.100    13 C    1.097
    11   6 C    3.943 --    12 N    2.747    10 C    1.100
    12   7 N    2.957 --    11 C    2.747
    13   6 C    3.943 --    14 N    2.760    10 C    1.097
    14   7 N    2.963 --    13 C    2.760
    15   6 C    3.952 --    16 C    1.453     9 C    1.153     1 C    1.082
    16   6 C    3.945 --    15 C    1.453    59 C    1.341    77 H    0.937
    17   6 C    3.914 --    18 O    1.719    31 C    1.062    19 C    1.016
    18   8 O    2.019 --    17 C    1.719
    19   6 C    3.977 --    20 C    1.417    24 C    1.302    17 C    1.016
    20   6 C    3.974 --    19 C    1.417    21 C    1.386    78 H    0.958
    21   6 C    3.874 --    20 C    1.386    22 C    1.336    72 F    0.976
    22   6 C    3.880 --    23 C    1.390    21 C    1.336    71 F    0.978
    23   6 C    3.970 --    24 C    1.401    22 C    1.390    79 H    0.953
    24   6 C    3.981 --    23 C    1.401    19 C    1.302    25 C    1.079
    25   6 C    3.970 --    26 C    1.483    31 C    1.147    24 C    1.079
    26   6 C    3.944 --    25 C    1.483    29 C    1.098    27 C    1.096
    27   6 C    3.943 --    28 N    2.760    26 C    1.096
    28   7 N    2.964 --    27 C    2.760
    29   6 C    3.944 --    30 N    2.748    26 C    1.098
    30   7 N    2.959 --    29 C    2.748
    31   6 C    3.951 --    32 C    1.472    25 C    1.147    17 C    1.062
    32   6 C    3.945 --    31 C    1.472    33 C    1.318    80 H    0.940
    33   6 C    3.915 --    37 C    1.353    32 C    1.318    34 S    1.075
    34  16 S    2.618 --    35 C    1.210    33 C    1.075
    35   6 C    3.929 --    36 C    1.304    38 C    1.218    34 S    1.210
    36   6 C    3.958 --    37 C    1.436    35 C    1.304    40 C    0.985
    37   6 C    3.956 --    36 C    1.436    33 C    1.353    81 H    0.935
    38   6 C    3.935 --    39 C    1.351    35 C    1.218    41 S    1.165
    39   6 C    3.943 --    43 C    1.371    38 C    1.351    40 C    0.987
    40   6 C    3.987 --    39 C    0.987    36 C    0.985    65 C    0.956
                            67 C    0.952
    41  16 S    2.632 --    38 C    1.165    42 C    1.152
    42   6 C    3.909 --    43 C    1.441    41 S    1.152    44 C    1.139
    43   6 C    3.973 --    42 C    1.441    39 C    1.371    82 H    0.956
    44   6 C    3.959 --    45 C    1.333    49 C    1.299    42 C    1.139
    45   6 C    3.971 --    46 C    1.451    44 C    1.333    83 H    0.960
    46   6 C    3.866 --    45 C    1.451    47 C    1.297    70 F    0.952
    47   6 C    3.960 --    48 C    1.333    46 C    1.297    50 C    1.141
    48   6 C    3.971 --    49 C    1.450    47 C    1.333    84 H    0.959
    49   6 C    3.866 --    48 C    1.450    44 C    1.299    69 F    0.952
    50   6 C    3.909 --    54 C    1.437    51 S    1.153    47 C    1.141
    51  16 S    2.644 --    52 C    1.168    50 C    1.153
    52   6 C    3.935 --    53 C    1.352    55 C    1.217    51 S    1.168
    53   6 C    3.941 --    54 C    1.374    52 C    1.352    57 C    0.986
    54   6 C    3.973 --    50 C    1.437    53 C    1.374    85 H    0.956
    55   6 C    3.939 --    56 C    1.286    58 S    1.225    52 C    1.217
    56   6 C    3.954 --    60 C    1.466    55 C    1.286    57 C    0.984
    57   6 C    3.986 --    53 C    0.986    56 C    0.984    63 C    0.957
                            61 C    0.955
    58  16 S    2.779 --    55 C    1.225    59 C    1.099     2 O    0.120
    59   6 C    3.930 --    16 C    1.341    60 C    1.314    58 S    1.099
    60   6 C    3.965 --    56 C    1.466    59 C    1.314    86 H    0.958
    61   6 C    3.993 --    62 C    1.019    88 H    0.977    87 H    0.971
                            57 C    0.955
    62   6 C    3.993 --    61 C    1.019    90 H    0.984    91 H    0.984
                            89 H    0.984
    63   6 C    3.993 --    64 C    1.019    93 H    0.977    92 H    0.971
                            57 C    0.957
    64   6 C    3.993 --    63 C    1.019    94 H    0.984    95 H    0.984
                            96 H    0.984
    65   6 C    3.992 --    66 C    1.019    98 H    0.977    97 H    0.971
                            40 C    0.956
    66   6 C    3.993 --    65 C    1.019    99 H    0.984   100 H    0.984
                           101 H    0.984
    67   6 C    3.993 --    68 C    1.019   102 H    0.977   103 H    0.971
                            40 C    0.952
    68   6 C    3.992 --    67 C    1.019   105 H    0.984   106 H    0.984
                           104 H    0.983
    69   9 F    1.100 --    49 C    0.952
    70   9 F    1.102 --    46 C    0.952
    71   9 F    1.113 --    22 C    0.978
    72   9 F    1.109 --    21 C    0.976
    73   9 F    1.110 --     5 C    0.976
    74   9 F    1.114 --     6 C    0.978
    75   1 H    0.989 --     4 C    0.958
    76   1 H    0.990 --     7 C    0.953
    77   1 H    0.993 --    16 C    0.937
    78   1 H    0.989 --    20 C    0.958
    79   1 H    0.990 --    23 C    0.953
    80   1 H    0.993 --    32 C    0.940
    81   1 H    0.989 --    37 C    0.935
    82   1 H    0.996 --    43 C    0.956
    83   1 H    0.993 --    45 C    0.960
    84   1 H    0.993 --    48 C    0.959
    85   1 H    0.996 --    54 C    0.956
    86   1 H    0.995 --    60 C    0.958
    87   1 H    0.996 --    61 C    0.971
    88   1 H    0.999 --    61 C    0.977
    89   1 H    0.998 --    62 C    0.984
    90   1 H    0.998 --    62 C    0.984
    91   1 H    0.997 --    62 C    0.984
    92   1 H    0.996 --    63 C    0.971
    93   1 H    0.999 --    63 C    0.977
    94   1 H    0.997 --    64 C    0.984
    95   1 H    0.998 --    64 C    0.984
    96   1 H    0.998 --    64 C    0.984
    97   1 H    0.996 --    65 C    0.971
    98   1 H    0.999 --    65 C    0.977
    99   1 H    0.997 --    66 C    0.984
   100   1 H    0.998 --    66 C    0.984
   101   1 H    0.998 --    66 C    0.984
   102   1 H    0.999 --    67 C    0.977
   103   1 H    0.996 --    67 C    0.971
   104   1 H    0.998 --    68 C    0.983
   105   1 H    0.998 --    68 C    0.984
   106   1 H    0.997 --    68 C    0.984
 ---------------------------------------------------------------------------

Topologies differ in bond orders
Writing corrected topology to xtbtopo.mol

molecular dipole:
                 x           y           z       tot (Debye)
 q only:        0.994      -0.207      -2.406
   full:        1.416      -0.753      -2.077       6.670
molecular quadrupole (traceless):
                xx          xy          yy          xz          yz          zz
 q only:      -59.432    -188.240     -36.463    -112.837     -98.010      95.895
  q+dip:      -45.850    -184.064     -44.352    -112.543    -104.654      90.202
   full:      -47.230    -187.053     -47.049    -122.915    -102.603      94.279


           -------------------------------------------------
          | TOTAL ENERGY             -201.646035662392 Eh   |
          | GRADIENT NORM               0.023467408662 Eh/α |
          | HOMO-LUMO GAP               1.089645808653 eV   |
           -------------------------------------------------

------------------------------------------------------------------------
 * finished run on 2021/12/28 at 11:49:37.776     
------------------------------------------------------------------------
 total:
 * wall-time:     0 d,  0 h,  0 min,  0.551 sec
 *  cpu-time:     0 d,  0 h,  0 min,  0.548 sec
 * ratio c/w:     0.994 speedup
 SCF:
 * wall-time:     0 d,  0 h,  0 min,  0.492 sec
 *  cpu-time:     0 d,  0 h,  0 min,  0.492 sec
 * ratio c/w:     0.999 speedup

