      -----------------------------------------------------------      
     |                   =====================                   |     
     |                           x T B                           |     
     |                   =====================                   |     
     |                         S. Grimme                         |     
     |          Mulliken Center for Theoretical Chemistry        |     
     |                    University of Bonn                     |     
      -----------------------------------------------------------      

   * xtb version 6.4.1 (unknown) compiled by 'oda6@login1.crc.pitt.edu' on 2021-06-25

   xtb is free software: you can redistribute it and/or modify it under
   the terms of the GNU Lesser General Public License as published by
   the Free Software Foundation, either version 3 of the License, or
   (at your option) any later version.
   
   xtb is distributed in the hope that it will be useful,
   but WITHOUT ANY WARRANTY; without even the implied warranty of
   MERCHANTABILITY or FITNESS FOR A PARTICULAR PURPOSE.  See the
   GNU Lesser General Public License for more details.
   
   Cite this work as:
   * C. Bannwarth, E. Caldeweyher, S. Ehlert, A. Hansen, P. Pracht,
     J. Seibert, S. Spicher, S. Grimme, WIREs Comput. Mol. Sci., 2020, 11,
     e01493. DOI: 10.1002/wcms.1493
   
   for GFN2-xTB:
   * C. Bannwarth, S. Ehlert and S. Grimme., J. Chem. Theory Comput., 2019,
     15, 1652-1671. DOI: 10.1021/acs.jctc.8b01176
   for GFN1-xTB:
   * S. Grimme, C. Bannwarth, P. Shushkov, J. Chem. Theory Comput., 2017,
     13, 1989-2009. DOI: 10.1021/acs.jctc.7b00118
   for GFN0-xTB:
   * P. Pracht, E. Caldeweyher, S. Ehlert, S. Grimme, ChemRxiv, 2019, preprint.
     DOI: 10.26434/chemrxiv.8326202.v1
   for GFN-FF:
   * S. Spicher and S. Grimme, Angew. Chem. Int. Ed., 2020, 59, 15665-15673.
     DOI: 10.1002/anie.202004239
   
   for DFT-D4:
   * E. Caldeweyher, C. Bannwarth and S. Grimme, J. Chem. Phys., 2017,
     147, 034112. DOI: 10.1063/1.4993215
   * E. Caldeweyher, S. Ehlert, A. Hansen, H. Neugebauer, S. Spicher,
     C. Bannwarth and S. Grimme, J. Chem. Phys., 2019, 150, 154122.
     DOI: 10.1063/1.5090222
   * E. Caldeweyher, J.-M. Mewes, S. Ehlert and S. Grimme, Phys. Chem. Chem. Phys.
     2020, 22, 8499-8512. DOI: 10.1039/D0CP00502A
   
   for sTDA-xTB:
   * S. Grimme and C. Bannwarth, J. Chem. Phys., 2016, 145, 054103.
     DOI: 10.1063/1.4959605
   
   in the mass-spec context:
   * V. Asgeirsson, C. Bauer and S. Grimme, Chem. Sci., 2017, 8, 4879.
     DOI: 10.1039/c7sc00601b
   * J. Koopman and S. Grimme, ACS Omega 2019, 4, 12, 15120-15133.
     DOI: 10.1021/acsomega.9b02011
   
   for metadynamics refer to:
   * S. Grimme, J. Chem. Theory Comput., 2019, 155, 2847-2862
     DOI: 10.1021/acs.jctc.9b00143
   
   for SPH calculations refer to:
   * S. Spicher and S. Grimme, J. Chem. Theory Comput., 2021, 17, 1701-1714
     DOI: 10.1021/acs.jctc.0c01306
   
   with help from (in alphabetical order)
   P. Atkinson, C. Bannwarth, F. Bohle, G. Brandenburg, E. Caldeweyher
   M. Checinski, S. Dohm, S. Ehlert, S. Ehrlich, I. Gerasimov, J. Koopman
   C. Lavigne, S. Lehtola, F. März, M. Müller, F. Musil, H. Neugebauer
   J. Pisarek, C. Plett, P. Pracht, J. Seibert, P. Shushkov, S. Spicher
   M. Stahn, M. Steiner, T. Strunk, J. Stückrath, T. Rose, and J. Unsleber
   
 * started run on 2021/12/28 at 11:50:25.274     

           -------------------------------------------------
          |                Calculation Setup                |
           -------------------------------------------------

          program call               : /ihome/ghutchison/oda6/xtb/xtb-641/bin//xtb IDTC-4Cl.mol --sp --alpb hexane
          hostname                   : smp-n39
          coordinate file            : IDTC-4Cl.mol
          omp threads                :                     1
          number of atoms            :                   186
          number of electrons        :                   566
          charge                     :                     0
          spin                       :                   0.0
          first test random number   :      0.38809157488299

   ID    Z sym.   atoms
    1    6 C      1-11, 13-17, 19-52, 54-56, 58-70, 72-74, 79-88, 90-92,
                  97-103, 105-109, 111-116
    2   16 S      12, 18, 53, 57, 104, 110
    3    8 O      71, 89
    4    7 N      75, 76, 93, 94
    5   17 Cl     77, 78, 95, 96
    6    1 H      117-186

           -------------------------------------------------
          |                 G F N 2 - x T B                 |
           -------------------------------------------------

        Reference                      10.1021/acs.jctc.8b01176
      * Hamiltonian:
        H0-scaling (s, p, d)           1.850000    2.230000    2.230000
        zeta-weighting                 0.500000
      * Dispersion:
        s8                             2.700000
        a1                             0.520000
        a2                             5.000000
        s9                             5.000000
      * Repulsion:
        kExp                           1.500000    1.000000
        rExp                           1.000000
      * Coulomb:
        alpha                          2.000000
        third order                    shell-resolved
        anisotropic                    true
        a3                             3.000000
        a5                             4.000000
        cn-shift                       1.200000
        cn-exp                         4.000000
        max-rad                        5.000000

      * Solvation model:               ALPB
        Solvent                        hexane
        Parameter file                 internal GFN2-xTB/ALPB
        Dielectric constant                1.8800E+00
        Reference state                gsolv [1 M gas/solution]
        Free energy shift                  4.8134E-03 Eh       3.0204E+00 kcal/mol
        Temperature                        2.9815E+02 K
        Density                            6.6000E-01 kg/L
        Solvent mass                       8.6180E+01 g/mol
        Interaction kernel             P16
        Born radius scaling (c1)           1.1040E+00
        Born radii integrator          GBOBC
        Born offset                        0.0000E+00 a0       0.0000E+00 AA
        H-bond correction              false
        Ion screening                  false
        Surface tension                    1.0000E-05 Eh       1.5569E+01 dyn/cm
        Grid points                               230 per atom

          ...................................................
          :                      SETUP                      :
          :.................................................:
          :  # basis functions                 594          :
          :  # atomic orbitals                 584          :
          :  # shells                          312          :
          :  # electrons                       566          :
          :  max. iterations                   250          :
          :  Hamiltonian                  GFN2-xTB          :
          :  restarted?                      false          :
          :  GBSA solvation                   true          :
          :  PC potential                    false          :
          :  electronic temp.          300.0000000     K    :
          :  accuracy                    1.0000000          :
          :  -> integral cutoff          0.2500000E+02      :
          :  -> integral neglect         0.1000000E-07      :
          :  -> SCF convergence          0.1000000E-05 Eh   :
          :  -> wf. convergence          0.1000000E-03 e    :
          :  Broyden damping             0.4000000          :
          ...................................................

 iter      E             dE          RMSdq      gap      omega  full diag
   1   -312.1436611 -0.312144E+03  0.438E+00    0.98       0.0  T
   2   -312.3056500 -0.161989E+00  0.254E+00    0.95       1.0  T
   3   -312.1197406  0.185909E+00  0.131E+00    0.63       1.0  T
   4   -312.3492644 -0.229524E+00  0.434E-01    0.93       1.0  T
   5   -312.3698933 -0.206290E-01  0.137E-01    0.81       1.0  T
   6   -312.3712831 -0.138973E-02  0.691E-02    0.85       1.0  T
   7   -312.3715227 -0.239665E-03  0.344E-02    0.83       1.0  T
   8   -312.3715993 -0.765797E-04  0.220E-02    0.84       1.0  T
   9   -312.3716227 -0.234222E-04  0.156E-02    0.84       1.0  T
  10   -312.3716359 -0.132141E-04  0.106E-02    0.84       1.0  T
  11   -312.3716429 -0.692090E-05  0.580E-03    0.84       1.3  T
  12   -312.3716449 -0.206001E-05  0.301E-03    0.84       2.4  T
  13   -312.3716458 -0.854929E-06  0.116E-03    0.84       6.3  T
  14   -312.3716458 -0.703371E-07  0.672E-04    0.84      10.9  T
  15   -312.3716459 -0.317750E-07  0.395E-04    0.84      18.6  T

   *** convergence criteria satisfied after 15 iterations ***

         #    Occupation            Energy/Eh            Energy/eV
      -------------------------------------------------------------
         1        2.0000           -1.0754521             -29.2645
       ...           ...                  ...                  ...
       277        2.0000           -0.3999408             -10.8829
       278        2.0000           -0.3977142             -10.8224
       279        2.0000           -0.3953235             -10.7573
       280        2.0000           -0.3926417             -10.6843
       281        2.0000           -0.3905477             -10.6273
       282        2.0000           -0.3748818             -10.2011
       283        2.0000           -0.3637021              -9.8968 (HOMO)
       284        0.0000           -0.3328736              -9.0580 (LUMO)
       285                         -0.3310785              -9.0091
       286                         -0.3233379              -8.7985
       287                         -0.3218218              -8.7572
       288                         -0.3008746              -8.1872
       ...                                ...                  ...
       584                          1.1580260              31.5115
      -------------------------------------------------------------
                  HL-Gap            0.0308285 Eh            0.8389 eV
             Fermi-level           -0.3483548 Eh           -9.4792 eV

 SCC (total)                   0 d,  0 h,  0 min,  1.787 sec
 SCC setup                      ...        0 min,  0.011 sec (  0.622%)
 Dispersion                     ...        0 min,  0.011 sec (  0.620%)
 classical contributions        ...        0 min,  0.001 sec (  0.066%)
 integral evaluation            ...        0 min,  0.117 sec (  6.545%)
 iterations                     ...        0 min,  1.161 sec ( 64.958%)
 molecular gradient             ...        0 min,  0.477 sec ( 26.691%)
 printout                       ...        0 min,  0.009 sec (  0.495%)

         :::::::::::::::::::::::::::::::::::::::::::::::::::::
         ::                     SUMMARY                     ::
         :::::::::::::::::::::::::::::::::::::::::::::::::::::
         :: total energy            -307.400400486723 Eh    ::
         :: total w/o Gsasa/hb      -307.284418011945 Eh    ::
         :: gradient norm              0.020592385437 Eh/a0 ::
         :: HOMO-LUMO gap              0.838886380529 eV    ::
         ::.................................................::
         :: SCC energy              -312.371645878610 Eh    ::
         :: -> isotropic ES            0.135026562450 Eh    ::
         :: -> anisotropic ES          0.020143146820 Eh    ::
         :: -> anisotropic XC          0.181432058058 Eh    ::
         :: -> dispersion             -0.288686294828 Eh    ::
         :: -> Gsolv                  -0.135901675072 Eh    ::
         ::    -> Gelec               -0.019919200295 Eh    ::
         ::    -> Gsasa               -0.120795830597 Eh    ::
         ::    -> Ghb                  0.000000000000 Eh    ::
         ::    -> Gshift               0.004813355820 Eh    ::
         :: repulsion energy           4.969878083006 Eh    ::
         :: add. restraining           0.000000000000 Eh    ::
         :: total charge              -0.000000000045 e     ::
         :::::::::::::::::::::::::::::::::::::::::::::::::::::

           -------------------------------------------------
          |                Property Printout                |
           -------------------------------------------------

    * Orbital Energies and Occupations

         #    Occupation            Energy/Eh            Energy/eV
      -------------------------------------------------------------
         1        2.0000           -1.0754521             -29.2645
       ...           ...                  ...                  ...
       271        2.0000           -0.4094171             -11.1408
       272        2.0000           -0.4085238             -11.1165
       273        2.0000           -0.4078552             -11.0983
       274        2.0000           -0.4069608             -11.0740
       275        2.0000           -0.4062354             -11.0542
       276        2.0000           -0.4030623             -10.9679
       277        2.0000           -0.3999408             -10.8829
       278        2.0000           -0.3977142             -10.8224
       279        2.0000           -0.3953235             -10.7573
       280        2.0000           -0.3926417             -10.6843
       281        2.0000           -0.3905477             -10.6273
       282        2.0000           -0.3748818             -10.2011
       283        2.0000           -0.3637021              -9.8968 (HOMO)
       284        0.0000           -0.3328736              -9.0580 (LUMO)
       285                         -0.3310785              -9.0091
       286                         -0.3233379              -8.7985
       287                         -0.3218218              -8.7572
       288                         -0.3008746              -8.1872
       289                         -0.2903889              -7.9019
       290                         -0.2751374              -7.4869
       291                         -0.2682174              -7.2986
       292                         -0.2580728              -7.0225
       293                         -0.2497345              -6.7956
       294                         -0.2458948              -6.6911
       ...                                ...                  ...
       584                          1.1580260              31.5115
      -------------------------------------------------------------
                  HL-Gap            0.0308285 Eh            0.8389 eV
             Fermi-level           -0.3483548 Eh           -9.4792 eV

     #   Z          covCN         q      C6AA      α(0)
     1   6 C        3.083     0.004    27.852     8.652
     2   6 C        3.041     0.001    27.969     8.674
     3   6 C        2.908    -0.038    28.951     8.823
     4   6 C        3.082     0.003    27.857     8.652
     5   6 C        3.042     0.001    27.974     8.675
     6   6 C        2.908    -0.038    28.953     8.823
     7   6 C        3.952     0.015    20.263     6.396
     8   6 C        3.238    -0.006    27.261     8.468
     9   6 C        3.077     0.017    27.554     8.606
    10   6 C        3.061    -0.050    29.169     8.857
    11   6 C        3.037     0.017    27.596     8.616
    12  16 S        2.269    -0.036   142.534    20.094
    13   6 C        3.951     0.014    20.265     6.397
    14   6 C        3.236    -0.008    27.334     8.483
    15   6 C        3.076     0.018    27.523     8.602
    16   6 C        3.061    -0.051    29.214     8.864
    17   6 C        3.035     0.016    27.617     8.620
    18  16 S        2.305    -0.024   142.061    20.060
    19   6 C        3.031     0.024    27.447     8.593
    20   6 C        3.031     0.025    27.424     8.590
    21   6 C        2.981     0.011    27.770     8.644
    22   6 C        2.980     0.009    27.800     8.649
    23   6 C        2.984     0.011    27.761     8.643
    24   6 C        2.978     0.009    27.823     8.652
    25   6 C        2.923    -0.037    28.919     8.819
    26   6 C        2.925    -0.040    28.997     8.831
    27   6 C        2.971     0.012    27.754     8.641
    28   6 C        2.926    -0.041    29.008     8.833
    29   6 C        2.921    -0.040    29.003     8.831
    30   6 C        2.922    -0.040    28.984     8.829
    31   6 C        2.925    -0.040    29.006     8.832
    32   6 C        2.971     0.012    27.745     8.640
    33   6 C        2.925    -0.040    28.993     8.830
    34   6 C        2.923    -0.037    28.932     8.821
    35   6 C        2.922    -0.040    28.998     8.831
    36   6 C        2.925    -0.041    29.013     8.833
    37   6 C        2.971     0.011    27.760     8.642
    38   6 C        2.925    -0.040    29.002     8.832
    39   6 C        2.923    -0.037    28.926     8.820
    40   6 C        2.921    -0.040    28.994     8.830
    41   6 C        2.925    -0.041    29.007     8.832
    42   6 C        2.971     0.011    27.762     8.643
    43   6 C        2.925    -0.041    29.019     8.834
    44   6 C        2.923    -0.038    28.942     8.822
    45   6 C        3.806    -0.060    21.650     6.624
    46   6 C        3.806    -0.060    21.650     6.624
    47   6 C        3.806    -0.060    21.650     6.624
    48   6 C        3.806    -0.060    21.648     6.624
    49   6 C        3.754    -0.100    22.467     6.759
    50   6 C        3.754    -0.100    22.470     6.759
    51   6 C        3.754    -0.100    22.469     6.759
    52   6 C        3.754    -0.100    22.471     6.760
    53  16 S        2.288    -0.010   141.482    20.019
    54   6 C        3.075     0.012    27.664     8.624
    55   6 C        3.233    -0.008    27.348     8.488
    56   6 C        3.062    -0.054    29.283     8.874
    57  16 S        2.252    -0.016   141.705    20.035
    58   6 C        3.084     0.015    27.575     8.608
    59   6 C        3.221    -0.002    27.349     8.503
    60   6 C        3.062    -0.051    29.206     8.862
    61   6 C        2.918    -0.015    28.387     8.737
    62   6 C        3.009    -0.041    29.000     8.834
    63   6 C        2.873     0.233    23.129     7.884
    64   6 C        3.046    -0.015    28.349     8.733
    65   6 C        3.036     0.011    27.740     8.639
    66   6 C        3.020     0.037    27.138     8.545
    67   6 C        2.951    -0.024    28.608     8.773
    68   6 C        2.922     0.097    25.850     8.338
    69   6 C        2.920     0.099    25.811     8.331
    70   6 C        2.956    -0.036    28.901     8.818
    71   8 O        0.951    -0.395    21.539     6.225
    72   6 C        2.947     0.009    27.824     8.651
    73   6 C        1.947     0.132    27.850     8.522
    74   6 C        1.945     0.133    27.833     8.520
    75   7 N        0.911    -0.271    26.999     7.515
    76   7 N        0.911    -0.264    26.830     7.492
    77  17 Cl       0.999    -0.133   103.329    15.552
    78  17 Cl       0.995    -0.134   103.357    15.554
    79   6 C        2.957    -0.013    28.342     8.732
    80   6 C        3.002    -0.040    28.987     8.832
    81   6 C        2.867     0.235    23.094     7.877
    82   6 C        3.047    -0.016    28.368     8.735
    83   6 C        3.031     0.011    27.735     8.638
    84   6 C        3.022     0.038    27.134     8.545
    85   6 C        2.951    -0.025    28.615     8.774
    86   6 C        2.922     0.097    25.854     8.338
    87   6 C        2.920     0.099    25.810     8.331
    88   6 C        2.956    -0.037    28.912     8.819
    89   8 O        0.856    -0.419    22.057     6.297
    90   6 C        2.947     0.009    27.811     8.649
    91   6 C        1.948     0.132    27.860     8.524
    92   6 C        1.950     0.132    27.840     8.521
    93   7 N        0.911    -0.266    26.887     7.499
    94   7 N        0.911    -0.263    26.818     7.490
    95  17 Cl       0.994    -0.135   103.394    15.556
    96  17 Cl       0.999    -0.134   103.350    15.553
    97   6 C        3.070     0.014    27.618     8.617
    98   6 C        3.229    -0.015    27.565     8.527
    99   6 C        3.931     0.018    20.202     6.388
   100   6 C        3.807    -0.052    21.493     6.600
   101   6 C        3.803    -0.053    21.530     6.606
   102   6 C        3.751    -0.107    22.601     6.780
   103   6 C        3.751    -0.106    22.597     6.779
   104  16 S        2.301     0.049   139.053    19.847
   105   6 C        2.990     0.024    27.468     8.597
   106   6 C        3.059    -0.044    29.029     8.836
   107   6 C        3.069     0.029    27.280     8.564
   108   6 C        3.235    -0.012    27.427     8.498
   109   6 C        3.935     0.020    20.177     6.383
   110  16 S        2.272    -0.003   141.163    19.997
   111   6 C        2.990     0.027    27.402     8.587
   112   6 C        3.047    -0.042    28.988     8.830
   113   6 C        3.806    -0.053    21.524     6.605
   114   6 C        3.805    -0.051    21.476     6.597
   115   6 C        3.751    -0.106    22.597     6.779
   116   6 C        3.751    -0.109    22.643     6.786
   117   1 H        0.926     0.046     2.365     2.405
   118   1 H        0.926     0.047     2.354     2.399
   119   1 H        0.926     0.053     2.288     2.365
   120   1 H        0.926     0.048     2.343     2.394
   121   1 H        0.926     0.035     2.521     2.483
   122   1 H        0.926     0.036     2.502     2.474
   123   1 H        0.926     0.034     2.527     2.486
   124   1 H        0.926     0.030     2.590     2.517
   125   1 H        0.926     0.027     2.623     2.533
   126   1 H        0.926     0.034     2.529     2.487
   127   1 H        0.926     0.036     2.507     2.476
   128   1 H        0.926     0.033     2.543     2.494
   129   1 H        0.926     0.030     2.588     2.516
   130   1 H        0.926     0.035     2.521     2.483
   131   1 H        0.926     0.035     2.510     2.478
   132   1 H        0.926     0.034     2.536     2.490
   133   1 H        0.926     0.030     2.593     2.518
   134   1 H        0.926     0.034     2.525     2.485
   135   1 H        0.926     0.035     2.523     2.484
   136   1 H        0.926     0.033     2.549     2.497
   137   1 H        0.924     0.039     2.458     2.452
   138   1 H        0.924     0.039     2.462     2.454
   139   1 H        0.924     0.039     2.461     2.453
   140   1 H        0.924     0.039     2.466     2.456
   141   1 H        0.924     0.040     2.450     2.448
   142   1 H        0.924     0.039     2.464     2.455
   143   1 H        0.924     0.039     2.467     2.456
   144   1 H        0.924     0.039     2.457     2.451
   145   1 H        0.925     0.038     2.481     2.463
   146   1 H        0.925     0.036     2.505     2.475
   147   1 H        0.925     0.039     2.461     2.453
   148   1 H        0.925     0.037     2.484     2.465
   149   1 H        0.925     0.037     2.493     2.469
   150   1 H        0.925     0.039     2.463     2.454
   151   1 H        0.925     0.037     2.491     2.468
   152   1 H        0.925     0.039     2.462     2.454
   153   1 H        0.925     0.037     2.496     2.470
   154   1 H        0.925     0.037     2.486     2.466
   155   1 H        0.925     0.037     2.492     2.469
   156   1 H        0.925     0.039     2.462     2.454
   157   1 H        0.926     0.054     2.266     2.354
   158   1 H        0.926     0.061     2.187     2.313
   159   1 H        0.925     0.076     2.024     2.225
   160   1 H        0.926     0.096     1.818     2.108
   161   1 H        0.926     0.092     1.859     2.132
   162   1 H        0.925     0.074     2.046     2.237
   163   1 H        0.926     0.096     1.824     2.112
   164   1 H        0.926     0.092     1.861     2.133
   165   1 H        0.924     0.045     2.380     2.412
   166   1 H        0.924     0.035     2.518     2.482
   167   1 H        0.924     0.038     2.473     2.459
   168   1 H        0.924     0.049     2.337     2.391
   169   1 H        0.925     0.038     2.478     2.462
   170   1 H        0.925     0.047     2.353     2.399
   171   1 H        0.925     0.040     2.448     2.447
   172   1 H        0.925     0.043     2.414     2.430
   173   1 H        0.925     0.041     2.441     2.443
   174   1 H        0.925     0.046     2.371     2.408
   175   1 H        0.926     0.062     2.178     2.308
   176   1 H        0.926     0.102     1.769     2.080
   177   1 H        0.924     0.055     2.253     2.347
   178   1 H        0.924     0.035     2.523     2.484
   179   1 H        0.924     0.048     2.350     2.397
   180   1 H        0.924     0.035     2.515     2.480
   181   1 H        0.925     0.045     2.384     2.414
   182   1 H        0.925     0.039     2.461     2.453
   183   1 H        0.925     0.041     2.436     2.441
   184   1 H        0.925     0.040     2.444     2.445
   185   1 H        0.925     0.046     2.366     2.405
   186   1 H        0.925     0.046     2.367     2.406

 Mol. C6AA /au·bohr⁶  :     585958.205138
 Mol. C8AA /au·bohr⁸  :   16387782.224845
 Mol. α(0) /au        :       1219.329241


Wiberg/Mayer (AO) data.
largest (>0.10) Wiberg bond orders for each atom

 ---------------------------------------------------------------------------
     #   Z sym  total        # sym  WBO       # sym  WBO       # sym  WBO
 ---------------------------------------------------------------------------
     1   6 C    3.965 --     6 C    1.472     2 C    1.278     7 C    0.971
     2   6 C    3.955 --     3 C    1.344     1 C    1.278     9 C    1.152
     3   6 C    3.975 --     4 C    1.468     2 C    1.344   117 H    0.963
     4   6 C    3.965 --     3 C    1.468     5 C    1.281    13 C    0.968
     5   6 C    3.956 --     6 C    1.343     4 C    1.281    15 C    1.151
     6   6 C    3.975 --     1 C    1.472     5 C    1.343   118 H    0.963
     7   6 C    3.988 --     8 C    0.971     1 C    0.971    24 C    0.961
                            23 C    0.946
     8   6 C    3.959 --     9 C    1.400    10 C    1.351     7 C    0.971
     9   6 C    3.907 --     8 C    1.400    12 S    1.153     2 C    1.152
    10   6 C    3.958 --    11 C    1.440     8 C    1.351   119 H    0.958
    11   6 C    3.923 --    10 C    1.440    19 C    1.205    12 S    1.104
    12  16 S    2.563 --     9 C    1.153    11 C    1.104
    13   6 C    3.987 --    14 C    0.972     4 C    0.968    22 C    0.959
                            21 C    0.950
    14   6 C    3.960 --    15 C    1.395    16 C    1.356    13 C    0.972
    15   6 C    3.908 --    14 C    1.395    18 S    1.160     5 C    1.151
    16   6 C    3.958 --    17 C    1.429    14 C    1.356   120 H    0.960
    17   6 C    3.924 --    16 C    1.429    20 C    1.204    18 S    1.117
    18  16 S    2.579 --    15 C    1.160    17 C    1.117
    19   6 C    3.910 --    60 C    1.417    11 C    1.205    57 S    1.124
    20   6 C    3.910 --    56 C    1.408    17 C    1.204    53 S    1.134
    21   6 C    3.982 --    35 C    1.414    39 C    1.402    13 C    0.950
                            37 C    0.105
    22   6 C    3.983 --    40 C    1.415    44 C    1.401    13 C    0.959
                            42 C    0.106
    23   6 C    3.982 --    29 C    1.416    25 C    1.400     7 C    0.946
                            27 C    0.105
    24   6 C    3.984 --    30 C    1.414    34 C    1.403     7 C    0.961
                            32 C    0.106
    25   6 C    3.990 --    26 C    1.456    23 C    1.400   121 H    0.968
                            28 C    0.109
    26   6 C    3.990 --    25 C    1.456    27 C    1.403   122 H    0.969
                            29 C    0.107
    27   6 C    3.985 --    28 C    1.415    26 C    1.403    48 C    1.013
                            23 C    0.105
    28   6 C    3.991 --    29 C    1.441    27 C    1.415   123 H    0.969
                            25 C    0.109
    29   6 C    3.991 --    28 C    1.441    23 C    1.416   124 H    0.966
                            26 C    0.107
    30   6 C    3.991 --    31 C    1.445    24 C    1.414   125 H    0.967
                            33 C    0.108
    31   6 C    3.991 --    30 C    1.445    32 C    1.412   126 H    0.969
                            34 C    0.109
    32   6 C    3.987 --    31 C    1.412    33 C    1.406    47 C    1.013
                            24 C    0.106
    33   6 C    3.990 --    34 C    1.452    32 C    1.406   127 H    0.969
                            30 C    0.108
    34   6 C    3.990 --    33 C    1.452    24 C    1.403   128 H    0.967
                            31 C    0.109
    35   6 C    3.990 --    36 C    1.444    21 C    1.414   129 H    0.967
                            38 C    0.107
    36   6 C    3.991 --    35 C    1.444    37 C    1.413   130 H    0.969
                            39 C    0.109
    37   6 C    3.986 --    36 C    1.413    38 C    1.405    45 C    1.013
                            21 C    0.105
    38   6 C    3.990 --    39 C    1.453    37 C    1.405   131 H    0.969
                            35 C    0.107
    39   6 C    3.990 --    38 C    1.453    21 C    1.402   132 H    0.967
                            36 C    0.109
    40   6 C    3.991 --    41 C    1.443    22 C    1.415   133 H    0.967
                            43 C    0.107
    41   6 C    3.991 --    40 C    1.443    42 C    1.414   134 H    0.969
                            44 C    0.109
    42   6 C    3.986 --    41 C    1.414    43 C    1.404    46 C    1.013
                            22 C    0.106
    43   6 C    3.990 --    44 C    1.455    42 C    1.404   135 H    0.969
                            40 C    0.107
    44   6 C    3.990 --    43 C    1.455    22 C    1.401   136 H    0.967
                            41 C    0.109
    45   6 C    3.997 --    37 C    1.013    51 C    1.000   138 H    0.974
                           137 H    0.974
    46   6 C    3.997 --    42 C    1.013    52 C    1.000   140 H    0.974
                           139 H    0.973
    47   6 C    3.997 --    32 C    1.013    49 C    1.000   142 H    0.974
                           141 H    0.973
    48   6 C    3.997 --    27 C    1.013    50 C    1.000   143 H    0.974
                           144 H    0.974
    49   6 C    3.995 --    47 C    1.000   146 H    0.988   145 H    0.988
                           147 H    0.986
    50   6 C    3.995 --    48 C    1.000   149 H    0.988   148 H    0.988
                           150 H    0.986
    51   6 C    3.995 --    45 C    1.000   153 H    0.988   151 H    0.988
                           152 H    0.986
    52   6 C    3.995 --    46 C    1.000   155 H    0.988   154 H    0.988
                           156 H    0.986
    53  16 S    2.581 --    54 C    1.141    20 C    1.134
    54   6 C    3.922 --    55 C    1.341   107 C    1.235    53 S    1.141
    55   6 C    3.944 --    56 C    1.383    54 C    1.341   109 C    0.986
    56   6 C    3.965 --    20 C    1.408    55 C    1.383   157 H    0.957
    57  16 S    2.581 --    58 C    1.140    19 C    1.124
    58   6 C    3.924 --    59 C    1.345    97 C    1.233    57 S    1.140
    59   6 C    3.941 --    60 C    1.378    58 C    1.345    99 C    0.989
    60   6 C    3.965 --    19 C    1.417    59 C    1.378   158 H    0.954
    61   6 C    3.938 --    62 C    1.438   105 C    1.352   159 H    0.937
    62   6 C    3.948 --    61 C    1.438    66 C    1.160    63 C    1.085
    63   6 C    3.910 --    71 O    1.683    62 C    1.085    64 C    1.018
    64   6 C    3.975 --    67 C    1.424    65 C    1.290    63 C    1.018
    65   6 C    3.981 --    70 C    1.408    64 C    1.290    66 C    1.078
    66   6 C    3.963 --    72 C    1.465    62 C    1.160    65 C    1.078
    67   6 C    3.972 --    64 C    1.424    68 C    1.382   160 H    0.958
    68   6 C    3.908 --    67 C    1.382    69 C    1.353    78 Cl   1.002
    69   6 C    3.915 --    70 C    1.386    68 C    1.353    77 Cl   1.004
    70   6 C    3.967 --    65 C    1.408    69 C    1.386   161 H    0.953
    71   8 O    2.077 --    63 C    1.683   104 S    0.121
    72   6 C    3.936 --    66 C    1.465    74 C    1.104    73 C    1.100
    73   6 C    3.941 --    76 N    2.753    72 C    1.100
    74   6 C    3.942 --    75 N    2.741    72 C    1.104
    75   7 N    2.952 --    74 C    2.741
    76   7 N    2.958 --    73 C    2.753
    77  17 Cl   1.152 --    69 C    1.004
    78  17 Cl   1.148 --    68 C    1.002
    79   6 C    3.938 --    80 C    1.458   111 C    1.329   162 H    0.940
    80   6 C    3.946 --    79 C    1.458    84 C    1.153    81 C    1.065
    81   6 C    3.911 --    89 O    1.712    80 C    1.065    82 C    1.017
    82   6 C    3.977 --    85 C    1.421    83 C    1.292    81 C    1.017
    83   6 C    3.981 --    88 C    1.405    82 C    1.292    84 C    1.080
    84   6 C    3.965 --    90 C    1.472    80 C    1.153    83 C    1.080
    85   6 C    3.973 --    82 C    1.421    86 C    1.385   163 H    0.958
    86   6 C    3.908 --    85 C    1.385    87 C    1.351    95 Cl   1.001
    87   6 C    3.915 --    88 C    1.390    86 C    1.351    96 Cl   1.004
    88   6 C    3.968 --    83 C    1.405    87 C    1.390   164 H    0.953
    89   8 O    2.010 --    81 C    1.712
    90   6 C    3.939 --    84 C    1.472    91 C    1.100    92 C    1.098
    91   6 C    3.943 --    93 N    2.743    90 C    1.100
    92   6 C    3.942 --    94 N    2.754    90 C    1.098
    93   7 N    2.954 --    91 C    2.743
    94   7 N    2.959 --    92 C    2.754
    95  17 Cl   1.146 --    86 C    1.001
    96  17 Cl   1.151 --    87 C    1.004
    97   6 C    3.936 --    98 C    1.278    58 C    1.233   104 S    1.215
    98   6 C    3.951 --   106 C    1.477    97 C    1.278    99 C    0.982
    99   6 C    3.986 --    59 C    0.989    98 C    0.982   101 C    0.956
                           100 C    0.955
   100   6 C    3.992 --   103 C    1.019   166 H    0.977   165 H    0.973
                            99 C    0.955
   101   6 C    3.992 --   102 C    1.019   167 H    0.977   168 H    0.974
                            99 C    0.956
   102   6 C    3.994 --   101 C    1.019   169 H    0.986   171 H    0.985
                           170 H    0.983
   103   6 C    3.993 --   100 C    1.019   173 H    0.984   174 H    0.984
                           172 H    0.983
   104  16 S    2.754 --    97 C    1.215   105 C    1.093    71 O    0.121
   105   6 C    3.927 --    61 C    1.352   106 C    1.307   104 S    1.093
   106   6 C    3.962 --    98 C    1.477   105 C    1.307   175 H    0.960
   107   6 C    3.927 --   108 C    1.292    54 C    1.235   110 S    1.202
   108   6 C    3.953 --   112 C    1.446   107 C    1.292   109 C    0.984
   109   6 C    3.987 --    55 C    0.986   108 C    0.984   113 C    0.955
                           114 C    0.955
   110  16 S    2.594 --   107 C    1.202   111 C    1.068
   111   6 C    3.912 --   112 C    1.344    79 C    1.329   110 S    1.068
   112   6 C    3.953 --   108 C    1.446   111 C    1.344   176 H    0.934
   113   6 C    3.992 --   115 C    1.019   178 H    0.977   177 H    0.971
                           109 C    0.955
   114   6 C    3.993 --   116 C    1.019   180 H    0.977   179 H    0.972
                           109 C    0.955
   115   6 C    3.994 --   113 C    1.019   183 H    0.984   181 H    0.984
                           182 H    0.984
   116   6 C    3.992 --   114 C    1.019   184 H    0.984   185 H    0.984
                           186 H    0.983
   117   1 H    0.996 --     3 C    0.963
   118   1 H    0.996 --     6 C    0.963
   119   1 H    0.997 --    10 C    0.958
   120   1 H    0.997 --    16 C    0.960
   121   1 H    0.998 --    25 C    0.968
   122   1 H    0.998 --    26 C    0.969
   123   1 H    0.998 --    28 C    0.969
   124   1 H    0.999 --    29 C    0.966
   125   1 H    0.999 --    30 C    0.967
   126   1 H    0.998 --    31 C    0.969
   127   1 H    0.998 --    33 C    0.969
   128   1 H    0.999 --    34 C    0.967
   129   1 H    0.999 --    35 C    0.967
   130   1 H    0.998 --    36 C    0.969
   131   1 H    0.998 --    38 C    0.969
   132   1 H    0.999 --    39 C    0.967
   133   1 H    0.999 --    40 C    0.967
   134   1 H    0.998 --    41 C    0.969
   135   1 H    0.998 --    43 C    0.969
   136   1 H    0.999 --    44 C    0.967
   137   1 H    0.998 --    45 C    0.974
   138   1 H    0.998 --    45 C    0.974
   139   1 H    0.998 --    46 C    0.973
   140   1 H    0.998 --    46 C    0.974
   141   1 H    0.998 --    47 C    0.973
   142   1 H    0.998 --    47 C    0.974
   143   1 H    0.998 --    48 C    0.974
   144   1 H    0.998 --    48 C    0.974
   145   1 H    0.999 --    49 C    0.988
   146   1 H    0.999 --    49 C    0.988
   147   1 H    0.998 --    49 C    0.986
   148   1 H    0.999 --    50 C    0.988
   149   1 H    0.999 --    50 C    0.988
   150   1 H    0.998 --    50 C    0.986
   151   1 H    0.999 --    51 C    0.988
   152   1 H    0.998 --    51 C    0.986
   153   1 H    0.999 --    51 C    0.988
   154   1 H    0.999 --    52 C    0.988
   155   1 H    0.999 --    52 C    0.988
   156   1 H    0.998 --    52 C    0.986
   157   1 H    0.996 --    56 C    0.957
   158   1 H    0.996 --    60 C    0.954
   159   1 H    0.993 --    61 C    0.937
   160   1 H    0.990 --    67 C    0.958
   161   1 H    0.991 --    70 C    0.953
   162   1 H    0.994 --    79 C    0.940
   163   1 H    0.990 --    85 C    0.958
   164   1 H    0.991 --    88 C    0.953
   165   1 H    0.997 --   100 C    0.973
   166   1 H    0.999 --   100 C    0.977
   167   1 H    0.998 --   101 C    0.977
   168   1 H    0.997 --   101 C    0.974
   169   1 H    0.999 --   102 C    0.986
   170   1 H    0.998 --   102 C    0.983
   171   1 H    0.997 --   102 C    0.985
   172   1 H    0.998 --   103 C    0.983
   173   1 H    0.997 --   103 C    0.984
   174   1 H    0.998 --   103 C    0.984
   175   1 H    0.995 --   106 C    0.960
   176   1 H    0.989 --   112 C    0.934
   177   1 H    0.996 --   113 C    0.971
   178   1 H    0.999 --   113 C    0.977
   179   1 H    0.997 --   114 C    0.972
   180   1 H    0.999 --   114 C    0.977
   181   1 H    0.998 --   115 C    0.984
   182   1 H    0.998 --   115 C    0.984
   183   1 H    0.997 --   115 C    0.984
   184   1 H    0.997 --   116 C    0.984
   185   1 H    0.998 --   116 C    0.984
   186   1 H    0.998 --   116 C    0.983
 ---------------------------------------------------------------------------

Topologies differ in bond orders
Writing corrected topology to xtbtopo.mol

molecular dipole:
                 x           y           z       tot (Debye)
 q only:       -3.648       4.672       3.558
   full:       -3.470       4.414       2.791      15.937
molecular quadrupole (traceless):
                xx          xy          yy          xz          yz          zz
 q only:       37.836    -173.531     -94.494     148.997     156.433      56.658
  q+dip:      -20.047    -190.611     -56.774     145.929     119.232      76.821
   full:      -28.587    -187.345     -57.747     144.639     120.285      86.334


           -------------------------------------------------
          | TOTAL ENERGY             -307.400400486723 Eh   |
          | GRADIENT NORM               0.020592385437 Eh/α |
          | HOMO-LUMO GAP               0.838886380529 eV   |
           -------------------------------------------------

------------------------------------------------------------------------
 * finished run on 2021/12/28 at 11:50:27.187     
------------------------------------------------------------------------
 total:
 * wall-time:     0 d,  0 h,  0 min,  1.912 sec
 *  cpu-time:     0 d,  0 h,  0 min,  1.912 sec
 * ratio c/w:     1.000 speedup
 SCF:
 * wall-time:     0 d,  0 h,  0 min,  1.790 sec
 *  cpu-time:     0 d,  0 h,  0 min,  1.790 sec
 * ratio c/w:     1.000 speedup

