      -----------------------------------------------------------      
     |                   =====================                   |     
     |                           x T B                           |     
     |                   =====================                   |     
     |                         S. Grimme                         |     
     |          Mulliken Center for Theoretical Chemistry        |     
     |                    University of Bonn                     |     
      -----------------------------------------------------------      

   * xtb version 6.4.1 (unknown) compiled by 'oda6@login1.crc.pitt.edu' on 2021-06-25

   xtb is free software: you can redistribute it and/or modify it under
   the terms of the GNU Lesser General Public License as published by
   the Free Software Foundation, either version 3 of the License, or
   (at your option) any later version.
   
   xtb is distributed in the hope that it will be useful,
   but WITHOUT ANY WARRANTY; without even the implied warranty of
   MERCHANTABILITY or FITNESS FOR A PARTICULAR PURPOSE.  See the
   GNU Lesser General Public License for more details.
   
   Cite this work as:
   * C. Bannwarth, E. Caldeweyher, S. Ehlert, A. Hansen, P. Pracht,
     J. Seibert, S. Spicher, S. Grimme, WIREs Comput. Mol. Sci., 2020, 11,
     e01493. DOI: 10.1002/wcms.1493
   
   for GFN2-xTB:
   * C. Bannwarth, S. Ehlert and S. Grimme., J. Chem. Theory Comput., 2019,
     15, 1652-1671. DOI: 10.1021/acs.jctc.8b01176
   for GFN1-xTB:
   * S. Grimme, C. Bannwarth, P. Shushkov, J. Chem. Theory Comput., 2017,
     13, 1989-2009. DOI: 10.1021/acs.jctc.7b00118
   for GFN0-xTB:
   * P. Pracht, E. Caldeweyher, S. Ehlert, S. Grimme, ChemRxiv, 2019, preprint.
     DOI: 10.26434/chemrxiv.8326202.v1
   for GFN-FF:
   * S. Spicher and S. Grimme, Angew. Chem. Int. Ed., 2020, 59, 15665-15673.
     DOI: 10.1002/anie.202004239
   
   for DFT-D4:
   * E. Caldeweyher, C. Bannwarth and S. Grimme, J. Chem. Phys., 2017,
     147, 034112. DOI: 10.1063/1.4993215
   * E. Caldeweyher, S. Ehlert, A. Hansen, H. Neugebauer, S. Spicher,
     C. Bannwarth and S. Grimme, J. Chem. Phys., 2019, 150, 154122.
     DOI: 10.1063/1.5090222
   * E. Caldeweyher, J.-M. Mewes, S. Ehlert and S. Grimme, Phys. Chem. Chem. Phys.
     2020, 22, 8499-8512. DOI: 10.1039/D0CP00502A
   
   for sTDA-xTB:
   * S. Grimme and C. Bannwarth, J. Chem. Phys., 2016, 145, 054103.
     DOI: 10.1063/1.4959605
   
   in the mass-spec context:
   * V. Asgeirsson, C. Bauer and S. Grimme, Chem. Sci., 2017, 8, 4879.
     DOI: 10.1039/c7sc00601b
   * J. Koopman and S. Grimme, ACS Omega 2019, 4, 12, 15120-15133.
     DOI: 10.1021/acsomega.9b02011
   
   for metadynamics refer to:
   * S. Grimme, J. Chem. Theory Comput., 2019, 155, 2847-2862
     DOI: 10.1021/acs.jctc.9b00143
   
   for SPH calculations refer to:
   * S. Spicher and S. Grimme, J. Chem. Theory Comput., 2021, 17, 1701-1714
     DOI: 10.1021/acs.jctc.0c01306
   
   with help from (in alphabetical order)
   P. Atkinson, C. Bannwarth, F. Bohle, G. Brandenburg, E. Caldeweyher
   M. Checinski, S. Dohm, S. Ehlert, S. Ehrlich, I. Gerasimov, J. Koopman
   C. Lavigne, S. Lehtola, F. März, M. Müller, F. Musil, H. Neugebauer
   J. Pisarek, C. Plett, P. Pracht, J. Seibert, P. Shushkov, S. Spicher
   M. Stahn, M. Steiner, T. Strunk, J. Stückrath, T. Rose, and J. Unsleber
   
 * started run on 2021/12/28 at 11:51:12.896     

           -------------------------------------------------
          |                Calculation Setup                |
           -------------------------------------------------

          program call               : /ihome/ghutchison/oda6/xtb/xtb-641/bin//xtb INIC1.mol --sp --alpb hexane
          hostname                   : smp-n39
          coordinate file            : INIC1.mol
          omp threads                :                     1
          number of atoms            :                   144
          number of electrons        :                   458
          charge                     :                     0
          spin                       :                   0.0
          first test random number   :      0.93150362194413

   ID    Z sym.   atoms
    1    6 C      1-6, 8, 9, 11, 13-26, 28-30, 33, 35-39, 42-55, 58-61,
                  63-86, 89-96
    2    8 O      7, 27
    3    7 N      10, 12, 31, 32
    4   16 S      34, 40, 41, 56, 57, 62
    5    9 F      87, 88
    6    1 H      97-144

           -------------------------------------------------
          |                 G F N 2 - x T B                 |
           -------------------------------------------------

        Reference                      10.1021/acs.jctc.8b01176
      * Hamiltonian:
        H0-scaling (s, p, d)           1.850000    2.230000    2.230000
        zeta-weighting                 0.500000
      * Dispersion:
        s8                             2.700000
        a1                             0.520000
        a2                             5.000000
        s9                             5.000000
      * Repulsion:
        kExp                           1.500000    1.000000
        rExp                           1.000000
      * Coulomb:
        alpha                          2.000000
        third order                    shell-resolved
        anisotropic                    true
        a3                             3.000000
        a5                             4.000000
        cn-shift                       1.200000
        cn-exp                         4.000000
        max-rad                        5.000000

      * Solvation model:               ALPB
        Solvent                        hexane
        Parameter file                 internal GFN2-xTB/ALPB
        Dielectric constant                1.8800E+00
        Reference state                gsolv [1 M gas/solution]
        Free energy shift                  4.8134E-03 Eh       3.0204E+00 kcal/mol
        Temperature                        2.9815E+02 K
        Density                            6.6000E-01 kg/L
        Solvent mass                       8.6180E+01 g/mol
        Interaction kernel             P16
        Born radius scaling (c1)           1.1040E+00
        Born radii integrator          GBOBC
        Born offset                        0.0000E+00 a0       0.0000E+00 AA
        H-bond correction              false
        Ion screening                  false
        Surface tension                    1.0000E-05 Eh       1.5569E+01 dyn/cm
        Grid points                               230 per atom

          ...................................................
          :                      SETUP                      :
          :.................................................:
          :  # basis functions                 468          :
          :  # atomic orbitals                 462          :
          :  # shells                          246          :
          :  # electrons                       458          :
          :  max. iterations                   250          :
          :  Hamiltonian                  GFN2-xTB          :
          :  restarted?                      false          :
          :  GBSA solvation                   true          :
          :  PC potential                    false          :
          :  electronic temp.          300.0000000     K    :
          :  accuracy                    1.0000000          :
          :  -> integral cutoff          0.2500000E+02      :
          :  -> integral neglect         0.1000000E-07      :
          :  -> SCF convergence          0.1000000E-05 Eh   :
          :  -> wf. convergence          0.1000000E-03 e    :
          :  Broyden damping             0.4000000          :
          ...................................................

 iter      E             dE          RMSdq      gap      omega  full diag
   1   -252.8166866 -0.252817E+03  0.457E+00    1.17       0.0  T
   2   -252.9370414 -0.120355E+00  0.265E+00    1.13       1.0  T
   3   -252.7937110  0.143330E+00  0.140E+00    0.84       1.0  T
   4   -252.9803560 -0.186645E+00  0.414E-01    1.07       1.0  T
   5   -252.9934995 -0.131434E-01  0.139E-01    0.99       1.0  T
   6   -252.9943077 -0.808252E-03  0.586E-02    1.02       1.0  T
   7   -252.9944393 -0.131636E-03  0.225E-02    1.00       1.0  T
   8   -252.9944694 -0.300902E-04  0.962E-03    1.01       1.0  T
   9   -252.9944729 -0.343206E-05  0.432E-03    1.01       1.9  T
  10   -252.9944741 -0.121055E-05  0.181E-03    1.01       4.6  T
  11   -252.9944742 -0.936133E-07  0.961E-04    1.01       8.7  T
  12   -252.9944742 -0.361058E-07  0.529E-04    1.01      15.8  T

   *** convergence criteria satisfied after 12 iterations ***

         #    Occupation            Energy/Eh            Energy/eV
      -------------------------------------------------------------
         1        2.0000           -0.8400997             -22.8603
       ...           ...                  ...                  ...
       223        2.0000           -0.4000585             -10.8861
       224        2.0000           -0.3947931             -10.7429
       225        2.0000           -0.3943115             -10.7298
       226        2.0000           -0.3923349             -10.6760
       227        2.0000           -0.3902449             -10.6191
       228        2.0000           -0.3895418             -10.6000
       229        2.0000           -0.3751969             -10.2096 (HOMO)
       230                         -0.3381272              -9.2009 (LUMO)
       231                         -0.3351765              -9.1206
       232                         -0.3260953              -8.8735
       233                         -0.3237956              -8.8109
       234                         -0.2958581              -8.0507
       ...                                ...                  ...
       462                          1.1533451              31.3841
      -------------------------------------------------------------
                  HL-Gap            0.0370697 Eh            1.0087 eV
             Fermi-level           -0.3566828 Eh           -9.7058 eV

 SCC (total)                   0 d,  0 h,  0 min,  0.941 sec
 SCC setup                      ...        0 min,  0.008 sec (  0.811%)
 Dispersion                     ...        0 min,  0.007 sec (  0.767%)
 classical contributions        ...        0 min,  0.001 sec (  0.081%)
 integral evaluation            ...        0 min,  0.079 sec (  8.434%)
 iterations                     ...        0 min,  0.523 sec ( 55.594%)
 molecular gradient             ...        0 min,  0.318 sec ( 33.825%)
 printout                       ...        0 min,  0.005 sec (  0.482%)

         :::::::::::::::::::::::::::::::::::::::::::::::::::::
         ::                     SUMMARY                     ::
         :::::::::::::::::::::::::::::::::::::::::::::::::::::
         :: total energy            -248.832591698248 Eh    ::
         :: total w/o Gsasa/hb      -248.742734424746 Eh    ::
         :: gradient norm              0.021476628495 Eh/a0 ::
         :: HOMO-LUMO gap              1.008718247236 eV    ::
         ::.................................................::
         :: SCC energy              -252.994474201554 Eh    ::
         :: -> isotropic ES            0.137252500100 Eh    ::
         :: -> anisotropic ES          0.014688408191 Eh    ::
         :: -> anisotropic XC          0.148864036056 Eh    ::
         :: -> dispersion             -0.231855167516 Eh    ::
         :: -> Gsolv                  -0.110128041451 Eh    ::
         ::    -> Gelec               -0.020270767950 Eh    ::
         ::    -> Gsasa               -0.094670629321 Eh    ::
         ::    -> Ghb                  0.000000000000 Eh    ::
         ::    -> Gshift               0.004813355820 Eh    ::
         :: repulsion energy           4.160482418928 Eh    ::
         :: add. restraining           0.000000000000 Eh    ::
         :: total charge              -0.000000000301 e     ::
         :::::::::::::::::::::::::::::::::::::::::::::::::::::

           -------------------------------------------------
          |                Property Printout                |
           -------------------------------------------------

    * Orbital Energies and Occupations

         #    Occupation            Energy/Eh            Energy/eV
      -------------------------------------------------------------
         1        2.0000           -0.8400997             -22.8603
       ...           ...                  ...                  ...
       217        2.0000           -0.4118191             -11.2062
       218        2.0000           -0.4114377             -11.1958
       219        2.0000           -0.4098137             -11.1516
       220        2.0000           -0.4096159             -11.1462
       221        2.0000           -0.4092897             -11.1373
       222        2.0000           -0.4010520             -10.9132
       223        2.0000           -0.4000585             -10.8861
       224        2.0000           -0.3947931             -10.7429
       225        2.0000           -0.3943115             -10.7298
       226        2.0000           -0.3923349             -10.6760
       227        2.0000           -0.3902449             -10.6191
       228        2.0000           -0.3895418             -10.6000
       229        2.0000           -0.3751969             -10.2096 (HOMO)
       230                         -0.3381272              -9.2009 (LUMO)
       231                         -0.3351765              -9.1206
       232                         -0.3260953              -8.8735
       233                         -0.3237956              -8.8109
       234                         -0.2958581              -8.0507
       235                         -0.2802861              -7.6270
       236                         -0.2656929              -7.2299
       237                         -0.2580762              -7.0226
       238                         -0.2510286              -6.8308
       239                         -0.2496565              -6.7935
       240                         -0.2483440              -6.7578
       ...                                ...                  ...
       462                          1.1533451              31.3841
      -------------------------------------------------------------
                  HL-Gap            0.0370697 Eh            1.0087 eV
             Fermi-level           -0.3566828 Eh           -9.7058 eV

     #   Z          covCN         q      C6AA      α(0)
     1   6 C        2.918    -0.011    28.296     8.723
     2   6 C        3.008    -0.037    28.911     8.820
     3   6 C        3.018     0.037    27.140     8.546
     4   6 C        3.036     0.013    27.700     8.633
     5   6 C        3.039    -0.033    28.772     8.798
     6   6 C        2.870     0.239    23.013     7.864
     7   8 O        0.970    -0.382    21.263     6.185
     8   6 C        2.947     0.012    27.756     8.641
     9   6 C        1.947     0.133    27.836     8.520
    10   7 N        0.911    -0.264    26.848     7.494
    11   6 C        1.948     0.134    27.811     8.516
    12   7 N        0.911    -0.260    26.752     7.481
    13   6 C        2.912    -0.031    28.773     8.796
    14   6 C        2.923    -0.018    28.456     8.748
    15   6 C        2.917    -0.042    29.034     8.836
    16   6 C        2.776     0.190    23.932     8.013
    17   6 C        2.958    -0.010    28.264     8.720
    18   6 C        3.001    -0.036    28.889     8.817
    19   6 C        3.020     0.038    27.127     8.543
    20   6 C        3.031     0.013    27.697     8.632
    21   6 C        3.039    -0.033    28.789     8.801
    22   6 C        2.863     0.241    22.974     7.857
    23   6 C        2.913    -0.031    28.785     8.798
    24   6 C        2.923    -0.018    28.460     8.749
    25   6 C        2.917    -0.042    29.039     8.837
    26   6 C        2.777     0.190    23.938     8.013
    27   8 O        0.856    -0.405    21.779     6.257
    28   6 C        2.947     0.012    27.753     8.640
    29   6 C        1.951     0.134    27.804     8.515
    30   6 C        1.948     0.132    27.862     8.524
    31   7 N        0.911    -0.261    26.766     7.483
    32   7 N        0.911    -0.260    26.747     7.480
    33   6 C        2.992     0.027    27.380     8.583
    34  16 S        2.331     0.045   139.212    19.858
    35   6 C        3.129     0.006    27.675     8.613
    36   6 C        3.167     0.022    27.168     8.517
    37   6 C        3.060    -0.045    29.065     8.841
    38   6 C        3.150     0.007    27.594     8.592
    39   6 C        3.152     0.020    27.270     8.541
    40  16 S        2.178    -0.040   142.713    20.106
    41  16 S        2.196    -0.010   141.468    20.018
    42   6 C        3.086     0.018    27.507     8.597
    43   6 C        3.206    -0.011    27.675     8.568
    44   6 C        3.044     0.004    27.885     8.661
    45   6 C        3.081     0.006    27.800     8.644
    46   6 C        3.950     0.018    20.212     6.388
    47   6 C        2.908    -0.036    28.889     8.813
    48   6 C        3.081     0.006    27.799     8.644
    49   6 C        3.044     0.004    27.899     8.663
    50   6 C        2.908    -0.036    28.891     8.814
    51   6 C        3.951     0.018    20.211     6.388
    52   6 C        3.208    -0.011    27.653     8.563
    53   6 C        3.086     0.019    27.493     8.595
    54   6 C        3.152     0.019    27.308     8.547
    55   6 C        3.147     0.005    27.647     8.602
    56  16 S        2.193    -0.015   141.662    20.032
    57  16 S        2.185    -0.024   142.036    20.059
    58   6 C        3.189     0.020    27.074     8.488
    59   6 C        3.130     0.022    27.322     8.558
    60   6 C        3.047    -0.043    29.013     8.834
    61   6 C        2.994     0.031    27.302     8.571
    62  16 S        2.290    -0.008   141.366    20.011
    63   6 C        2.978     0.009    27.821     8.652
    64   6 C        2.984     0.010    27.786     8.647
    65   6 C        2.985     0.010    27.786     8.647
    66   6 C        2.978     0.008    27.829     8.653
    67   6 C        2.923    -0.037    28.909     8.817
    68   6 C        2.925    -0.039    28.967     8.826
    69   6 C        2.971     0.013    27.723     8.637
    70   6 C        2.926    -0.040    28.997     8.831
    71   6 C        2.921    -0.040    28.994     8.830
    72   6 C        2.922    -0.038    28.955     8.824
    73   6 C        2.925    -0.040    28.984     8.829
    74   6 C        2.971     0.013    27.721     8.636
    75   6 C        2.925    -0.039    28.981     8.828
    76   6 C        2.923    -0.037    28.918     8.819
    77   6 C        2.923    -0.037    28.913     8.818
    78   6 C        2.925    -0.039    28.960     8.825
    79   6 C        2.971     0.013    27.720     8.636
    80   6 C        2.925    -0.040    29.001     8.831
    81   6 C        2.921    -0.040    28.994     8.830
    82   6 C        2.923    -0.037    28.915     8.818
    83   6 C        2.925    -0.039    28.977     8.828
    84   6 C        2.971     0.013    27.714     8.635
    85   6 C        2.925    -0.039    28.980     8.828
    86   6 C        2.922    -0.038    28.956     8.824
    87   9 F        0.787    -0.213    11.366     3.982
    88   9 F        0.787    -0.213    11.373     3.984
    89   6 C        3.806    -0.060    21.655     6.625
    90   6 C        3.754    -0.100    22.471     6.759
    91   6 C        3.806    -0.060    21.653     6.624
    92   6 C        3.754    -0.100    22.474     6.760
    93   6 C        3.806    -0.060    21.655     6.625
    94   6 C        3.754    -0.100    22.471     6.760
    95   6 C        3.806    -0.060    21.655     6.625
    96   6 C        3.754    -0.100    22.473     6.760
    97   1 H        0.925     0.079     1.992     2.207
    98   1 H        0.926     0.073     2.058     2.243
    99   1 H        0.926     0.072     2.059     2.244
   100   1 H        0.926     0.080     1.983     2.202
   101   1 H        0.925     0.077     2.005     2.215
   102   1 H        0.926     0.072     2.063     2.246
   103   1 H        0.926     0.072     2.064     2.247
   104   1 H        0.926     0.079     1.989     2.206
   105   1 H        0.926     0.071     2.073     2.252
   106   1 H        0.926     0.053     2.283     2.363
   107   1 H        0.926     0.052     2.292     2.367
   108   1 H        0.926     0.108     1.713     2.046
   109   1 H        0.926     0.039     2.456     2.451
   110   1 H        0.926     0.038     2.471     2.458
   111   1 H        0.926     0.036     2.504     2.475
   112   1 H        0.926     0.029     2.600     2.522
   113   1 H        0.926     0.026     2.642     2.542
   114   1 H        0.926     0.036     2.509     2.477
   115   1 H        0.926     0.037     2.483     2.464
   116   1 H        0.926     0.035     2.521     2.483
   117   1 H        0.926     0.039     2.461     2.453
   118   1 H        0.926     0.039     2.464     2.455
   119   1 H        0.926     0.036     2.503     2.474
   120   1 H        0.926     0.029     2.599     2.521
   121   1 H        0.926     0.035     2.521     2.483
   122   1 H        0.926     0.038     2.480     2.463
   123   1 H        0.926     0.036     2.506     2.476
   124   1 H        0.926     0.026     2.646     2.544
   125   1 H        0.924     0.041     2.442     2.444
   126   1 H        0.924     0.040     2.449     2.447
   127   1 H        0.925     0.037     2.487     2.466
   128   1 H        0.925     0.036     2.496     2.471
   129   1 H        0.925     0.040     2.455     2.450
   130   1 H        0.924     0.039     2.460     2.453
   131   1 H        0.924     0.040     2.445     2.445
   132   1 H        0.925     0.039     2.458     2.451
   133   1 H        0.925     0.038     2.478     2.462
   134   1 H        0.925     0.037     2.487     2.466
   135   1 H        0.924     0.040     2.453     2.450
   136   1 H        0.924     0.041     2.435     2.440
   137   1 H        0.925     0.036     2.500     2.473
   138   1 H        0.925     0.038     2.482     2.463
   139   1 H        0.925     0.040     2.455     2.450
   140   1 H        0.924     0.040     2.452     2.449
   141   1 H        0.924     0.041     2.438     2.442
   142   1 H        0.925     0.039     2.456     2.451
   143   1 H        0.925     0.038     2.479     2.462
   144   1 H        0.925     0.036     2.500     2.473

 Mol. C6AA /au·bohr⁶  :     369825.809927
 Mol. C8AA /au·bohr⁸  :   10337387.736987
 Mol. α(0) /au        :        975.527875


Wiberg/Mayer (AO) data.
largest (>0.10) Wiberg bond orders for each atom

 ---------------------------------------------------------------------------
     #   Z sym  total        # sym  WBO       # sym  WBO       # sym  WBO
 ---------------------------------------------------------------------------
     1   6 C    3.943 --     2 C    1.478    33 C    1.315    97 H    0.937
     2   6 C    3.952 --     1 C    1.478     3 C    1.151     6 C    1.067
     3   6 C    3.969 --     8 C    1.479     2 C    1.151     4 C    1.077
     4   6 C    3.980 --    13 C    1.415     5 C    1.291     3 C    1.077
     5   6 C    3.974 --    16 C    1.376     4 C    1.291     6 C    1.025
     6   6 C    3.914 --     7 O    1.698     2 C    1.067     5 C    1.025
     7   8 O    2.107 --     6 C    1.698    34 S    0.132
     8   6 C    3.944 --     3 C    1.479     9 C    1.099    11 C    1.098
     9   6 C    3.943 --    10 N    2.746     8 C    1.099
    10   7 N    2.959 --     9 C    2.746
    11   6 C    3.942 --    12 N    2.756     8 C    1.098
    12   7 N    2.961 --    11 C    2.756
    13   6 C    3.974 --     4 C    1.415    14 C    1.414    98 H    0.958
    14   6 C    3.977 --    15 C    1.450    13 C    1.414    99 H    0.967
    15   6 C    3.968 --    14 C    1.450    16 C    1.368   100 H    0.964
    16   6 C    3.879 --     5 C    1.376    15 C    1.368    87 F    0.974
    17   6 C    3.942 --    18 C    1.504    61 C    1.288   101 H    0.940
    18   6 C    3.951 --    17 C    1.504    19 C    1.144    22 C    1.043
    19   6 C    3.970 --    28 C    1.485    18 C    1.144    20 C    1.079
    20   6 C    3.981 --    23 C    1.411    21 C    1.293    19 C    1.079
    21   6 C    3.976 --    26 C    1.375    20 C    1.293    22 C    1.022
    22   6 C    3.917 --    27 O    1.736    18 C    1.043    21 C    1.022
    23   6 C    3.975 --    24 C    1.418    20 C    1.411   102 H    0.959
    24   6 C    3.978 --    25 C    1.447    23 C    1.418   103 H    0.967
    25   6 C    3.968 --    24 C    1.447    26 C    1.371   104 H    0.964
    26   6 C    3.881 --    21 C    1.375    25 C    1.371    88 F    0.974
    27   8 O    2.038 --    22 C    1.736
    28   6 C    3.946 --    19 C    1.485    30 C    1.097    29 C    1.096
    29   6 C    3.942 --    32 N    2.757    28 C    1.096
    30   6 C    3.943 --    31 N    2.748    28 C    1.097
    31   7 N    2.959 --    30 C    2.748
    32   7 N    2.963 --    29 C    2.757
    33   6 C    3.934 --    37 C    1.352     1 C    1.315    34 S    1.093
    34  16 S    2.745 --    35 C    1.172    33 C    1.093     7 O    0.132
    35   6 C    3.945 --    38 C    1.290    36 C    1.264    34 S    1.172
    36   6 C    3.930 --    37 C    1.409    35 C    1.264    40 S    1.078
    37   6 C    3.959 --    36 C    1.409    33 C    1.352   105 H    0.960
    38   6 C    3.928 --    39 C    1.311    35 C    1.290    41 S    1.111
    39   6 C    3.920 --    43 C    1.311    38 C    1.311    40 S    1.096
    40  16 S    2.505 --    39 C    1.096    36 C    1.078
    41  16 S    2.567 --    42 C    1.142    38 C    1.111
    42   6 C    3.904 --    43 C    1.409    44 C    1.149    41 S    1.142
    43   6 C    3.958 --    42 C    1.409    39 C    1.311    46 C    0.973
    44   6 C    3.957 --    47 C    1.346    45 C    1.280    42 C    1.149
    45   6 C    3.965 --    50 C    1.468    44 C    1.280    46 C    0.972
    46   6 C    3.986 --    43 C    0.973    45 C    0.972    63 C    0.956
                            64 C    0.945
    47   6 C    3.973 --    48 C    1.469    44 C    1.346   106 H    0.963
    48   6 C    3.966 --    47 C    1.469    49 C    1.279    51 C    0.973
    49   6 C    3.956 --    50 C    1.346    48 C    1.279    53 C    1.149
    50   6 C    3.973 --    45 C    1.468    49 C    1.346   107 H    0.963
    51   6 C    3.986 --    52 C    0.973    48 C    0.973    66 C    0.958
                            65 C    0.943
    52   6 C    3.959 --    53 C    1.414    54 C    1.306    51 C    0.973
    53   6 C    3.904 --    52 C    1.414    49 C    1.149    56 S    1.137
    54   6 C    3.922 --    55 C    1.308    52 C    1.306    57 S    1.105
    55   6 C    3.928 --    54 C    1.308    59 C    1.293    56 S    1.110
    56  16 S    2.561 --    53 C    1.137    55 C    1.110
    57  16 S    2.522 --    54 C    1.105    58 C    1.085
    58   6 C    3.931 --    60 C    1.379    59 C    1.277    57 S    1.085
    59   6 C    3.936 --    55 C    1.293    58 C    1.277    62 S    1.163
    60   6 C    3.950 --    61 C    1.397    58 C    1.379   108 H    0.936
    61   6 C    3.926 --    60 C    1.397    17 C    1.288    62 S    1.066
    62  16 S    2.569 --    59 C    1.163    61 C    1.066
    63   6 C    3.983 --    72 C    1.413    76 C    1.403    46 C    0.956
                            74 C    0.105
    64   6 C    3.981 --    71 C    1.415    67 C    1.401    46 C    0.945
                            69 C    0.105
    65   6 C    3.981 --    81 C    1.416    77 C    1.400    51 C    0.943
                            79 C    0.105
    66   6 C    3.983 --    86 C    1.414    82 C    1.403    51 C    0.958
                            84 C    0.105
    67   6 C    3.989 --    68 C    1.454    64 C    1.401   109 H    0.963
                            70 C    0.109
    68   6 C    3.990 --    67 C    1.454    69 C    1.404   110 H    0.968
                            71 C    0.107
    69   6 C    3.985 --    70 C    1.414    68 C    1.404    89 C    1.013
                            64 C    0.105
    70   6 C    3.991 --    71 C    1.443    69 C    1.414   111 H    0.969
                            67 C    0.109
    71   6 C    3.991 --    70 C    1.443    64 C    1.415   112 H    0.966
                            68 C    0.107
    72   6 C    3.991 --    73 C    1.445    63 C    1.413   113 H    0.967
                            75 C    0.108
    73   6 C    3.991 --    72 C    1.445    74 C    1.412   114 H    0.969
                            76 C    0.109
    74   6 C    3.987 --    73 C    1.412    75 C    1.406    91 C    1.013
                            63 C    0.105
    75   6 C    3.990 --    76 C    1.452    74 C    1.406   115 H    0.968
                            72 C    0.108
    76   6 C    3.990 --    75 C    1.452    63 C    1.403   116 H    0.967
                            73 C    0.109
    77   6 C    3.989 --    78 C    1.455    65 C    1.400   117 H    0.964
                            80 C    0.109
    78   6 C    3.990 --    77 C    1.455    79 C    1.403   118 H    0.968
                            81 C    0.107
    79   6 C    3.985 --    80 C    1.415    78 C    1.403    93 C    1.013
                            65 C    0.105
    80   6 C    3.991 --    81 C    1.441    79 C    1.415   119 H    0.968
                            77 C    0.109
    81   6 C    3.991 --    80 C    1.441    65 C    1.416   120 H    0.966
                            78 C    0.107
    82   6 C    3.990 --    83 C    1.452    66 C    1.403   121 H    0.967
                            85 C    0.109
    83   6 C    3.990 --    82 C    1.452    84 C    1.406   122 H    0.968
                            86 C    0.108
    84   6 C    3.987 --    85 C    1.413    83 C    1.406    95 C    1.013
                            66 C    0.105
    85   6 C    3.991 --    86 C    1.445    84 C    1.413   123 H    0.969
                            82 C    0.109
    86   6 C    3.991 --    85 C    1.445    66 C    1.414   124 H    0.967
                            83 C    0.108
    87   9 F    1.115 --    16 C    0.974
    88   9 F    1.115 --    26 C    0.974
    89   6 C    3.997 --    69 C    1.013    90 C    1.000   125 H    0.974
                           126 H    0.974
    90   6 C    3.995 --    89 C    1.000   128 H    0.988   127 H    0.988
                           129 H    0.986
    91   6 C    3.997 --    74 C    1.013    92 C    1.000   130 H    0.974
                           131 H    0.973
    92   6 C    3.995 --    91 C    1.000   134 H    0.988   133 H    0.988
                           132 H    0.986
    93   6 C    3.997 --    79 C    1.013    94 C    1.000   135 H    0.975
                           136 H    0.973
    94   6 C    3.995 --    93 C    1.000   137 H    0.988   138 H    0.988
                           139 H    0.986
    95   6 C    3.997 --    84 C    1.013    96 C    1.000   140 H    0.974
                           141 H    0.973
    96   6 C    3.995 --    95 C    1.000   144 H    0.988   143 H    0.988
                           142 H    0.986
    97   1 H    0.993 --     1 C    0.937
    98   1 H    0.994 --    13 C    0.958
    99   1 H    0.994 --    14 C    0.967
   100   1 H    0.993 --    15 C    0.964
   101   1 H    0.993 --    17 C    0.940
   102   1 H    0.994 --    23 C    0.959
   103   1 H    0.994 --    24 C    0.967
   104   1 H    0.993 --    25 C    0.964
   105   1 H    0.994 --    37 C    0.960
   106   1 H    0.996 --    47 C    0.963
   107   1 H    0.996 --    50 C    0.963
   108   1 H    0.988 --    60 C    0.936
   109   1 H    0.998 --    67 C    0.963
   110   1 H    0.998 --    68 C    0.968
   111   1 H    0.998 --    70 C    0.969
   112   1 H    0.999 --    71 C    0.966
   113   1 H    0.999 --    72 C    0.967
   114   1 H    0.998 --    73 C    0.969
   115   1 H    0.998 --    75 C    0.968
   116   1 H    0.998 --    76 C    0.967
   117   1 H    0.998 --    77 C    0.964
   118   1 H    0.998 --    78 C    0.968
   119   1 H    0.998 --    80 C    0.968
   120   1 H    0.999 --    81 C    0.966
   121   1 H    0.998 --    82 C    0.967
   122   1 H    0.998 --    83 C    0.968
   123   1 H    0.998 --    85 C    0.969
   124   1 H    0.999 --    86 C    0.967
   125   1 H    0.998 --    89 C    0.974
   126   1 H    0.998 --    89 C    0.974
   127   1 H    0.999 --    90 C    0.988
   128   1 H    0.999 --    90 C    0.988
   129   1 H    0.998 --    90 C    0.986
   130   1 H    0.998 --    91 C    0.974
   131   1 H    0.998 --    91 C    0.973
   132   1 H    0.998 --    92 C    0.986
   133   1 H    0.999 --    92 C    0.988
   134   1 H    0.999 --    92 C    0.988
   135   1 H    0.998 --    93 C    0.975
   136   1 H    0.998 --    93 C    0.973
   137   1 H    0.999 --    94 C    0.988
   138   1 H    0.999 --    94 C    0.988
   139   1 H    0.998 --    94 C    0.986
   140   1 H    0.998 --    95 C    0.974
   141   1 H    0.998 --    95 C    0.973
   142   1 H    0.998 --    96 C    0.986
   143   1 H    0.999 --    96 C    0.988
   144   1 H    0.999 --    96 C    0.988
 ---------------------------------------------------------------------------

Topologies differ in bond orders
Writing corrected topology to xtbtopo.mol

molecular dipole:
                 x           y           z       tot (Debye)
 q only:       -0.164      -0.830      -0.348
   full:       -0.457      -1.017      -1.147       4.066
molecular quadrupole (traceless):
                xx          xy          yy          xz          yz          zz
 q only:      -77.776      56.777      32.988      22.241     -37.920      44.788
  q+dip:      -82.295      56.003      36.490      26.820     -48.532      45.805
   full:      -81.932      60.246      41.860      22.640     -53.775      40.073


           -------------------------------------------------
          | TOTAL ENERGY             -248.832591698248 Eh   |
          | GRADIENT NORM               0.021476628495 Eh/α |
          | HOMO-LUMO GAP               1.008718247236 eV   |
           -------------------------------------------------

------------------------------------------------------------------------
 * finished run on 2021/12/28 at 11:51:13.929     
------------------------------------------------------------------------
 total:
 * wall-time:     0 d,  0 h,  0 min,  1.033 sec
 *  cpu-time:     0 d,  0 h,  0 min,  1.033 sec
 * ratio c/w:     1.000 speedup
 SCF:
 * wall-time:     0 d,  0 h,  0 min,  0.943 sec
 *  cpu-time:     0 d,  0 h,  0 min,  0.943 sec
 * ratio c/w:     1.000 speedup

