      -----------------------------------------------------------      
     |                   =====================                   |     
     |                           x T B                           |     
     |                   =====================                   |     
     |                         S. Grimme                         |     
     |          Mulliken Center for Theoretical Chemistry        |     
     |                    University of Bonn                     |     
      -----------------------------------------------------------      

   * xtb version 6.4.1 (unknown) compiled by 'oda6@login1.crc.pitt.edu' on 2021-06-25

   xtb is free software: you can redistribute it and/or modify it under
   the terms of the GNU Lesser General Public License as published by
   the Free Software Foundation, either version 3 of the License, or
   (at your option) any later version.
   
   xtb is distributed in the hope that it will be useful,
   but WITHOUT ANY WARRANTY; without even the implied warranty of
   MERCHANTABILITY or FITNESS FOR A PARTICULAR PURPOSE.  See the
   GNU Lesser General Public License for more details.
   
   Cite this work as:
   * C. Bannwarth, E. Caldeweyher, S. Ehlert, A. Hansen, P. Pracht,
     J. Seibert, S. Spicher, S. Grimme, WIREs Comput. Mol. Sci., 2020, 11,
     e01493. DOI: 10.1002/wcms.1493
   
   for GFN2-xTB:
   * C. Bannwarth, S. Ehlert and S. Grimme., J. Chem. Theory Comput., 2019,
     15, 1652-1671. DOI: 10.1021/acs.jctc.8b01176
   for GFN1-xTB:
   * S. Grimme, C. Bannwarth, P. Shushkov, J. Chem. Theory Comput., 2017,
     13, 1989-2009. DOI: 10.1021/acs.jctc.7b00118
   for GFN0-xTB:
   * P. Pracht, E. Caldeweyher, S. Ehlert, S. Grimme, ChemRxiv, 2019, preprint.
     DOI: 10.26434/chemrxiv.8326202.v1
   for GFN-FF:
   * S. Spicher and S. Grimme, Angew. Chem. Int. Ed., 2020, 59, 15665-15673.
     DOI: 10.1002/anie.202004239
   
   for DFT-D4:
   * E. Caldeweyher, C. Bannwarth and S. Grimme, J. Chem. Phys., 2017,
     147, 034112. DOI: 10.1063/1.4993215
   * E. Caldeweyher, S. Ehlert, A. Hansen, H. Neugebauer, S. Spicher,
     C. Bannwarth and S. Grimme, J. Chem. Phys., 2019, 150, 154122.
     DOI: 10.1063/1.5090222
   * E. Caldeweyher, J.-M. Mewes, S. Ehlert and S. Grimme, Phys. Chem. Chem. Phys.
     2020, 22, 8499-8512. DOI: 10.1039/D0CP00502A
   
   for sTDA-xTB:
   * S. Grimme and C. Bannwarth, J. Chem. Phys., 2016, 145, 054103.
     DOI: 10.1063/1.4959605
   
   in the mass-spec context:
   * V. Asgeirsson, C. Bauer and S. Grimme, Chem. Sci., 2017, 8, 4879.
     DOI: 10.1039/c7sc00601b
   * J. Koopman and S. Grimme, ACS Omega 2019, 4, 12, 15120-15133.
     DOI: 10.1021/acsomega.9b02011
   
   for metadynamics refer to:
   * S. Grimme, J. Chem. Theory Comput., 2019, 155, 2847-2862
     DOI: 10.1021/acs.jctc.9b00143
   
   for SPH calculations refer to:
   * S. Spicher and S. Grimme, J. Chem. Theory Comput., 2021, 17, 1701-1714
     DOI: 10.1021/acs.jctc.0c01306
   
   with help from (in alphabetical order)
   P. Atkinson, C. Bannwarth, F. Bohle, G. Brandenburg, E. Caldeweyher
   M. Checinski, S. Dohm, S. Ehlert, S. Ehrlich, I. Gerasimov, J. Koopman
   C. Lavigne, S. Lehtola, F. März, M. Müller, F. Musil, H. Neugebauer
   J. Pisarek, C. Plett, P. Pracht, J. Seibert, P. Shushkov, S. Spicher
   M. Stahn, M. Steiner, T. Strunk, J. Stückrath, T. Rose, and J. Unsleber
   
 * started run on 2021/12/28 at 11:54:37.813     

           -------------------------------------------------
          |                Calculation Setup                |
           -------------------------------------------------

          program call               : /ihome/ghutchison/oda6/xtb/xtb-641/bin//xtb Qx3b.mol --sp --alpb hexane
          hostname                   : smp-n39
          coordinate file            : Qx3b.mol
          omp threads                :                     1
          number of atoms            :                   158
          number of electrons        :                   474
          charge                     :                     0
          spin                       :                   0.0
          first test random number   :      0.08893913382656

   ID    Z sym.   atoms
    1    6 C      1-11, 13-17, 19-37, 39, 41, 43, 45, 47, 49-52, 54, 55,
                  57-68, 70, 71, 73-94
    2   16 S      12, 18, 40, 44
    3    7 N      38, 42, 53, 56, 69, 72, 95-98
    4    8 O      46, 48
    5    1 H      99-158

           -------------------------------------------------
          |                 G F N 2 - x T B                 |
           -------------------------------------------------

        Reference                      10.1021/acs.jctc.8b01176
      * Hamiltonian:
        H0-scaling (s, p, d)           1.850000    2.230000    2.230000
        zeta-weighting                 0.500000
      * Dispersion:
        s8                             2.700000
        a1                             0.520000
        a2                             5.000000
        s9                             5.000000
      * Repulsion:
        kExp                           1.500000    1.000000
        rExp                           1.000000
      * Coulomb:
        alpha                          2.000000
        third order                    shell-resolved
        anisotropic                    true
        a3                             3.000000
        a5                             4.000000
        cn-shift                       1.200000
        cn-exp                         4.000000
        max-rad                        5.000000

      * Solvation model:               ALPB
        Solvent                        hexane
        Parameter file                 internal GFN2-xTB/ALPB
        Dielectric constant                1.8800E+00
        Reference state                gsolv [1 M gas/solution]
        Free energy shift                  4.8134E-03 Eh       3.0204E+00 kcal/mol
        Temperature                        2.9815E+02 K
        Density                            6.6000E-01 kg/L
        Solvent mass                       8.6180E+01 g/mol
        Interaction kernel             P16
        Born radius scaling (c1)           1.1040E+00
        Born radii integrator          GBOBC
        Born offset                        0.0000E+00 a0       0.0000E+00 AA
        H-bond correction              false
        Ion screening                  false
        Surface tension                    1.0000E-05 Eh       1.5569E+01 dyn/cm
        Grid points                               230 per atom

          ...................................................
          :                      SETUP                      :
          :.................................................:
          :  # basis functions                 476          :
          :  # atomic orbitals                 472          :
          :  # shells                          260          :
          :  # electrons                       474          :
          :  max. iterations                   250          :
          :  Hamiltonian                  GFN2-xTB          :
          :  restarted?                      false          :
          :  GBSA solvation                   true          :
          :  PC potential                    false          :
          :  electronic temp.          300.0000000     K    :
          :  accuracy                    1.0000000          :
          :  -> integral cutoff          0.2500000E+02      :
          :  -> integral neglect         0.1000000E-07      :
          :  -> SCF convergence          0.1000000E-05 Eh   :
          :  -> wf. convergence          0.1000000E-03 e    :
          :  Broyden damping             0.4000000          :
          ...................................................

 iter      E             dE          RMSdq      gap      omega  full diag
   1   -260.6867208 -0.260687E+03  0.447E+00    1.17       0.0  T
   2   -260.8912555 -0.204535E+00  0.266E+00    1.02       1.0  T
   3   -260.7922114  0.990441E-01  0.131E+00    1.05       1.0  T
   4   -260.9469073 -0.154696E+00  0.414E-01    0.94       1.0  T
   5   -260.9594664 -0.125591E-01  0.153E-01    0.96       1.0  T
   6   -260.9607639 -0.129745E-02  0.739E-02    0.97       1.0  T
   7   -260.9610362 -0.272354E-03  0.242E-02    0.97       1.0  T
   8   -260.9610482 -0.120130E-04  0.135E-02    0.97       1.0  T
   9   -260.9610585 -0.102753E-04  0.581E-03    0.97       1.4  T
  10   -260.9610601 -0.156626E-05  0.277E-03    0.97       2.9  T
  11   -260.9610603 -0.232506E-06  0.123E-03    0.97       6.5  T
  12   -260.9610603 -0.256152E-07  0.610E-04    0.97      13.0  T
  13   -260.9610603 -0.129291E-07  0.294E-04    0.97      27.1  T

   *** convergence criteria satisfied after 13 iterations ***

         #    Occupation            Energy/Eh            Energy/eV
      -------------------------------------------------------------
         1        2.0000           -0.7637201             -20.7819
       ...           ...                  ...                  ...
       231        2.0000           -0.3995819             -10.8732
       232        2.0000           -0.3972242             -10.8090
       233        2.0000           -0.3923457             -10.6763
       234        2.0000           -0.3810258             -10.3682
       235        2.0000           -0.3735362             -10.1644
       236        2.0000           -0.3676606             -10.0046
       237        2.0000           -0.3641593              -9.9093 (HOMO)
       238                         -0.3285038              -8.9390 (LUMO)
       239                         -0.3227059              -8.7813
       240                         -0.3094921              -8.4217
       241                         -0.2998262              -8.1587
       242                         -0.2846996              -7.7471
       ...                                ...                  ...
       472                          1.1660111              31.7288
      -------------------------------------------------------------
                  HL-Gap            0.0356555 Eh            0.9702 eV
             Fermi-level           -0.3463208 Eh           -9.4239 eV

 SCC (total)                   0 d,  0 h,  0 min,  1.054 sec
 SCC setup                      ...        0 min,  0.009 sec (  0.842%)
 Dispersion                     ...        0 min,  0.008 sec (  0.731%)
 classical contributions        ...        0 min,  0.001 sec (  0.085%)
 integral evaluation            ...        0 min,  0.084 sec (  7.997%)
 iterations                     ...        0 min,  0.601 sec ( 57.030%)
 molecular gradient             ...        0 min,  0.346 sec ( 32.870%)
 printout                       ...        0 min,  0.005 sec (  0.440%)

         :::::::::::::::::::::::::::::::::::::::::::::::::::::
         ::                     SUMMARY                     ::
         :::::::::::::::::::::::::::::::::::::::::::::::::::::
         :: total energy            -256.611012849254 Eh    ::
         :: total w/o Gsasa/hb      -256.523445120759 Eh    ::
         :: gradient norm              0.023869559610 Eh/a0 ::
         :: HOMO-LUMO gap              0.970235010097 eV    ::
         ::.................................................::
         :: SCC energy              -260.961060330639 Eh    ::
         :: -> isotropic ES            0.167538994537 Eh    ::
         :: -> anisotropic ES          0.019964234144 Eh    ::
         :: -> anisotropic XC          0.187840078542 Eh    ::
         :: -> dispersion             -0.253074025089 Eh    ::
         :: -> Gsolv                  -0.111134878200 Eh    ::
         ::    -> Gelec               -0.023567149706 Eh    ::
         ::    -> Gsasa               -0.092381084314 Eh    ::
         ::    -> Ghb                  0.000000000000 Eh    ::
         ::    -> Gshift               0.004813355820 Eh    ::
         :: repulsion energy           4.348323318069 Eh    ::
         :: add. restraining           0.000000000000 Eh    ::
         :: total charge               0.000000000324 e     ::
         :::::::::::::::::::::::::::::::::::::::::::::::::::::

           -------------------------------------------------
          |                Property Printout                |
           -------------------------------------------------

    * Orbital Energies and Occupations

         #    Occupation            Energy/Eh            Energy/eV
      -------------------------------------------------------------
         1        2.0000           -0.7637201             -20.7819
       ...           ...                  ...                  ...
       225        2.0000           -0.4157194             -11.3123
       226        2.0000           -0.4139868             -11.2652
       227        2.0000           -0.4116259             -11.2009
       228        2.0000           -0.4063240             -11.0566
       229        2.0000           -0.4044899             -11.0067
       230        2.0000           -0.4017858             -10.9331
       231        2.0000           -0.3995819             -10.8732
       232        2.0000           -0.3972242             -10.8090
       233        2.0000           -0.3923457             -10.6763
       234        2.0000           -0.3810258             -10.3682
       235        2.0000           -0.3735362             -10.1644
       236        2.0000           -0.3676606             -10.0046
       237        2.0000           -0.3641593              -9.9093 (HOMO)
       238                         -0.3285038              -8.9390 (LUMO)
       239                         -0.3227059              -8.7813
       240                         -0.3094921              -8.4217
       241                         -0.2998262              -8.1587
       242                         -0.2846996              -7.7471
       243                         -0.2791223              -7.5953
       244                         -0.2764099              -7.5215
       245                         -0.2749440              -7.4816
       246                         -0.2702331              -7.3534
       247                         -0.2588418              -7.0434
       248                         -0.2547420              -6.9319
       ...                                ...                  ...
       472                          1.1660111              31.7288
      -------------------------------------------------------------
                  HL-Gap            0.0356555 Eh            0.9702 eV
             Fermi-level           -0.3463208 Eh           -9.4239 eV

     #   Z          covCN         q      C6AA      α(0)
     1   6 C        3.084    -0.006    28.064     8.684
     2   6 C        3.040    -0.002    28.038     8.685
     3   6 C        2.908    -0.040    28.984     8.828
     4   6 C        3.081    -0.002    27.976     8.671
     5   6 C        3.042     0.002    27.931     8.668
     6   6 C        2.909    -0.041    29.027     8.834
     7   6 C        3.936     0.014    20.283     6.400
     8   6 C        3.213    -0.010    27.604     8.550
     9   6 C        3.085     0.022    27.430     8.586
    10   6 C        3.069    -0.046    29.077     8.842
    11   6 C        2.999     0.022    27.509     8.604
    12  16 S        2.269    -0.044   142.884    20.118
    13   6 C        3.938     0.014    20.279     6.399
    14   6 C        3.219    -0.013    27.618     8.546
    15   6 C        3.080     0.010    27.694     8.627
    16   6 C        3.071    -0.050    29.162     8.855
    17   6 C        3.003     0.019    27.565     8.612
    18  16 S        2.399    -0.021   141.906    20.049
    19   6 C        2.997     0.009    27.805     8.650
    20   6 C        3.000     0.005    27.897     8.664
    21   6 C        3.803    -0.051    21.489     6.600
    22   6 C        3.806    -0.050    21.462     6.595
    23   6 C        2.923    -0.036    28.901     8.816
    24   6 C        2.914    -0.031    28.778     8.797
    25   6 C        2.965     0.003    27.952     8.672
    26   6 C        2.965     0.079    26.232     8.401
    27   6 C        2.955     0.077    26.288     8.409
    28   6 C        2.920    -0.038    28.949     8.823
    29   6 C        2.917    -0.030    28.740     8.791
    30   6 C        2.975     0.009    27.821     8.652
    31   6 C        2.962     0.090    26.004     8.364
    32   6 C        2.962     0.082    26.174     8.391
    33   6 C        2.974    -0.015    28.383     8.739
    34   6 C        2.950    -0.008    28.216     8.712
    35   6 C        2.938    -0.017    28.430     8.745
    36   6 C        2.961     0.008    27.835     8.654
    37   6 C        2.896     0.295    22.013     7.693
    38   7 N        2.842    -0.059    22.379     7.026
    39   6 C        2.932     0.120    25.367     8.260
    40  16 S        2.237    -0.028   142.222    20.072
    41   6 C        2.890     0.278    22.312     7.744
    42   7 N        2.854    -0.058    22.351     7.022
    43   6 C        2.927     0.116    25.439     8.271
    44  16 S        2.288    -0.041   142.732    20.108
    45   6 C        3.745     0.005    20.571     6.470
    46   8 O        0.858    -0.451    22.717     6.390
    47   6 C        3.000    -0.027    28.652     8.781
    48   8 O        0.858    -0.452    22.754     6.395
    49   6 C        3.745     0.009    20.502     6.459
    50   6 C        2.998    -0.024    28.595     8.772
    51   6 C        3.752    -0.111    22.678     6.791
    52   6 C        3.752    -0.110    22.671     6.790
    53   7 N        1.854    -0.256    27.513     7.774
    54   6 C        2.945     0.091    25.971     8.358
    55   6 C        2.945     0.089    26.025     8.367
    56   7 N        1.852    -0.254    27.463     7.767
    57   6 C        2.982     0.006    27.872     8.660
    58   6 C        2.982     0.006    27.869     8.660
    59   6 C        2.925    -0.029    28.732     8.790
    60   6 C        2.919    -0.030    28.744     8.792
    61   6 C        2.920    -0.029    28.716     8.788
    62   6 C        2.919    -0.029    28.722     8.789
    63   6 C        2.923    -0.030    28.750     8.793
    64   6 C        2.926    -0.026    28.655     8.779
    65   6 C        2.918    -0.028    28.702     8.785
    66   6 C        2.920    -0.027    28.677     8.782
    67   6 C        2.919    -0.029    28.727     8.789
    68   6 C        2.923    -0.030    28.753     8.793
    69   7 N        1.860    -0.254    27.471     7.769
    70   6 C        2.945     0.095    25.896     8.346
    71   6 C        2.943     0.092    25.952     8.355
    72   7 N        1.992    -0.223    26.659     7.658
    73   6 C        2.985     0.005    27.909     8.666
    74   6 C        2.981     0.009    27.821     8.652
    75   6 C        2.925    -0.026    28.643     8.777
    76   6 C        2.919    -0.028    28.694     8.784
    77   6 C        2.920    -0.027    28.681     8.782
    78   6 C        2.919    -0.029    28.715     8.787
    79   6 C        2.923    -0.029    28.723     8.789
    80   6 C        2.925    -0.030    28.738     8.791
    81   6 C        2.918    -0.029    28.723     8.789
    82   6 C        2.920    -0.026    28.654     8.778
    83   6 C        2.919    -0.028    28.710     8.787
    84   6 C        2.922    -0.030    28.751     8.793
    85   6 C        3.751    -0.105    22.569     6.775
    86   6 C        3.751    -0.105    22.563     6.774
    87   6 C        3.805    -0.053    21.526     6.605
    88   6 C        3.807    -0.052    21.496     6.600
    89   6 C        3.751    -0.106    22.585     6.777
    90   6 C        3.751    -0.102    22.519     6.767
    91   6 C        1.923     0.128    27.968     8.541
    92   6 C        1.938     0.126    27.994     8.544
    93   6 C        1.924     0.129    27.940     8.536
    94   6 C        1.937     0.127    27.969     8.541
    95   7 N        0.911    -0.261    26.775     7.484
    96   7 N        0.911    -0.278    27.179     7.540
    97   7 N        0.911    -0.280    27.217     7.545
    98   7 N        0.911    -0.265    26.869     7.497
    99   1 H        0.926     0.043     2.405     2.425
   100   1 H        0.926     0.044     2.399     2.422
   101   1 H        0.926     0.078     1.999     2.211
   102   1 H        0.926     0.046     2.367     2.406
   103   1 H        0.924     0.043     2.415     2.430
   104   1 H        0.924     0.034     2.537     2.491
   105   1 H        0.924     0.040     2.448     2.447
   106   1 H        0.924     0.031     2.566     2.505
   107   1 H        0.926     0.061     2.189     2.314
   108   1 H        0.926     0.088     1.895     2.153
   109   1 H        0.926     0.055     2.263     2.352
   110   1 H        0.926     0.057     2.236     2.338
   111   1 H        0.925     0.095     1.832     2.117
   112   1 H        0.925     0.076     2.024     2.225
   113   1 H        0.924     0.086     1.915     2.164
   114   1 H        0.924     0.065     2.142     2.289
   115   1 H        0.924     0.063     2.162     2.299
   116   1 H        0.924     0.078     1.999     2.211
   117   1 H        0.925     0.054     2.271     2.357
   118   1 H        0.925     0.064     2.155     2.295
   119   1 H        0.925     0.048     2.347     2.396
   120   1 H        0.925     0.055     2.253     2.347
   121   1 H        0.925     0.048     2.339     2.391
   122   1 H        0.925     0.064     2.150     2.293
   123   1 H        0.926     0.050     2.324     2.384
   124   1 H        0.926     0.042     2.422     2.433
   125   1 H        0.926     0.040     2.447     2.446
   126   1 H        0.926     0.039     2.457     2.451
   127   1 H        0.926     0.033     2.545     2.495
   128   1 H        0.926     0.048     2.347     2.396
   129   1 H        0.926     0.044     2.397     2.421
   130   1 H        0.926     0.042     2.423     2.434
   131   1 H        0.926     0.040     2.452     2.449
   132   1 H        0.926     0.034     2.535     2.490
   133   1 H        0.926     0.053     2.283     2.363
   134   1 H        0.926     0.043     2.413     2.429
   135   1 H        0.926     0.042     2.416     2.431
   136   1 H        0.926     0.041     2.430     2.438
   137   1 H        0.926     0.034     2.529     2.487
   138   1 H        0.926     0.039     2.461     2.453
   139   1 H        0.926     0.039     2.461     2.453
   140   1 H        0.926     0.051     2.310     2.377
   141   1 H        0.926     0.047     2.362     2.403
   142   1 H        0.926     0.038     2.475     2.460
   143   1 H        0.925     0.050     2.315     2.379
   144   1 H        0.925     0.035     2.523     2.484
   145   1 H        0.925     0.036     2.504     2.475
   146   1 H        0.925     0.043     2.412     2.429
   147   1 H        0.925     0.042     2.421     2.433
   148   1 H        0.925     0.036     2.503     2.474
   149   1 H        0.924     0.040     2.447     2.446
   150   1 H        0.924     0.043     2.403     2.424
   151   1 H        0.924     0.041     2.432     2.439
   152   1 H        0.924     0.034     2.527     2.486
   153   1 H        0.925     0.040     2.452     2.449
   154   1 H        0.925     0.039     2.458     2.452
   155   1 H        0.925     0.041     2.434     2.440
   156   1 H        0.925     0.035     2.519     2.482
   157   1 H        0.925     0.038     2.470     2.458
   158   1 H        0.925     0.034     2.527     2.486

 Mol. C6AA /au·bohr⁶  :     388411.818275
 Mol. C8AA /au·bohr⁸  :   10311456.324427
 Mol. α(0) /au        :        992.181638


Wiberg/Mayer (AO) data.
largest (>0.10) Wiberg bond orders for each atom

 ---------------------------------------------------------------------------
     #   Z sym  total        # sym  WBO       # sym  WBO       # sym  WBO
 ---------------------------------------------------------------------------
     1   6 C    3.966 --     6 C    1.471     2 C    1.285     7 C    0.982
     2   6 C    3.956 --     3 C    1.342     1 C    1.285     9 C    1.151
     3   6 C    3.976 --     4 C    1.474     2 C    1.342    99 H    0.964
     4   6 C    3.967 --     3 C    1.474     5 C    1.283    13 C    0.983
     5   6 C    3.955 --     6 C    1.346     4 C    1.283    15 C    1.150
     6   6 C    3.977 --     1 C    1.471     5 C    1.346   100 H    0.964
     7   6 C    3.988 --     8 C    0.990     1 C    0.982    22 C    0.960
                            21 C    0.956
     8   6 C    3.954 --     9 C    1.391    10 C    1.359     7 C    0.990
     9   6 C    3.908 --     8 C    1.391    12 S    1.171     2 C    1.151
    10   6 C    3.948 --    11 C    1.442     8 C    1.359   101 H    0.944
    11   6 C    3.913 --    10 C    1.442    19 C    1.182    12 S    1.101
    12  16 S    2.580 --     9 C    1.171    11 C    1.101
    13   6 C    3.988 --    14 C    0.990     4 C    0.983    87 C    0.964
                            88 C    0.954
    14   6 C    3.958 --    15 C    1.390    16 C    1.365    13 C    0.990
    15   6 C    3.917 --    14 C    1.390    18 S    1.172     5 C    1.150
    16   6 C    3.964 --    17 C    1.432    14 C    1.365   102 H    0.958
    17   6 C    3.923 --    16 C    1.432    20 C    1.172    18 S    1.129
    18  16 S    2.701 --    15 C    1.172    17 C    1.129    72 N    0.101
    19   6 C    3.928 --    23 C    1.382    27 C    1.182    11 C    1.182
    20   6 C    3.971 --    28 C    1.398    32 C    1.190    17 C    1.172
    21   6 C    3.993 --    85 C    1.019   104 H    0.978   103 H    0.974
                             7 C    0.956
    22   6 C    3.994 --    86 C    1.019   106 H    0.978   105 H    0.973
                             7 C    0.960
    23   6 C    3.969 --    24 C    1.432    19 C    1.382   107 H    0.958
    24   6 C    3.953 --    23 C    1.432    25 C    1.370   108 H    0.949
    25   6 C    3.940 --    24 C    1.370    33 C    1.207    26 C    1.177
    26   6 C    3.968 --    53 N    1.320    27 C    1.233    25 C    1.177
    27   6 C    3.970 --    56 N    1.315    26 C    1.233    19 C    1.182
    28   6 C    3.968 --    29 C    1.401    20 C    1.398   109 H    0.964
    29   6 C    3.971 --    30 C    1.421    28 C    1.401   110 H    0.967
    30   6 C    3.948 --    29 C    1.421    31 C    1.193    35 C    1.127
    31   6 C    3.968 --    69 N    1.303    32 C    1.227    30 C    1.193
    32   6 C    3.969 --    72 N    1.315    31 C    1.227    20 C    1.190
    33   6 C    3.943 --    34 C    1.576    25 C    1.207   111 H    0.944
    34   6 C    3.884 --    33 C    1.576    41 C    1.078    44 S    1.044
    35   6 C    3.958 --    36 C    1.648    30 C    1.127   112 H    0.952
    36   6 C    3.931 --    35 C    1.648    40 S    1.049    37 C    1.034
    37   6 C    3.933 --    48 O    1.659    38 N    1.102    36 C    1.034
    38   7 N    3.594 --    39 C    1.205    37 C    1.102    49 C    0.960
                            48 O    0.125
    39   6 C    3.953 --    50 C    1.427    38 N    1.205    40 S    1.099
    40  16 S    2.488 --    39 C    1.099    36 C    1.049
    41   6 C    3.929 --    46 O    1.634    42 N    1.106    34 C    1.078
    42   7 N    3.595 --    43 C    1.203    41 C    1.106    45 C    0.961
                            46 O    0.127
    43   6 C    3.950 --    47 C    1.414    42 N    1.203    44 S    1.117
    44  16 S    2.496 --    43 C    1.117    34 C    1.044
    45   6 C    3.949 --    51 C    1.008   114 H    0.962    42 N    0.961
                           113 H    0.961
    46   8 O    1.988 --    41 C    1.634    42 N    0.127
    47   6 C    3.936 --    43 C    1.414    91 C    1.117    92 C    1.101
    48   8 O    2.001 --    37 C    1.659    38 N    0.125
    49   6 C    3.950 --    52 C    1.007   116 H    0.963    38 N    0.960
                           115 H    0.960
    50   6 C    3.948 --    39 C    1.427    93 C    1.114    94 C    1.100
    51   6 C    3.989 --    45 C    1.008   117 H    0.986   119 H    0.984
                           118 H    0.981
    52   6 C    3.989 --    49 C    1.007   120 H    0.986   121 H    0.984
                           122 H    0.981
    53   7 N    3.075 --    54 C    1.484    26 C    1.320
    54   6 C    3.958 --    53 N    1.484    55 C    1.195    57 C    1.051
    55   6 C    3.962 --    56 N    1.489    54 C    1.195    58 C    1.046
    56   7 N    3.077 --    55 C    1.489    27 C    1.315
    57   6 C    3.986 --    64 C    1.381    68 C    1.379    54 C    1.051
                            66 C    0.103
    58   6 C    3.987 --    59 C    1.385    63 C    1.380    55 C    1.046
                            61 C    0.104
    59   6 C    3.986 --    60 C    1.450    58 C    1.385   123 H    0.966
                            62 C    0.107
    60   6 C    3.991 --    59 C    1.450    61 C    1.435   124 H    0.969
                            63 C    0.108
    61   6 C    3.982 --    60 C    1.435    62 C    1.431   125 H    0.971
                            58 C    0.104
    62   6 C    3.991 --    63 C    1.455    61 C    1.431   126 H    0.970
                            59 C    0.107
    63   6 C    3.986 --    62 C    1.455    58 C    1.380   127 H    0.969
                            60 C    0.108
    64   6 C    3.985 --    65 C    1.453    57 C    1.381   128 H    0.968
                            67 C    0.107
    65   6 C    3.990 --    64 C    1.453    66 C    1.434   129 H    0.970
                            68 C    0.108
    66   6 C    3.981 --    65 C    1.434    67 C    1.431   130 H    0.971
                            57 C    0.103
    67   6 C    3.991 --    68 C    1.455    66 C    1.431   131 H    0.970
                            64 C    0.107
    68   6 C    3.986 --    67 C    1.455    57 C    1.379   132 H    0.968
                            65 C    0.108
    69   7 N    3.120 --    70 C    1.488    31 C    1.303
    70   6 C    3.966 --    69 N    1.488    71 C    1.195    73 C    1.044
    71   6 C    3.955 --    72 N    1.480    70 C    1.195    74 C    1.048
    72   7 N    3.164 --    71 C    1.480    32 C    1.315    18 S    0.101
    73   6 C    3.986 --    80 C    1.383    84 C    1.382    70 C    1.044
                            82 C    0.104
    74   6 C    3.985 --    75 C    1.382    79 C    1.380    71 C    1.048
                            77 C    0.103
    75   6 C    3.985 --    76 C    1.452    74 C    1.382   133 H    0.966
                            78 C    0.107
    76   6 C    3.991 --    75 C    1.452    77 C    1.434   134 H    0.970
                            79 C    0.108
    77   6 C    3.982 --    76 C    1.434    78 C    1.432   135 H    0.971
                            74 C    0.103
    78   6 C    3.991 --    79 C    1.454    77 C    1.432   136 H    0.970
                            75 C    0.107
    79   6 C    3.986 --    78 C    1.454    74 C    1.380   137 H    0.968
                            76 C    0.108
    80   6 C    3.988 --    81 C    1.454    73 C    1.383   138 H    0.969
                            83 C    0.107
    81   6 C    3.991 --    80 C    1.454    82 C    1.431   139 H    0.970
                            84 C    0.108
    82   6 C    3.982 --    83 C    1.433    81 C    1.431   140 H    0.970
                            73 C    0.104
    83   6 C    3.990 --    84 C    1.451    82 C    1.433   141 H    0.969
                            80 C    0.107
    84   6 C    3.986 --    83 C    1.451    73 C    1.382   142 H    0.968
                            81 C    0.108
    85   6 C    3.994 --    21 C    1.019   144 H    0.985   145 H    0.985
                           143 H    0.981
    86   6 C    3.994 --    22 C    1.019   148 H    0.985   146 H    0.984
                           147 H    0.983
    87   6 C    3.995 --    90 C    1.020   149 H    0.975   150 H    0.973
                            13 C    0.964
    88   6 C    3.993 --    89 C    1.019   152 H    0.978   151 H    0.974
                            13 C    0.954
    89   6 C    3.994 --    88 C    1.019   154 H    0.985   153 H    0.985
                           155 H    0.984
    90   6 C    3.996 --    87 C    1.020   157 H    0.987   156 H    0.987
                           158 H    0.986
    91   6 C    3.948 --    97 N    2.739    47 C    1.117
    92   6 C    3.947 --    98 N    2.762    47 C    1.101
    93   6 C    3.948 --    96 N    2.741    50 C    1.114
    94   6 C    3.947 --    95 N    2.765    50 C    1.100
    95   7 N    2.981 --    94 C    2.765
    96   7 N    2.974 --    93 C    2.741
    97   7 N    2.971 --    91 C    2.739
    98   7 N    2.977 --    92 C    2.762
    99   1 H    0.997 --     3 C    0.964
   100   1 H    0.997 --     6 C    0.964
   101   1 H    0.994 --    10 C    0.944
   102   1 H    0.997 --    16 C    0.958
   103   1 H    0.997 --    21 C    0.974
   104   1 H    0.999 --    21 C    0.978
   105   1 H    0.997 --    22 C    0.973
   106   1 H    0.999 --    22 C    0.978
   107   1 H    0.995 --    23 C    0.958
   108   1 H    0.991 --    24 C    0.949
   109   1 H    0.996 --    28 C    0.964
   110   1 H    0.995 --    29 C    0.967
   111   1 H    0.990 --    33 C    0.944
   112   1 H    0.991 --    35 C    0.952
   113   1 H    0.992 --    45 C    0.961
   114   1 H    0.995 --    45 C    0.962
   115   1 H    0.995 --    49 C    0.960
   116   1 H    0.994 --    49 C    0.963
   117   1 H    0.997 --    51 C    0.986
   118   1 H    0.995 --    51 C    0.981
   119   1 H    0.998 --    51 C    0.984
   120   1 H    0.997 --    52 C    0.986
   121   1 H    0.998 --    52 C    0.984
   122   1 H    0.995 --    52 C    0.981
   123   1 H    0.998 --    59 C    0.966
   124   1 H    0.998 --    60 C    0.969
   125   1 H    0.998 --    61 C    0.971
   126   1 H    0.998 --    62 C    0.970
   127   1 H    0.999 --    63 C    0.969
   128   1 H    0.998 --    64 C    0.968
   129   1 H    0.997 --    65 C    0.970
   130   1 H    0.998 --    66 C    0.971
   131   1 H    0.998 --    67 C    0.970
   132   1 H    0.999 --    68 C    0.968
   133   1 H    0.997 --    75 C    0.966
   134   1 H    0.997 --    76 C    0.970
   135   1 H    0.998 --    77 C    0.971
   136   1 H    0.997 --    78 C    0.970
   137   1 H    0.999 --    79 C    0.968
   138   1 H    0.998 --    80 C    0.969
   139   1 H    0.998 --    81 C    0.970
   140   1 H    0.997 --    82 C    0.970
   141   1 H    0.997 --    83 C    0.969
   142   1 H    0.999 --    84 C    0.968
   143   1 H    0.997 --    85 C    0.981
   144   1 H    0.998 --    85 C    0.985
   145   1 H    0.999 --    85 C    0.985
   146   1 H    0.998 --    86 C    0.984
   147   1 H    0.998 --    86 C    0.983
   148   1 H    0.998 --    86 C    0.985
   149   1 H    0.997 --    87 C    0.975
   150   1 H    0.997 --    87 C    0.973
   151   1 H    0.997 --    88 C    0.974
   152   1 H    0.999 --    88 C    0.978
   153   1 H    0.998 --    89 C    0.985
   154   1 H    0.998 --    89 C    0.985
   155   1 H    0.998 --    89 C    0.984
   156   1 H    0.999 --    90 C    0.987
   157   1 H    0.998 --    90 C    0.987
   158   1 H    0.999 --    90 C    0.986
 ---------------------------------------------------------------------------

Topologies differ in bond orders
Writing corrected topology to xtbtopo.mol

molecular dipole:
                 x           y           z       tot (Debye)
 q only:        1.116      -1.641      -2.263
   full:        0.928      -1.935      -2.273       7.947
molecular quadrupole (traceless):
                xx          xy          yy          xz          yz          zz
 q only:      -15.693     231.923    -108.249     -42.610      10.393     123.943
  q+dip:      -22.871     265.453    -112.699     -54.178      11.993     135.570
   full:      -28.043     268.621    -123.079     -46.871      14.690     151.121


           -------------------------------------------------
          | TOTAL ENERGY             -256.611012849254 Eh   |
          | GRADIENT NORM               0.023869559610 Eh/α |
          | HOMO-LUMO GAP               0.970235010097 eV   |
           -------------------------------------------------

------------------------------------------------------------------------
 * finished run on 2021/12/28 at 11:54:38.964     
------------------------------------------------------------------------
 total:
 * wall-time:     0 d,  0 h,  0 min,  1.151 sec
 *  cpu-time:     0 d,  0 h,  0 min,  1.151 sec
 * ratio c/w:     1.000 speedup
 SCF:
 * wall-time:     0 d,  0 h,  0 min,  1.056 sec
 *  cpu-time:     0 d,  0 h,  0 min,  1.056 sec
 * ratio c/w:     1.000 speedup

