      -----------------------------------------------------------      
     |                   =====================                   |     
     |                           x T B                           |     
     |                   =====================                   |     
     |                         S. Grimme                         |     
     |          Mulliken Center for Theoretical Chemistry        |     
     |                    University of Bonn                     |     
      -----------------------------------------------------------      

   * xtb version 6.4.1 (unknown) compiled by 'oda6@login1.crc.pitt.edu' on 2021-06-25

   xtb is free software: you can redistribute it and/or modify it under
   the terms of the GNU Lesser General Public License as published by
   the Free Software Foundation, either version 3 of the License, or
   (at your option) any later version.
   
   xtb is distributed in the hope that it will be useful,
   but WITHOUT ANY WARRANTY; without even the implied warranty of
   MERCHANTABILITY or FITNESS FOR A PARTICULAR PURPOSE.  See the
   GNU Lesser General Public License for more details.
   
   Cite this work as:
   * C. Bannwarth, E. Caldeweyher, S. Ehlert, A. Hansen, P. Pracht,
     J. Seibert, S. Spicher, S. Grimme, WIREs Comput. Mol. Sci., 2020, 11,
     e01493. DOI: 10.1002/wcms.1493
   
   for GFN2-xTB:
   * C. Bannwarth, S. Ehlert and S. Grimme., J. Chem. Theory Comput., 2019,
     15, 1652-1671. DOI: 10.1021/acs.jctc.8b01176
   for GFN1-xTB:
   * S. Grimme, C. Bannwarth, P. Shushkov, J. Chem. Theory Comput., 2017,
     13, 1989-2009. DOI: 10.1021/acs.jctc.7b00118
   for GFN0-xTB:
   * P. Pracht, E. Caldeweyher, S. Ehlert, S. Grimme, ChemRxiv, 2019, preprint.
     DOI: 10.26434/chemrxiv.8326202.v1
   for GFN-FF:
   * S. Spicher and S. Grimme, Angew. Chem. Int. Ed., 2020, 59, 15665-15673.
     DOI: 10.1002/anie.202004239
   
   for DFT-D4:
   * E. Caldeweyher, C. Bannwarth and S. Grimme, J. Chem. Phys., 2017,
     147, 034112. DOI: 10.1063/1.4993215
   * E. Caldeweyher, S. Ehlert, A. Hansen, H. Neugebauer, S. Spicher,
     C. Bannwarth and S. Grimme, J. Chem. Phys., 2019, 150, 154122.
     DOI: 10.1063/1.5090222
   * E. Caldeweyher, J.-M. Mewes, S. Ehlert and S. Grimme, Phys. Chem. Chem. Phys.
     2020, 22, 8499-8512. DOI: 10.1039/D0CP00502A
   
   for sTDA-xTB:
   * S. Grimme and C. Bannwarth, J. Chem. Phys., 2016, 145, 054103.
     DOI: 10.1063/1.4959605
   
   in the mass-spec context:
   * V. Asgeirsson, C. Bauer and S. Grimme, Chem. Sci., 2017, 8, 4879.
     DOI: 10.1039/c7sc00601b
   * J. Koopman and S. Grimme, ACS Omega 2019, 4, 12, 15120-15133.
     DOI: 10.1021/acsomega.9b02011
   
   for metadynamics refer to:
   * S. Grimme, J. Chem. Theory Comput., 2019, 155, 2847-2862
     DOI: 10.1021/acs.jctc.9b00143
   
   for SPH calculations refer to:
   * S. Spicher and S. Grimme, J. Chem. Theory Comput., 2021, 17, 1701-1714
     DOI: 10.1021/acs.jctc.0c01306
   
   with help from (in alphabetical order)
   P. Atkinson, C. Bannwarth, F. Bohle, G. Brandenburg, E. Caldeweyher
   M. Checinski, S. Dohm, S. Ehlert, S. Ehrlich, I. Gerasimov, J. Koopman
   C. Lavigne, S. Lehtola, F. März, M. Müller, F. Musil, H. Neugebauer
   J. Pisarek, C. Plett, P. Pracht, J. Seibert, P. Shushkov, S. Spicher
   M. Stahn, M. Steiner, T. Strunk, J. Stückrath, T. Rose, and J. Unsleber
   
 * started run on 2021/12/28 at 11:55:38.635     

           -------------------------------------------------
          |                Calculation Setup                |
           -------------------------------------------------

          program call               : /ihome/ghutchison/oda6/xtb/xtb-641/bin//xtb ZITI-N.mol --sp --alpb hexane
          hostname                   : smp-n39
          coordinate file            : ZITI-N.mol
          omp threads                :                     1
          number of atoms            :                   112
          number of electrons        :                   360
          charge                     :                     0
          spin                       :                   0.0
          first test random number   :      0.56017606221836

   ID    Z sym.   atoms
    1    6 C      1, 3-15, 17-19, 23, 24, 26-47, 49-52, 54-63, 65-67, 73, 74
    2   16 S      2, 53
    3    8 O      16, 64
    4    7 N      20, 21, 25, 48, 68, 69
    5    9 F      22, 70-72
    6    1 H      75-112

           -------------------------------------------------
          |                 G F N 2 - x T B                 |
           -------------------------------------------------

        Reference                      10.1021/acs.jctc.8b01176
      * Hamiltonian:
        H0-scaling (s, p, d)           1.850000    2.230000    2.230000
        zeta-weighting                 0.500000
      * Dispersion:
        s8                             2.700000
        a1                             0.520000
        a2                             5.000000
        s9                             5.000000
      * Repulsion:
        kExp                           1.500000    1.000000
        rExp                           1.000000
      * Coulomb:
        alpha                          2.000000
        third order                    shell-resolved
        anisotropic                    true
        a3                             3.000000
        a5                             4.000000
        cn-shift                       1.200000
        cn-exp                         4.000000
        max-rad                        5.000000

      * Solvation model:               ALPB
        Solvent                        hexane
        Parameter file                 internal GFN2-xTB/ALPB
        Dielectric constant                1.8800E+00
        Reference state                gsolv [1 M gas/solution]
        Free energy shift                  4.8134E-03 Eh       3.0204E+00 kcal/mol
        Temperature                        2.9815E+02 K
        Density                            6.6000E-01 kg/L
        Solvent mass                       8.6180E+01 g/mol
        Interaction kernel             P16
        Born radius scaling (c1)           1.1040E+00
        Born radii integrator          GBOBC
        Born offset                        0.0000E+00 a0       0.0000E+00 AA
        H-bond correction              false
        Ion screening                  false
        Surface tension                    1.0000E-05 Eh       1.5569E+01 dyn/cm
        Grid points                               230 per atom

          ...................................................
          :                      SETUP                      :
          :.................................................:
          :  # basis functions                 346          :
          :  # atomic orbitals                 344          :
          :  # shells                          188          :
          :  # electrons                       360          :
          :  max. iterations                   250          :
          :  Hamiltonian                  GFN2-xTB          :
          :  restarted?                      false          :
          :  GBSA solvation                   true          :
          :  PC potential                    false          :
          :  electronic temp.          300.0000000     K    :
          :  accuracy                    1.0000000          :
          :  -> integral cutoff          0.2500000E+02      :
          :  -> integral neglect         0.1000000E-07      :
          :  -> SCF convergence          0.1000000E-05 Eh   :
          :  -> wf. convergence          0.1000000E-03 e    :
          :  Broyden damping             0.4000000          :
          ...................................................

 iter      E             dE          RMSdq      gap      omega  full diag
   1   -201.8511807 -0.201851E+03  0.449E+00    1.16       0.0  T
   2   -202.0088225 -0.157642E+00  0.267E+00    1.01       1.0  T
   3   -201.9313759  0.774466E-01  0.146E+00    0.97       1.0  T
   4   -202.0557015 -0.124326E+00  0.455E-01    0.96       1.0  T
   5   -202.0694520 -0.137504E-01  0.128E-01    0.90       1.0  T
   6   -202.0699684 -0.516396E-03  0.726E-02    0.94       1.0  T
   7   -202.0701634 -0.195071E-03  0.304E-02    0.92       1.0  T
   8   -202.0702213 -0.578520E-04  0.108E-02    0.93       1.0  T
   9   -202.0702264 -0.507416E-05  0.429E-03    0.93       2.2  T
  10   -202.0702268 -0.475997E-06  0.221E-03    0.93       4.3  T
  11   -202.0702271 -0.256565E-06  0.820E-04    0.93      11.5  T
  12   -202.0702271 -0.161861E-07  0.431E-04    0.93      21.9  T

   *** convergence criteria satisfied after 12 iterations ***

         #    Occupation            Energy/Eh            Energy/eV
      -------------------------------------------------------------
         1        2.0000           -0.8507565             -23.1503
       ...           ...                  ...                  ...
       174        2.0000           -0.4147046             -11.2847
       175        2.0000           -0.4134942             -11.2517
       176        2.0000           -0.4062784             -11.0554
       177        2.0000           -0.3939778             -10.7207
       178        2.0000           -0.3835811             -10.4378
       179        2.0000           -0.3809834             -10.3671
       180        2.0000           -0.3723464             -10.1321 (HOMO)
       181                         -0.3381642              -9.2019 (LUMO)
       182                         -0.3358868              -9.1399
       183                         -0.3284203              -8.9368
       184                         -0.3248865              -8.8406
       185                         -0.2867569              -7.8031
       ...                                ...                  ...
       344                          1.1531622              31.3791
      -------------------------------------------------------------
                  HL-Gap            0.0341821 Eh            0.9301 eV
             Fermi-level           -0.3552966 Eh           -9.6681 eV

 SCC (total)                   0 d,  0 h,  0 min,  0.510 sec
 SCC setup                      ...        0 min,  0.005 sec (  1.053%)
 Dispersion                     ...        0 min,  0.005 sec (  1.071%)
 classical contributions        ...        0 min,  0.001 sec (  0.106%)
 integral evaluation            ...        0 min,  0.048 sec (  9.380%)
 iterations                     ...        0 min,  0.269 sec ( 52.673%)
 molecular gradient             ...        0 min,  0.180 sec ( 35.298%)
 printout                       ...        0 min,  0.002 sec (  0.408%)

         :::::::::::::::::::::::::::::::::::::::::::::::::::::
         ::                     SUMMARY                     ::
         :::::::::::::::::::::::::::::::::::::::::::::::::::::
         :: total energy            -198.951312297838 Eh    ::
         :: total w/o Gsasa/hb      -198.890292648991 Eh    ::
         :: gradient norm              0.022931153391 Eh/a0 ::
         :: HOMO-LUMO gap              0.930143276211 eV    ::
         ::.................................................::
         :: SCC energy              -202.070227098940 Eh    ::
         :: -> isotropic ES            0.161747066237 Eh    ::
         :: -> anisotropic ES          0.012805350789 Eh    ::
         :: -> anisotropic XC          0.106527057979 Eh    ::
         :: -> dispersion             -0.165978312457 Eh    ::
         :: -> Gsolv                  -0.084936680894 Eh    ::
         ::    -> Gelec               -0.023917032048 Eh    ::
         ::    -> Gsasa               -0.065833004667 Eh    ::
         ::    -> Ghb                  0.000000000000 Eh    ::
         ::    -> Gshift               0.004813355820 Eh    ::
         :: repulsion energy           3.119500309846 Eh    ::
         :: add. restraining           0.000000000000 Eh    ::
         :: total charge              -0.000000000001 e     ::
         :::::::::::::::::::::::::::::::::::::::::::::::::::::

           -------------------------------------------------
          |                Property Printout                |
           -------------------------------------------------

    * Orbital Energies and Occupations

         #    Occupation            Energy/Eh            Energy/eV
      -------------------------------------------------------------
         1        2.0000           -0.8507565             -23.1503
       ...           ...                  ...                  ...
       168        2.0000           -0.4285277             -11.6608
       169        2.0000           -0.4268295             -11.6146
       170        2.0000           -0.4253557             -11.5745
       171        2.0000           -0.4236304             -11.5276
       172        2.0000           -0.4215647             -11.4714
       173        2.0000           -0.4182846             -11.3821
       174        2.0000           -0.4147046             -11.2847
       175        2.0000           -0.4134942             -11.2517
       176        2.0000           -0.4062784             -11.0554
       177        2.0000           -0.3939778             -10.7207
       178        2.0000           -0.3835811             -10.4378
       179        2.0000           -0.3809834             -10.3671
       180        2.0000           -0.3723464             -10.1321 (HOMO)
       181                         -0.3381642              -9.2019 (LUMO)
       182                         -0.3358868              -9.1399
       183                         -0.3284203              -8.9368
       184                         -0.3248865              -8.8406
       185                         -0.2867569              -7.8031
       186                         -0.2775946              -7.5537
       187                         -0.2696770              -7.3383
       188                         -0.2515622              -6.8454
       189                         -0.2504358              -6.8147
       190                         -0.2490656              -6.7774
       191                         -0.2430961              -6.6150
       ...                                ...                  ...
       344                          1.1531622              31.3791
      -------------------------------------------------------------
                  HL-Gap            0.0341821 Eh            0.9301 eV
             Fermi-level           -0.3552966 Eh           -9.6681 eV

     #   Z          covCN         q      C6AA      α(0)
     1   6 C        3.096     0.009    27.702     8.626
     2  16 S        2.268    -0.025   142.086    20.062
     3   6 C        2.997     0.030    27.330     8.576
     4   6 C        3.026    -0.055    29.349     8.886
     5   6 C        3.266     0.041    25.862     8.207
     6   6 C        2.957    -0.011    28.286     8.723
     7   6 C        3.001    -0.040    28.973     8.830
     8   6 C        2.867     0.236    23.076     7.874
     9   6 C        3.049    -0.018    28.398     8.740
    10   6 C        3.032     0.011    27.748     8.640
    11   6 C        3.022     0.038    27.124     8.543
    12   6 C        2.913    -0.034    28.842     8.806
    13   6 C        2.783     0.167    24.382     8.088
    14   6 C        2.782     0.170    24.337     8.080
    15   6 C        2.914    -0.046    29.133     8.851
    16   8 O        0.856    -0.418    22.035     6.294
    17   6 C        2.947     0.012    27.735     8.638
    18   6 C        1.946     0.132    27.851     8.522
    19   6 C        1.949     0.133    27.835     8.520
    20   7 N        0.911    -0.257    26.680     7.471
    21   7 N        0.911    -0.260    26.737     7.479
    22   9 F        0.787    -0.204    11.275     3.966
    23   6 C        3.071    -0.020    28.429     8.743
    24   6 C        3.118     0.045    26.824     8.483
    25   7 N        2.793    -0.029    21.801     6.935
    26   6 C        2.905    -0.039    28.970     8.825
    27   6 C        3.084    -0.013    28.236     8.711
    28   6 C        3.040     0.008    27.810     8.650
    29   6 C        2.905    -0.060    29.501     8.906
    30   6 C        3.932     0.012    20.302     6.403
    31   6 C        3.105    -0.009    28.095     8.685
    32   6 C        3.131    -0.012    28.113     8.680
    33   6 C        3.806    -0.051    21.489     6.599
    34   6 C        3.807    -0.051    21.481     6.598
    35   6 C        3.750    -0.103    22.539     6.771
    36   6 C        3.750    -0.104    22.542     6.771
    37   6 C        3.045     0.009    27.781     8.645
    38   6 C        3.073    -0.011    28.219     8.710
    39   6 C        3.932     0.013    20.297     6.403
    40   6 C        3.807    -0.052    21.500     6.601
    41   6 C        3.806    -0.050    21.463     6.595
    42   6 C        3.751    -0.105    22.566     6.775
    43   6 C        3.751    -0.106    22.596     6.779
    44   6 C        2.905    -0.062    29.549     8.913
    45   6 C        3.112     0.045    26.838     8.487
    46   6 C        3.073    -0.020    28.420     8.741
    47   6 C        2.906    -0.038    28.938     8.821
    48   7 N        2.791    -0.033    21.883     6.948
    49   6 C        3.243     0.041    26.147     8.286
    50   6 C        3.099    -0.003    27.985     8.669
    51   6 C        3.039    -0.058    29.401     8.894
    52   6 C        2.994     0.026    27.416     8.589
    53  16 S        2.282     0.029   139.861    19.904
    54   6 C        2.919    -0.013    28.347     8.731
    55   6 C        3.007    -0.040    28.979     8.831
    56   6 C        2.872     0.234    23.112     7.881
    57   6 C        3.048    -0.017    28.378     8.737
    58   6 C        3.036     0.010    27.756     8.641
    59   6 C        3.019     0.038    27.127     8.543
    60   6 C        2.913    -0.034    28.839     8.806
    61   6 C        2.783     0.168    24.379     8.087
    62   6 C        2.782     0.169    24.343     8.081
    63   6 C        2.914    -0.045    29.128     8.850
    64   8 O        0.937    -0.390    21.450     6.211
    65   6 C        2.947     0.011    27.768     8.643
    66   6 C        1.945     0.134    27.818     8.518
    67   6 C        1.947     0.132    27.845     8.522
    68   7 N        0.911    -0.259    26.712     7.475
    69   7 N        0.911    -0.267    26.913     7.503
    70   9 F        0.787    -0.204    11.277     3.967
    71   9 F        0.787    -0.206    11.294     3.970
    72   9 F        0.787    -0.205    11.292     3.969
    73   6 C        3.689    -0.054    21.733     6.672
    74   6 C        3.689    -0.052    21.712     6.669
    75   1 H        0.926     0.097     1.813     2.105
    76   1 H        0.925     0.076     2.016     2.221
    77   1 H        0.926     0.099     1.795     2.095
    78   1 H        0.926     0.096     1.817     2.108
    79   1 H        0.926     0.044     2.397     2.421
    80   1 H        0.926     0.052     2.294     2.369
    81   1 H        0.924     0.032     2.553     2.498
    82   1 H        0.924     0.041     2.434     2.440
    83   1 H        0.924     0.033     2.549     2.497
    84   1 H        0.924     0.041     2.435     2.440
    85   1 H        0.925     0.038     2.471     2.458
    86   1 H        0.925     0.036     2.497     2.471
    87   1 H        0.925     0.042     2.425     2.435
    88   1 H        0.925     0.036     2.500     2.472
    89   1 H        0.925     0.041     2.433     2.439
    90   1 H        0.925     0.039     2.468     2.457
    91   1 H        0.924     0.031     2.566     2.505
    92   1 H        0.924     0.046     2.374     2.409
    93   1 H        0.924     0.032     2.561     2.503
    94   1 H        0.924     0.042     2.422     2.434
    95   1 H        0.925     0.040     2.454     2.450
    96   1 H        0.925     0.040     2.452     2.449
    97   1 H        0.925     0.036     2.497     2.471
    98   1 H        0.925     0.042     2.423     2.434
    99   1 H        0.925     0.041     2.438     2.442
   100   1 H        0.925     0.037     2.490     2.468
   101   1 H        0.926     0.059     2.212     2.326
   102   1 H        0.926     0.050     2.325     2.384
   103   1 H        0.926     0.058     2.221     2.331
   104   1 H        0.925     0.076     2.025     2.225
   105   1 H        0.926     0.100     1.787     2.091
   106   1 H        0.926     0.096     1.820     2.110
   107   1 H        0.925     0.078     1.997     2.210
   108   1 H        0.924     0.065     2.139     2.287
   109   1 H        0.924     0.065     2.139     2.287
   110   1 H        0.924     0.063     2.162     2.299
   111   1 H        0.925     0.073     2.057     2.243
   112   1 H        0.924     0.066     2.128     2.281

 Mol. C6AA /au·bohr⁶  :     194195.373249
 Mol. C8AA /au·bohr⁸  :    5084228.662302
 Mol. α(0) /au        :        693.811992


Wiberg/Mayer (AO) data.
largest (>0.10) Wiberg bond orders for each atom

 ---------------------------------------------------------------------------
     #   Z sym  total        # sym  WBO       # sym  WBO       # sym  WBO
 ---------------------------------------------------------------------------
     1   6 C    3.915 --    23 C    1.262     5 C    1.241     2 S    1.169
     2  16 S    2.561 --     1 C    1.169     3 C    1.063     4 C    0.110
     3   6 C    3.928 --     4 C    1.382     6 C    1.314     2 S    1.063
     4   6 C    3.949 --     3 C    1.382     5 C    1.353    75 H    0.937
                             2 S    0.110
     5   6 C    3.945 --     4 C    1.353     1 C    1.241    25 N    1.157
     6   6 C    3.937 --     7 C    1.470     3 C    1.314    76 H    0.941
     7   6 C    3.953 --     6 C    1.470    11 C    1.148     8 C    1.065
     8   6 C    3.913 --    16 O    1.714     7 C    1.065     9 C    1.016
     9   6 C    3.977 --    12 C    1.417    10 C    1.303     8 C    1.016
    10   6 C    3.982 --    15 C    1.402     9 C    1.303    11 C    1.078
    11   6 C    3.968 --    17 C    1.482     7 C    1.148    10 C    1.078
    12   6 C    3.974 --     9 C    1.417    13 C    1.386    77 H    0.958
    13   6 C    3.873 --    12 C    1.386    14 C    1.337    71 F    0.975
    14   6 C    3.880 --    15 C    1.390    13 C    1.337    22 F    0.977
    15   6 C    3.969 --    10 C    1.402    14 C    1.390    78 H    0.953
    16   8 O    2.016 --     8 C    1.714
    17   6 C    3.944 --    11 C    1.482    18 C    1.098    19 C    1.096
    18   6 C    3.943 --    21 N    2.748    17 C    1.098
    19   6 C    3.942 --    20 N    2.758    17 C    1.096
    20   7 N    2.963 --    19 C    2.758
    21   7 N    2.958 --    18 C    2.748
    22   9 F    1.112 --    14 C    0.977
    23   6 C    3.966 --    26 C    1.290     1 C    1.262    24 C    1.202
    24   6 C    3.933 --    29 C    1.368    23 C    1.202    25 N    1.162
    25   7 N    3.572 --    24 C    1.162     5 C    1.157    73 C    1.000
    26   6 C    3.972 --    27 C    1.531    23 C    1.290    79 H    0.964
    27   6 C    3.972 --    26 C    1.531    28 C    1.236    30 C    0.979
    28   6 C    3.945 --    29 C    1.390    27 C    1.236    32 C    1.153
    29   6 C    3.961 --    28 C    1.390    24 C    1.368    80 H    0.958
    30   6 C    3.987 --    31 C    0.997    27 C    0.979    33 C    0.959
                            34 C    0.957
    31   6 C    3.936 --    32 C    1.568    37 C    1.151    30 C    0.997
    32   6 C    3.938 --    31 C    1.568    28 C    1.153    39 C    0.995
    33   6 C    3.990 --    36 C    1.019    81 H    0.977    82 H    0.973
                            30 C    0.959
    34   6 C    3.991 --    35 C    1.019    83 H    0.977    84 H    0.973
                            30 C    0.957
    35   6 C    3.995 --    34 C    1.019    86 H    0.984    87 H    0.984
                            85 H    0.980
    36   6 C    3.995 --    33 C    1.019    88 H    0.984    89 H    0.983
                            90 H    0.980
    37   6 C    3.942 --    44 C    1.385    38 C    1.237    31 C    1.151
    38   6 C    3.972 --    47 C    1.525    37 C    1.237    39 C    0.985
    39   6 C    3.988 --    32 C    0.995    38 C    0.985    40 C    0.957
                            41 C    0.957
    40   6 C    3.991 --    42 C    1.019    91 H    0.977    92 H    0.970
                            39 C    0.957
    41   6 C    3.992 --    43 C    1.019    93 H    0.977    94 H    0.971
                            39 C    0.957
    42   6 C    3.995 --    40 C    1.019    97 H    0.985    95 H    0.984
                            96 H    0.983
    43   6 C    3.994 --    41 C    1.019   100 H    0.985    98 H    0.984
                            99 H    0.984
    44   6 C    3.960 --    37 C    1.385    45 C    1.373   101 H    0.957
    45   6 C    3.932 --    44 C    1.373    46 C    1.206    48 N    1.154
    46   6 C    3.965 --    47 C    1.295    50 C    1.255    45 C    1.206
    47   6 C    3.970 --    38 C    1.525    46 C    1.295   102 H    0.961
    48   7 N    3.562 --    49 C    1.154    45 C    1.154    74 C    1.001
    49   6 C    3.943 --    51 C    1.378    50 C    1.230    48 N    1.154
    50   6 C    3.926 --    46 C    1.255    49 C    1.230    53 S    1.186
    51   6 C    3.965 --    49 C    1.378    52 C    1.340   103 H    0.960
                            53 S    0.118
    52   6 C    3.935 --    51 C    1.340    54 C    1.337    53 S    1.089
    53  16 S    2.717 --    50 C    1.186    52 C    1.089    51 C    0.118
                            64 O    0.111
    54   6 C    3.938 --    55 C    1.453    52 C    1.337   104 H    0.937
    55   6 C    3.955 --    54 C    1.453    59 C    1.156    56 C    1.080
    56   6 C    3.913 --    64 O    1.695    55 C    1.080    57 C    1.015
    57   6 C    3.975 --    60 C    1.421    58 C    1.301    56 C    1.015
    58   6 C    3.981 --    63 C    1.405    57 C    1.301    59 C    1.076
    59   6 C    3.966 --    65 C    1.474    55 C    1.156    58 C    1.076
    60   6 C    3.973 --    57 C    1.421    61 C    1.383   105 H    0.958
    61   6 C    3.873 --    60 C    1.383    62 C    1.339    72 F    0.975
    62   6 C    3.880 --    63 C    1.387    61 C    1.339    70 F    0.977
    63   6 C    3.968 --    58 C    1.405    62 C    1.387   106 H    0.953
    64   8 O    2.080 --    56 C    1.695    53 S    0.111
    65   6 C    3.951 --    59 C    1.474    66 C    1.101    67 C    1.098
    66   6 C    3.942 --    69 N    2.743    65 C    1.101
    67   6 C    3.942 --    68 N    2.757    65 C    1.098
    68   7 N    2.961 --    67 C    2.757
    69   7 N    2.955 --    66 C    2.743
    70   9 F    1.112 --    62 C    0.977
    71   9 F    1.108 --    13 C    0.975
    72   9 F    1.108 --    61 C    0.975
    73   6 C    3.963 --    25 N    1.000   107 H    0.978   109 H    0.974
                           108 H    0.973
    74   6 C    3.965 --    48 N    1.001   111 H    0.979   112 H    0.975
                           110 H    0.973
    75   1 H    0.990 --     4 C    0.937
    76   1 H    0.993 --     6 C    0.941
    77   1 H    0.990 --    12 C    0.958
    78   1 H    0.990 --    15 C    0.953
    79   1 H    0.997 --    26 C    0.964
    80   1 H    0.996 --    29 C    0.958
    81   1 H    0.999 --    33 C    0.977
    82   1 H    0.998 --    33 C    0.973
    83   1 H    0.999 --    34 C    0.977
    84   1 H    0.998 --    34 C    0.973
    85   1 H    0.998 --    35 C    0.980
    86   1 H    0.998 --    35 C    0.984
    87   1 H    0.998 --    35 C    0.984
    88   1 H    0.998 --    36 C    0.984
    89   1 H    0.998 --    36 C    0.983
    90   1 H    0.998 --    36 C    0.980
    91   1 H    0.999 --    40 C    0.977
    92   1 H    0.997 --    40 C    0.970
    93   1 H    0.999 --    41 C    0.977
    94   1 H    0.997 --    41 C    0.971
    95   1 H    0.998 --    42 C    0.984
    96   1 H    0.998 --    42 C    0.983
    97   1 H    0.998 --    42 C    0.985
    98   1 H    0.998 --    43 C    0.984
    99   1 H    0.998 --    43 C    0.984
   100   1 H    0.997 --    43 C    0.985
   101   1 H    0.995 --    44 C    0.957
   102   1 H    0.996 --    47 C    0.961
   103   1 H    0.996 --    51 C    0.960
   104   1 H    0.993 --    54 C    0.937
   105   1 H    0.990 --    60 C    0.958
   106   1 H    0.990 --    63 C    0.953
   107   1 H    0.994 --    73 C    0.978
   108   1 H    0.993 --    73 C    0.973
   109   1 H    0.994 --    73 C    0.974
   110   1 H    0.994 --    74 C    0.973
   111   1 H    0.994 --    74 C    0.979
   112   1 H    0.993 --    74 C    0.975
 ---------------------------------------------------------------------------

Topologies differ in bond orders
Writing corrected topology to xtbtopo.mol

molecular dipole:
                 x           y           z       tot (Debye)
 q only:       -0.277      -1.874      -0.135
   full:       -0.731      -1.332       0.324       3.949
molecular quadrupole (traceless):
                xx          xy          yy          xz          yz          zz
 q only:     -108.255       8.517     149.709    -232.944      -6.415     -41.454
  q+dip:     -113.680      11.240     149.949    -231.291       0.241     -36.269
   full:     -119.722      19.045     158.891    -235.326      -8.267     -39.169


           -------------------------------------------------
          | TOTAL ENERGY             -198.951312297838 Eh   |
          | GRADIENT NORM               0.022931153391 Eh/α |
          | HOMO-LUMO GAP               0.930143276211 eV   |
           -------------------------------------------------

------------------------------------------------------------------------
 * finished run on 2021/12/28 at 11:55:39.203     
------------------------------------------------------------------------
 total:
 * wall-time:     0 d,  0 h,  0 min,  0.568 sec
 *  cpu-time:     0 d,  0 h,  0 min,  0.568 sec
 * ratio c/w:     1.000 speedup
 SCF:
 * wall-time:     0 d,  0 h,  0 min,  0.512 sec
 *  cpu-time:     0 d,  0 h,  0 min,  0.512 sec
 * ratio c/w:     1.000 speedup

