      -----------------------------------------------------------      
     |                   =====================                   |     
     |                           x T B                           |     
     |                   =====================                   |     
     |                         S. Grimme                         |     
     |          Mulliken Center for Theoretical Chemistry        |     
     |                    University of Bonn                     |     
      -----------------------------------------------------------      

   * xtb version 6.4.1 (unknown) compiled by 'oda6@login1.crc.pitt.edu' on 2021-06-25

   xtb is free software: you can redistribute it and/or modify it under
   the terms of the GNU Lesser General Public License as published by
   the Free Software Foundation, either version 3 of the License, or
   (at your option) any later version.
   
   xtb is distributed in the hope that it will be useful,
   but WITHOUT ANY WARRANTY; without even the implied warranty of
   MERCHANTABILITY or FITNESS FOR A PARTICULAR PURPOSE.  See the
   GNU Lesser General Public License for more details.
   
   Cite this work as:
   * C. Bannwarth, E. Caldeweyher, S. Ehlert, A. Hansen, P. Pracht,
     J. Seibert, S. Spicher, S. Grimme, WIREs Comput. Mol. Sci., 2020, 11,
     e01493. DOI: 10.1002/wcms.1493
   
   for GFN2-xTB:
   * C. Bannwarth, S. Ehlert and S. Grimme., J. Chem. Theory Comput., 2019,
     15, 1652-1671. DOI: 10.1021/acs.jctc.8b01176
   for GFN1-xTB:
   * S. Grimme, C. Bannwarth, P. Shushkov, J. Chem. Theory Comput., 2017,
     13, 1989-2009. DOI: 10.1021/acs.jctc.7b00118
   for GFN0-xTB:
   * P. Pracht, E. Caldeweyher, S. Ehlert, S. Grimme, ChemRxiv, 2019, preprint.
     DOI: 10.26434/chemrxiv.8326202.v1
   for GFN-FF:
   * S. Spicher and S. Grimme, Angew. Chem. Int. Ed., 2020, 59, 15665-15673.
     DOI: 10.1002/anie.202004239
   
   for DFT-D4:
   * E. Caldeweyher, C. Bannwarth and S. Grimme, J. Chem. Phys., 2017,
     147, 034112. DOI: 10.1063/1.4993215
   * E. Caldeweyher, S. Ehlert, A. Hansen, H. Neugebauer, S. Spicher,
     C. Bannwarth and S. Grimme, J. Chem. Phys., 2019, 150, 154122.
     DOI: 10.1063/1.5090222
   * E. Caldeweyher, J.-M. Mewes, S. Ehlert and S. Grimme, Phys. Chem. Chem. Phys.
     2020, 22, 8499-8512. DOI: 10.1039/D0CP00502A
   
   for sTDA-xTB:
   * S. Grimme and C. Bannwarth, J. Chem. Phys., 2016, 145, 054103.
     DOI: 10.1063/1.4959605
   
   in the mass-spec context:
   * V. Asgeirsson, C. Bauer and S. Grimme, Chem. Sci., 2017, 8, 4879.
     DOI: 10.1039/c7sc00601b
   * J. Koopman and S. Grimme, ACS Omega 2019, 4, 12, 15120-15133.
     DOI: 10.1021/acsomega.9b02011
   
   for metadynamics refer to:
   * S. Grimme, J. Chem. Theory Comput., 2019, 155, 2847-2862
     DOI: 10.1021/acs.jctc.9b00143
   
   for SPH calculations refer to:
   * S. Spicher and S. Grimme, J. Chem. Theory Comput., 2021, 17, 1701-1714
     DOI: 10.1021/acs.jctc.0c01306
   
   with help from (in alphabetical order)
   P. Atkinson, C. Bannwarth, F. Bohle, G. Brandenburg, E. Caldeweyher
   M. Checinski, S. Dohm, S. Ehlert, S. Ehrlich, I. Gerasimov, J. Koopman
   C. Lavigne, S. Lehtola, F. März, M. Müller, F. Musil, H. Neugebauer
   J. Pisarek, C. Plett, P. Pracht, J. Seibert, P. Shushkov, S. Spicher
   M. Stahn, M. Steiner, T. Strunk, J. Stückrath, T. Rose, and J. Unsleber
   
 * started run on 2021/12/28 at 11:55:40.344     

           -------------------------------------------------
          |                Calculation Setup                |
           -------------------------------------------------

          program call               : /ihome/ghutchison/oda6/xtb/xtb-641/bin//xtb ZY-4Cl.mol --sp --alpb hexane
          hostname                   : smp-n39
          coordinate file            : ZY-4Cl.mol
          omp threads                :                     1
          number of atoms            :                    89
          number of electrons        :                   312
          charge                     :                     0
          spin                       :                   0.0
          first test random number   :      0.26415109934883

   ID    Z sym.   atoms
    1    6 C      1, 3-5, 7, 9-11, 13-15, 17-21, 23, 24, 26-30, 34-36, 38-41,
                  43, 44, 46-52, 54-56, 58, 60-62
    2    8 O      2, 12, 53, 63
    3   17 Cl     6, 8, 57, 59
    4   16 S      16, 22, 32, 42, 45
    5    7 N      25, 31, 33, 37
    6    1 H      64-89

           -------------------------------------------------
          |                 G F N 2 - x T B                 |
           -------------------------------------------------

        Reference                      10.1021/acs.jctc.8b01176
      * Hamiltonian:
        H0-scaling (s, p, d)           1.850000    2.230000    2.230000
        zeta-weighting                 0.500000
      * Dispersion:
        s8                             2.700000
        a1                             0.520000
        a2                             5.000000
        s9                             5.000000
      * Repulsion:
        kExp                           1.500000    1.000000
        rExp                           1.000000
      * Coulomb:
        alpha                          2.000000
        third order                    shell-resolved
        anisotropic                    true
        a3                             3.000000
        a5                             4.000000
        cn-shift                       1.200000
        cn-exp                         4.000000
        max-rad                        5.000000

      * Solvation model:               ALPB
        Solvent                        hexane
        Parameter file                 internal GFN2-xTB/ALPB
        Dielectric constant                1.8800E+00
        Reference state                gsolv [1 M gas/solution]
        Free energy shift                  4.8134E-03 Eh       3.0204E+00 kcal/mol
        Temperature                        2.9815E+02 K
        Density                            6.6000E-01 kg/L
        Solvent mass                       8.6180E+01 g/mol
        Interaction kernel             P16
        Born radius scaling (c1)           1.1040E+00
        Born radii integrator          GBOBC
        Born offset                        0.0000E+00 a0       0.0000E+00 AA
        H-bond correction              false
        Ion screening                  false
        Surface tension                    1.0000E-05 Eh       1.5569E+01 dyn/cm
        Grid points                               230 per atom

          ...................................................
          :                      SETUP                      :
          :.................................................:
          :  # basis functions                 332          :
          :  # atomic orbitals                 323          :
          :  # shells                          161          :
          :  # electrons                       312          :
          :  max. iterations                   250          :
          :  Hamiltonian                  GFN2-xTB          :
          :  restarted?                      false          :
          :  GBSA solvation                   true          :
          :  PC potential                    false          :
          :  electronic temp.          300.0000000     K    :
          :  accuracy                    1.0000000          :
          :  -> integral cutoff          0.2500000E+02      :
          :  -> integral neglect         0.1000000E-07      :
          :  -> SCF convergence          0.1000000E-05 Eh   :
          :  -> wf. convergence          0.1000000E-03 e    :
          :  Broyden damping             0.4000000          :
          ...................................................

 iter      E             dE          RMSdq      gap      omega  full diag
   1   -176.2955330 -0.176296E+03  0.476E+00    1.40       0.0  T
   2   -176.5259687 -0.230436E+00  0.265E+00    1.05       1.0  T
   3   -176.5250455  0.923220E-03  0.130E+00    1.43       1.0  T
   4   -176.5657772 -0.407317E-01  0.390E-01    1.23       1.0  T
   5   -176.5719159 -0.613874E-02  0.143E-01    1.26       1.0  T
   6   -176.5724930 -0.577090E-03  0.733E-02    1.27       1.0  T
   7   -176.5726428 -0.149794E-03  0.358E-02    1.26       1.0  T
   8   -176.5726657 -0.229508E-04  0.253E-02    1.26       1.0  T
   9   -176.5726789 -0.131434E-04  0.174E-02    1.26       1.0  T
  10   -176.5726872 -0.826542E-05  0.108E-02    1.26       1.0  T
  11   -176.5726902 -0.302063E-05  0.651E-03    1.26       1.6  T
  12   -176.5726915 -0.134393E-05  0.265E-03    1.26       4.0  T
  13   -176.5726917 -0.198185E-06  0.132E-03    1.26       8.0  T
  14   -176.5726917 -0.291041E-07  0.619E-04    1.26      17.1  T
  15   -176.5726918 -0.663263E-08  0.282E-04    1.26      37.5  T

   *** convergence criteria satisfied after 15 iterations ***

         #    Occupation            Energy/Eh            Energy/eV
      -------------------------------------------------------------
         1        2.0000           -1.0774414             -29.3187
       ...           ...                  ...                  ...
       150        2.0000           -0.4055572             -11.0358
       151        2.0000           -0.4043435             -11.0027
       152        2.0000           -0.4037166             -10.9857
       153        2.0000           -0.3948552             -10.7446
       154        2.0000           -0.3861564             -10.5079
       155        2.0000           -0.3777648             -10.2795
       156        2.0000           -0.3728069             -10.1446 (HOMO)
       157                         -0.3264406              -8.8829 (LUMO)
       158                         -0.3204759              -8.7206
       159                         -0.3179618              -8.6522
       160                         -0.3177485              -8.6464
       161                         -0.2999393              -8.1618
       ...                                ...                  ...
       323                          0.7500623              20.4102
      -------------------------------------------------------------
                  HL-Gap            0.0463663 Eh            1.2617 eV
             Fermi-level           -0.3496222 Eh           -9.5137 eV

 SCC (total)                   0 d,  0 h,  0 min,  0.493 sec
 SCC setup                      ...        0 min,  0.005 sec (  0.929%)
 Dispersion                     ...        0 min,  0.003 sec (  0.628%)
 classical contributions        ...        0 min,  0.000 sec (  0.064%)
 integral evaluation            ...        0 min,  0.046 sec (  9.400%)
 iterations                     ...        0 min,  0.291 sec ( 58.898%)
 molecular gradient             ...        0 min,  0.146 sec ( 29.682%)
 printout                       ...        0 min,  0.002 sec (  0.388%)

         :::::::::::::::::::::::::::::::::::::::::::::::::::::
         ::                     SUMMARY                     ::
         :::::::::::::::::::::::::::::::::::::::::::::::::::::
         :: total energy            -174.346388187704 Eh    ::
         :: total w/o Gsasa/hb      -174.289182257647 Eh    ::
         :: gradient norm              0.024341657700 Eh/a0 ::
         :: HOMO-LUMO gap              1.261690500096 eV    ::
         ::.................................................::
         :: SCC energy              -176.572691753276 Eh    ::
         :: -> isotropic ES            0.164337095537 Eh    ::
         :: -> anisotropic ES         -0.003015042440 Eh    ::
         :: -> anisotropic XC          0.053059771312 Eh    ::
         :: -> dispersion             -0.147568571243 Eh    ::
         :: -> Gsolv                  -0.080676274586 Eh    ::
         ::    -> Gelec               -0.023470344529 Eh    ::
         ::    -> Gsasa               -0.062019285877 Eh    ::
         ::    -> Ghb                  0.000000000000 Eh    ::
         ::    -> Gshift               0.004813355820 Eh    ::
         :: repulsion energy           2.227542530248 Eh    ::
         :: add. restraining           0.000000000000 Eh    ::
         :: total charge               0.000000000000 e     ::
         :::::::::::::::::::::::::::::::::::::::::::::::::::::

           -------------------------------------------------
          |                Property Printout                |
           -------------------------------------------------

    * Orbital Energies and Occupations

         #    Occupation            Energy/Eh            Energy/eV
      -------------------------------------------------------------
         1        2.0000           -1.0774414             -29.3187
       ...           ...                  ...                  ...
       144        2.0000           -0.4196267             -11.4186
       145        2.0000           -0.4189647             -11.4006
       146        2.0000           -0.4180157             -11.3748
       147        2.0000           -0.4177615             -11.3679
       148        2.0000           -0.4152842             -11.3005
       149        2.0000           -0.4136913             -11.2571
       150        2.0000           -0.4055572             -11.0358
       151        2.0000           -0.4043435             -11.0027
       152        2.0000           -0.4037166             -10.9857
       153        2.0000           -0.3948552             -10.7446
       154        2.0000           -0.3861564             -10.5079
       155        2.0000           -0.3777648             -10.2795
       156        2.0000           -0.3728069             -10.1446 (HOMO)
       157                         -0.3264406              -8.8829 (LUMO)
       158                         -0.3204759              -8.7206
       159                         -0.3179618              -8.6522
       160                         -0.3177485              -8.6464
       161                         -0.2999393              -8.1618
       162                         -0.2769924              -7.5373
       163                         -0.2730344              -7.4296
       164                         -0.2567946              -6.9877
       165                         -0.2483962              -6.7592
       166                         -0.2405631              -6.5461
       167                         -0.2300774              -6.2607
       ...                                ...                  ...
       323                          0.7500623              20.4102
      -------------------------------------------------------------
                  HL-Gap            0.0463663 Eh            1.2617 eV
             Fermi-level           -0.3496222 Eh           -9.5137 eV

     #   Z          covCN         q      C6AA      α(0)
     1   6 C        2.865     0.234    23.102     7.879
     2   8 O        0.856    -0.401    21.694     6.245
     3   6 C        3.029    -0.013    28.308     8.727
     4   6 C        2.952    -0.023    28.577     8.768
     5   6 C        2.921     0.099    25.810     8.331
     6  17 Cl       0.997    -0.132   103.285    15.548
     7   6 C        2.922     0.099    25.817     8.332
     8  17 Cl       0.997    -0.133   103.320    15.551
     9   6 C        2.952    -0.024    28.592     8.770
    10   6 C        3.035    -0.012    28.283     8.723
    11   6 C        2.860     0.236    23.073     7.873
    12   8 O        0.922    -0.392    21.488     6.216
    13   6 C        3.002    -0.067    29.663     8.934
    14   6 C        2.925     0.002    27.978     8.674
    15   6 C        2.994     0.018    27.607     8.619
    16  16 S        2.288     0.003   140.920    19.980
    17   6 C        3.108    -0.000    27.896     8.653
    18   6 C        3.183     0.010    27.344     8.535
    19   6 C        3.095     0.008    27.720     8.629
    20   6 C        3.804    -0.058    21.610     6.618
    21   6 C        3.754    -0.104    22.539     6.770
    22  16 S        2.167    -0.037   142.589    20.098
    23   6 C        3.095     0.007    27.743     8.633
    24   6 C        3.254     0.027    26.339     8.302
    25   7 N        2.799    -0.024    21.706     6.920
    26   6 C        3.744    -0.011    20.837     6.512
    27   6 C        3.752    -0.115    22.753     6.802
    28   6 C        3.071     0.034    27.172     8.547
    29   6 C        3.087    -0.038    28.830     8.802
    30   6 C        3.341     0.070    23.998     7.745
    31   7 N        1.854    -0.296    28.522     7.915
    32  16 S        2.687     0.344   127.824    19.029
    33   7 N        1.854    -0.296    28.516     7.915
    34   6 C        3.341     0.070    23.994     7.743
    35   6 C        3.087    -0.037    28.808     8.798
    36   6 C        3.071     0.033    27.191     8.550
    37   7 N        2.799    -0.028    21.793     6.933
    38   6 C        3.743    -0.008    20.796     6.506
    39   6 C        3.752    -0.115    22.760     6.803
    40   6 C        3.253     0.027    26.352     8.305
    41   6 C        3.098     0.003    27.841     8.647
    42  16 S        2.186    -0.021   141.918    20.050
    43   6 C        3.188     0.011    27.292     8.523
    44   6 C        3.123     0.009    27.640     8.610
    45  16 S        2.274    -0.048   143.031    20.129
    46   6 C        2.998     0.022    27.513     8.604
    47   6 C        3.087     0.020    27.461     8.590
    48   6 C        3.804    -0.053    21.518     6.604
    49   6 C        3.753    -0.109    22.634     6.784
    50   6 C        2.956     0.006    27.881     8.661
    51   6 C        2.999    -0.062    29.538     8.915
    52   6 C        2.855     0.236    23.065     7.872
    53   8 O        0.856    -0.402    21.728     6.250
    54   6 C        3.033    -0.012    28.289     8.724
    55   6 C        2.952    -0.023    28.586     8.769
    56   6 C        2.922     0.099    25.798     8.329
    57  17 Cl       0.998    -0.131   103.245    15.545
    58   6 C        2.921     0.099    25.804     8.330
    59  17 Cl       0.998    -0.131   103.262    15.547
    60   6 C        2.952    -0.023    28.570     8.767
    61   6 C        3.026    -0.013    28.304     8.727
    62   6 C        2.863     0.237    23.063     7.872
    63   8 O        0.856    -0.394    21.555     6.225
    64   1 H        0.926     0.098     1.800     2.098
    65   1 H        0.926     0.098     1.806     2.102
    66   1 H        0.925     0.090     1.882     2.145
    67   1 H        0.924     0.055     2.253     2.347
    68   1 H        0.924     0.060     2.195     2.317
    69   1 H        0.925     0.045     2.382     2.413
    70   1 H        0.925     0.044     2.401     2.423
    71   1 H        0.925     0.051     2.312     2.378
    72   1 H        0.925     0.072     2.064     2.246
    73   1 H        0.924     0.082     1.954     2.186
    74   1 H        0.925     0.050     2.318     2.381
    75   1 H        0.925     0.057     2.231     2.336
    76   1 H        0.925     0.051     2.313     2.379
    77   1 H        0.925     0.072     2.060     2.245
    78   1 H        0.924     0.077     2.015     2.220
    79   1 H        0.925     0.050     2.317     2.380
    80   1 H        0.925     0.051     2.303     2.373
    81   1 H        0.925     0.057     2.235     2.338
    82   1 H        0.924     0.046     2.374     2.409
    83   1 H        0.924     0.086     1.923     2.169
    84   1 H        0.925     0.042     2.419     2.432
    85   1 H        0.925     0.047     2.353     2.399
    86   1 H        0.925     0.057     2.239     2.340
    87   1 H        0.925     0.085     1.924     2.169
    88   1 H        0.926     0.099     1.797     2.096
    89   1 H        0.926     0.099     1.794     2.094

 Mol. C6AA /au·bohr⁶  :     168439.036854
 Mol. C8AA /au·bohr⁸  :    5037730.446324
 Mol. α(0) /au        :        651.722491


Wiberg/Mayer (AO) data.
largest (>0.10) Wiberg bond orders for each atom

 ---------------------------------------------------------------------------
     #   Z sym  total        # sym  WBO       # sym  WBO       # sym  WBO
 ---------------------------------------------------------------------------
     1   6 C    3.922 --     2 O    1.751    13 C    1.060     3 C    1.001
     2   8 O    2.026 --     1 C    1.751
     3   6 C    3.981 --     4 C    1.426    10 C    1.310     1 C    1.001
     4   6 C    3.976 --     3 C    1.426     5 C    1.382    64 H    0.958
     5   6 C    3.917 --     4 C    1.382     7 C    1.356     6 Cl   1.004
     6  17 Cl   1.153 --     5 C    1.004
     7   6 C    3.918 --     9 C    1.384     5 C    1.356     8 Cl   1.003
     8  17 Cl   1.151 --     7 C    1.003
     9   6 C    3.975 --    10 C    1.423     7 C    1.384    65 H    0.958
    10   6 C    3.982 --     9 C    1.423     3 C    1.310    11 C    1.005
    11   6 C    3.923 --    12 O    1.696    13 C    1.098    10 C    1.005
    12   8 O    2.088 --    11 C    1.696    16 S    0.107
    13   6 C    3.950 --    14 C    1.494    11 C    1.098     1 C    1.060
    14   6 C    3.947 --    13 C    1.494    15 C    1.318    66 H    0.941
    15   6 C    3.931 --    19 C    1.339    14 C    1.318    16 S    1.071
    16  16 S    2.703 --    17 C    1.162    15 C    1.071    12 O    0.107
    17   6 C    3.947 --    18 C    1.291    24 C    1.252    16 S    1.162
    18   6 C    3.929 --    19 C    1.360    17 C    1.291    22 S    1.078
    19   6 C    3.971 --    18 C    1.360    15 C    1.339    20 C    1.017
    20   6 C    3.992 --    19 C    1.017    21 C    0.992    68 H    0.968
                            67 H    0.965
    21   6 C    3.990 --    20 C    0.992    69 H    0.988    70 H    0.987
                            71 H    0.984
    22  16 S    2.497 --    23 C    1.110    18 C    1.078
    23   6 C    3.917 --    24 C    1.300    29 C    1.281    22 S    1.110
    24   6 C    3.940 --    23 C    1.300    17 C    1.252    25 N    1.160
    25   7 N    3.565 --    28 C    1.179    24 C    1.160    26 C    0.978
    26   6 C    3.956 --    27 C    1.007    25 N    0.978    73 H    0.960
                            72 H    0.953
    27   6 C    3.988 --    26 C    1.007    76 H    0.986    74 H    0.983
                            75 H    0.982
    28   6 C    3.930 --    29 C    1.263    36 C    1.222    25 N    1.179
    29   6 C    3.955 --    23 C    1.281    28 C    1.263    30 C    1.172
    30   6 C    3.972 --    31 N    1.423    29 C    1.172    34 C    1.169
                            32 S    0.103
    31   7 N    3.062 --    30 C    1.423    32 S    1.387    33 N    0.144
    32  16 S    3.104 --    33 N    1.388    31 N    1.387    34 C    0.103
                            30 C    0.103
    33   7 N    3.062 --    34 C    1.423    32 S    1.388    31 N    0.144
    34   6 C    3.972 --    33 N    1.423    35 C    1.172    30 C    1.169
                            32 S    0.103
    35   6 C    3.955 --    41 C    1.272    36 C    1.272    34 C    1.172
    36   6 C    3.931 --    35 C    1.272    28 C    1.222    37 N    1.170
    37   7 N    3.558 --    36 C    1.170    40 C    1.160    38 C    0.978
    38   6 C    3.957 --    39 C    1.008    37 N    0.978    78 H    0.961
                            77 H    0.953
    39   6 C    3.988 --    38 C    1.008    79 H    0.986    81 H    0.982
                            80 H    0.982
    40   6 C    3.939 --    41 C    1.304    44 C    1.249    37 N    1.160
    41   6 C    3.922 --    40 C    1.304    35 C    1.272    42 S    1.114
    42  16 S    2.529 --    41 C    1.114    43 C    1.091
    43   6 C    3.930 --    44 C    1.327    47 C    1.298    42 S    1.091
    44   6 C    3.936 --    43 C    1.327    40 C    1.249    45 S    1.131
    45  16 S    2.540 --    44 C    1.131    46 C    1.058
    46   6 C    3.924 --    47 C    1.407    50 C    1.251    45 S    1.058
    47   6 C    3.967 --    46 C    1.407    43 C    1.298    48 C    1.025
    48   6 C    3.992 --    47 C    1.025    49 C    1.005    82 H    0.968
                            83 H    0.931
    49   6 C    3.992 --    48 C    1.005    84 H    0.987    85 H    0.985
                            86 H    0.978
    50   6 C    3.951 --    51 C    1.552    46 C    1.251    87 H    0.947
    51   6 C    3.957 --    50 C    1.552    52 C    1.066    62 C    1.046
    52   6 C    3.929 --    53 O    1.737    51 C    1.066    54 C    1.003
    53   8 O    2.035 --    52 C    1.737
    54   6 C    3.984 --    55 C    1.420    61 C    1.311    52 C    1.003
    55   6 C    3.976 --    54 C    1.420    56 C    1.387    88 H    0.958
    56   6 C    3.919 --    55 C    1.387    58 C    1.352    57 Cl   1.005
    57  17 Cl   1.154 --    56 C    1.005
    58   6 C    3.918 --    60 C    1.387    56 C    1.352    59 Cl   1.005
    59  17 Cl   1.153 --    58 C    1.005
    60   6 C    3.977 --    61 C    1.419    58 C    1.387    89 H    0.958
    61   6 C    3.982 --    60 C    1.419    54 C    1.311    62 C    1.006
    62   6 C    3.923 --    63 O    1.760    51 C    1.046    61 C    1.006
    63   8 O    2.025 --    62 C    1.760
    64   1 H    0.990 --     4 C    0.958
    65   1 H    0.990 --     9 C    0.958
    66   1 H    0.991 --    14 C    0.941
    67   1 H    0.996 --    20 C    0.965
    68   1 H    0.995 --    20 C    0.968
    69   1 H    0.998 --    21 C    0.988
    70   1 H    0.998 --    21 C    0.987
    71   1 H    0.996 --    21 C    0.984
    72   1 H    0.992 --    26 C    0.953
    73   1 H    0.993 --    26 C    0.960
    74   1 H    0.997 --    27 C    0.983
    75   1 H    0.996 --    27 C    0.982
    76   1 H    0.997 --    27 C    0.986
    77   1 H    0.992 --    38 C    0.953
    78   1 H    0.994 --    38 C    0.961
    79   1 H    0.997 --    39 C    0.986
    80   1 H    0.997 --    39 C    0.982
    81   1 H    0.996 --    39 C    0.982
    82   1 H    0.997 --    48 C    0.968
    83   1 H    0.991 --    48 C    0.931
    84   1 H    0.998 --    49 C    0.987
    85   1 H    0.996 --    49 C    0.985
    86   1 H    0.997 --    49 C    0.978
    87   1 H    0.990 --    50 C    0.947
    88   1 H    0.990 --    55 C    0.958
    89   1 H    0.990 --    60 C    0.958
 ---------------------------------------------------------------------------

Topologies differ in bond orders
Writing corrected topology to xtbtopo.mol

molecular dipole:
                 x           y           z       tot (Debye)
 q only:       -0.940       1.182       0.919
   full:       -0.283       0.247       0.620       1.842
molecular quadrupole (traceless):
                xx          xy          yy          xz          yz          zz
 q only:      -31.013     -58.435     -14.931     -38.106     -32.112      45.943
  q+dip:      -14.105     -36.305     -20.028     -21.100     -13.506      34.133
   full:      -13.823     -38.364     -26.208     -25.323     -12.151      40.031


           -------------------------------------------------
          | TOTAL ENERGY             -174.346388187704 Eh   |
          | GRADIENT NORM               0.024341657700 Eh/α |
          | HOMO-LUMO GAP               1.261690500096 eV   |
           -------------------------------------------------

------------------------------------------------------------------------
 * finished run on 2021/12/28 at 11:55:40.892     
------------------------------------------------------------------------
 total:
 * wall-time:     0 d,  0 h,  0 min,  0.548 sec
 *  cpu-time:     0 d,  0 h,  0 min,  0.548 sec
 * ratio c/w:     1.000 speedup
 SCF:
 * wall-time:     0 d,  0 h,  0 min,  0.495 sec
 *  cpu-time:     0 d,  0 h,  0 min,  0.495 sec
 * ratio c/w:     1.000 speedup

