      -----------------------------------------------------------      
     |                   =====================                   |     
     |                           x T B                           |     
     |                   =====================                   |     
     |                         S. Grimme                         |     
     |          Mulliken Center for Theoretical Chemistry        |     
     |                    University of Bonn                     |     
      -----------------------------------------------------------      

   * xtb version 6.4.1 (unknown) compiled by 'oda6@login1.crc.pitt.edu' on 2021-06-25

   xtb is free software: you can redistribute it and/or modify it under
   the terms of the GNU Lesser General Public License as published by
   the Free Software Foundation, either version 3 of the License, or
   (at your option) any later version.
   
   xtb is distributed in the hope that it will be useful,
   but WITHOUT ANY WARRANTY; without even the implied warranty of
   MERCHANTABILITY or FITNESS FOR A PARTICULAR PURPOSE.  See the
   GNU Lesser General Public License for more details.
   
   Cite this work as:
   * C. Bannwarth, E. Caldeweyher, S. Ehlert, A. Hansen, P. Pracht,
     J. Seibert, S. Spicher, S. Grimme, WIREs Comput. Mol. Sci., 2020, 11,
     e01493. DOI: 10.1002/wcms.1493
   
   for GFN2-xTB:
   * C. Bannwarth, S. Ehlert and S. Grimme., J. Chem. Theory Comput., 2019,
     15, 1652-1671. DOI: 10.1021/acs.jctc.8b01176
   for GFN1-xTB:
   * S. Grimme, C. Bannwarth, P. Shushkov, J. Chem. Theory Comput., 2017,
     13, 1989-2009. DOI: 10.1021/acs.jctc.7b00118
   for GFN0-xTB:
   * P. Pracht, E. Caldeweyher, S. Ehlert, S. Grimme, ChemRxiv, 2019, preprint.
     DOI: 10.26434/chemrxiv.8326202.v1
   for GFN-FF:
   * S. Spicher and S. Grimme, Angew. Chem. Int. Ed., 2020, 59, 15665-15673.
     DOI: 10.1002/anie.202004239
   
   for DFT-D4:
   * E. Caldeweyher, C. Bannwarth and S. Grimme, J. Chem. Phys., 2017,
     147, 034112. DOI: 10.1063/1.4993215
   * E. Caldeweyher, S. Ehlert, A. Hansen, H. Neugebauer, S. Spicher,
     C. Bannwarth and S. Grimme, J. Chem. Phys., 2019, 150, 154122.
     DOI: 10.1063/1.5090222
   * E. Caldeweyher, J.-M. Mewes, S. Ehlert and S. Grimme, Phys. Chem. Chem. Phys.
     2020, 22, 8499-8512. DOI: 10.1039/D0CP00502A
   
   for sTDA-xTB:
   * S. Grimme and C. Bannwarth, J. Chem. Phys., 2016, 145, 054103.
     DOI: 10.1063/1.4959605
   
   in the mass-spec context:
   * V. Asgeirsson, C. Bauer and S. Grimme, Chem. Sci., 2017, 8, 4879.
     DOI: 10.1039/c7sc00601b
   * J. Koopman and S. Grimme, ACS Omega 2019, 4, 12, 15120-15133.
     DOI: 10.1021/acsomega.9b02011
   
   for metadynamics refer to:
   * S. Grimme, J. Chem. Theory Comput., 2019, 155, 2847-2862
     DOI: 10.1021/acs.jctc.9b00143
   
   for SPH calculations refer to:
   * S. Spicher and S. Grimme, J. Chem. Theory Comput., 2021, 17, 1701-1714
     DOI: 10.1021/acs.jctc.0c01306
   
   with help from (in alphabetical order)
   P. Atkinson, C. Bannwarth, F. Bohle, G. Brandenburg, E. Caldeweyher
   M. Checinski, S. Dohm, S. Ehlert, S. Ehrlich, I. Gerasimov, J. Koopman
   C. Lavigne, S. Lehtola, F. März, M. Müller, F. Musil, H. Neugebauer
   J. Pisarek, C. Plett, P. Pracht, J. Seibert, P. Shushkov, S. Spicher
   M. Stahn, M. Steiner, T. Strunk, J. Stückrath, T. Rose, and J. Unsleber
   
 * started run on 2022/01/17 at 14:26:39.723     

           -------------------------------------------------
          |                Calculation Setup                |
           -------------------------------------------------

          program call               : /ihome/ghutchison/oda6/xtb/xtb-641/bin//xtb 13.mol -opt
          hostname                   : smp-n43
          coordinate file            : 13.mol
          omp threads                :                     1
          number of atoms            :                    25
          number of electrons        :                    86
          charge                     :                     0
          spin                       :                   0.0
          first test random number   :      0.52890167523019

   ID    Z sym.   atoms
    1    6 C      1, 2, 4, 6-10, 14-16
    2    8 O      3, 5
    3    7 N      11, 13
    4   16 S      12, 17
    5    1 H      18-25
########################################################################
[WARNING] Please study the warnings concerning your input carefully
-1- prog_main_parseArguments: the use of '-opt' is discouraged, please use '--opt' next time
########################################################################

           -------------------------------------------------
          |                 G F N 2 - x T B                 |
           -------------------------------------------------

        Reference                      10.1021/acs.jctc.8b01176
      * Hamiltonian:
        H0-scaling (s, p, d)           1.850000    2.230000    2.230000
        zeta-weighting                 0.500000
      * Dispersion:
        s8                             2.700000
        a1                             0.520000
        a2                             5.000000
        s9                             5.000000
      * Repulsion:
        kExp                           1.500000    1.000000
        rExp                           1.000000
      * Coulomb:
        alpha                          2.000000
        third order                    shell-resolved
        anisotropic                    true
        a3                             3.000000
        a5                             4.000000
        cn-shift                       1.200000
        cn-exp                         4.000000
        max-rad                        5.000000


          ...................................................
          :                      SETUP                      :
          :.................................................:
          :  # basis functions                  88          :
          :  # atomic orbitals                  86          :
          :  # shells                           44          :
          :  # electrons                        86          :
          :  max. iterations                   250          :
          :  Hamiltonian                  GFN2-xTB          :
          :  restarted?                      false          :
          :  GBSA solvation                  false          :
          :  PC potential                    false          :
          :  electronic temp.          300.0000000     K    :
          :  accuracy                    1.0000000          :
          :  -> integral cutoff          0.2500000E+02      :
          :  -> integral neglect         0.1000000E-07      :
          :  -> SCF convergence          0.1000000E-05 Eh   :
          :  -> wf. convergence          0.1000000E-03 e    :
          :  Broyden damping             0.4000000          :
          ...................................................

 iter      E             dE          RMSdq      gap      omega  full diag
   1    -48.5423716 -0.485424E+02  0.467E+00    1.69       0.0  T
   2    -48.6142144 -0.718429E-01  0.262E+00    1.48       1.0  T
   3    -48.6130067  0.120776E-02  0.132E+00    1.45       1.0  T
   4    -48.6264896 -0.134829E-01  0.549E-01    1.44       1.0  T
   5    -48.6308937 -0.440414E-02  0.243E-01    1.43       1.0  T
   6    -48.6316414 -0.747682E-03  0.129E-01    1.43       1.0  T
   7    -48.6318868 -0.245454E-03  0.615E-02    1.43       1.0  T
   8    -48.6319561 -0.693034E-04  0.200E-02    1.44       1.0  T
   9    -48.6319578 -0.162439E-05  0.953E-03    1.43       2.1  T
  10    -48.6319586 -0.852282E-06  0.433E-03    1.44       4.6  T
  11    -48.6319587 -0.106459E-06  0.155E-03    1.44      12.9  T
  12    -48.6319587 -0.184964E-07  0.785E-04    1.44      25.5  T
  13    -48.6319587 -0.144736E-08  0.314E-04    1.44      63.7  T

   *** convergence criteria satisfied after 13 iterations ***

         #    Occupation            Energy/Eh            Energy/eV
      -------------------------------------------------------------
         1        2.0000           -0.7718391             -21.0028
       ...           ...                  ...                  ...
        37        2.0000           -0.4391381             -11.9496
        38        2.0000           -0.4382190             -11.9245
        39        2.0000           -0.4375116             -11.9053
        40        2.0000           -0.4331065             -11.7854
        41        2.0000           -0.4253162             -11.5734
        42        2.0000           -0.4207423             -11.4490
        43        2.0000           -0.3879612             -10.5570 (HOMO)
        44                         -0.3352122              -9.1216 (LUMO)
        45                         -0.2967378              -8.0746
        46                         -0.2433428              -6.6217
        47                         -0.2254430              -6.1346
        48                         -0.2163075              -5.8860
       ...                                ...                  ...
        86                          0.7452242              20.2786
      -------------------------------------------------------------
                  HL-Gap            0.0527490 Eh            1.4354 eV
             Fermi-level           -0.3615867 Eh           -9.8393 eV

 SCC (total)                   0 d,  0 h,  0 min,  0.042 sec
 SCC setup                      ...        0 min,  0.000 sec (  0.680%)
 Dispersion                     ...        0 min,  0.000 sec (  0.722%)
 classical contributions        ...        0 min,  0.000 sec (  0.130%)
 integral evaluation            ...        0 min,  0.007 sec ( 15.534%)
 iterations                     ...        0 min,  0.021 sec ( 49.278%)
 molecular gradient             ...        0 min,  0.014 sec ( 32.955%)
 printout                       ...        0 min,  0.000 sec (  0.578%)

         :::::::::::::::::::::::::::::::::::::::::::::::::::::
         ::                     SUMMARY                     ::
         :::::::::::::::::::::::::::::::::::::::::::::::::::::
         :: total energy             -48.084700138783 Eh    ::
         :: gradient norm              0.181827921999 Eh/a0 ::
         :: HOMO-LUMO gap              1.435373293423 eV    ::
         ::.................................................::
         :: SCC energy               -48.631958734876 Eh    ::
         :: -> isotropic ES            0.064081396415 Eh    ::
         :: -> anisotropic ES          0.003697430939 Eh    ::
         :: -> anisotropic XC          0.017885606236 Eh    ::
         :: -> dispersion             -0.028163114268 Eh    ::
         :: repulsion energy           0.547491454213 Eh    ::
         :: add. restraining           0.000000000000 Eh    ::
         :: total charge               0.000000000000 e     ::
         :::::::::::::::::::::::::::::::::::::::::::::::::::::

      ----------------------------------------------------------- 
     |                   =====================                   |
     |                        A N C O P T                        |
     |                   =====================                   |
     |               Approximate Normal Coordinate               |
     |                Rational Function Optimizer                |
      ----------------------------------------------------------- 

          ...................................................
          :                      SETUP                      :
          :.................................................:
          :   optimization level            normal          :
          :   max. optcycles                   200          :
          :   ANC micro-cycles                  20          :
          :   degrees of freedom                69          :
          :.................................................:
          :   RF solver                   davidson          :
          :   write xtbopt.log                true          :
          :   linear?                        false          :
          :   energy convergence         0.5000000E-05 Eh   :
          :   grad. convergence          0.1000000E-02 Eh/α :
          :   maximium RF displ.         1.0000000          :
          :   Hlow (freq-cutoff)         0.1000000E-01      :
          :   Hmax (freq-cutoff)         5.0000000          :
          :   S6 in model hess.         20.0000000          :
          ...................................................

generating ANC from model Hessian ...
Using Lindh-Hessian (1995)
 Shifting diagonal of input Hessian by   9.228756600746020E-003
 Lowest  eigenvalues of input Hessian
    0.000000    0.000000    0.000000    0.000000    0.000000    0.000000
    0.010000    0.010731    0.010953    0.013145    0.016991    0.019960
    0.020821    0.021114    0.027130    0.029275    0.033169    0.034928
 Highest eigenvalues
    1.824339    1.881066    1.927227    2.019918    2.083747    2.155032
 

........................................................................
.............................. CYCLE    1 ..............................
........................................................................
   1    -48.6319587 -0.486320E+02  0.131E-04    1.44       0.0  T
   2    -48.6319587 -0.343121E-10  0.801E-05    1.44     249.7  T
   3    -48.6319587 -0.119158E-10  0.684E-05    1.44     292.3  T
     SCC iter.                  ...        0 min,  0.006 sec
     gradient                   ...        0 min,  0.014 sec
 * total energy  :   -48.0847001 Eh     change       -0.9077112E-09 Eh
   gradient norm :     0.1818303 Eh/α   predicted     0.0000000E+00 (-100.00%)
   displ. norm   :     0.3282535 α      lambda       -0.3924708E-01
   maximum displ.:     0.1670241 α      in ANC's #9, #42, #38, ...

........................................................................
.............................. CYCLE    2 ..............................
........................................................................
   1    -48.6789622 -0.486790E+02  0.542E-01    1.58       0.0  T
   2    -48.6795931 -0.630873E-03  0.285E-01    1.57       1.0  T
   3    -48.6795911  0.196850E-05  0.119E-01    1.57       1.0  T
   4    -48.6796464 -0.552470E-04  0.548E-02    1.56       1.0  T
   5    -48.6796648 -0.183598E-04  0.248E-02    1.57       1.0  T
   6    -48.6796681 -0.336970E-05  0.134E-02    1.57       1.5  T
   7    -48.6796711 -0.294525E-05  0.630E-03    1.57       3.2  T
   8    -48.6796717 -0.682853E-06  0.293E-03    1.57       6.8  T
   9    -48.6796718 -0.591051E-07  0.759E-04    1.57      26.3  T
  10    -48.6796718 -0.109301E-08  0.442E-04    1.57      45.2  T
     SCC iter.                  ...        0 min,  0.016 sec
     gradient                   ...        0 min,  0.014 sec
 * total energy  :   -48.1122914 Eh     change       -0.2759123E-01 Eh
   gradient norm :     0.0844384 Eh/α   predicted    -0.2175186E-01 ( -21.16%)
   displ. norm   :     0.3327984 α      lambda       -0.1331187E-01
   maximum displ.:     0.2657036 α      in ANC's #9, #6, #42, ...

........................................................................
.............................. CYCLE    3 ..............................
........................................................................
   1    -48.7049645 -0.487050E+02  0.314E-01    1.72       0.0  T
   2    -48.7051998 -0.235264E-03  0.168E-01    1.69       1.0  T
   3    -48.7051918  0.798538E-05  0.736E-02    1.69       1.0  T
   4    -48.7052265 -0.347135E-04  0.364E-02    1.68       1.0  T
   5    -48.7052375 -0.109825E-04  0.131E-02    1.69       1.5  T
   6    -48.7052393 -0.180494E-05  0.554E-03    1.69       3.6  T
   7    -48.7052394 -0.122634E-06  0.296E-03    1.69       6.8  T
   8    -48.7052395 -0.101080E-06  0.173E-03    1.69      11.6  T
   9    -48.7052396 -0.283121E-07  0.617E-04    1.69      32.4  T
  10    -48.7052396 -0.310462E-08  0.341E-04    1.69      58.7  T
     SCC iter.                  ...        0 min,  0.015 sec
     gradient                   ...        0 min,  0.014 sec
 * total energy  :   -48.1200856 Eh     change       -0.7794185E-02 Eh
   gradient norm :     0.0276883 Eh/α   predicted    -0.7398802E-02 (  -5.07%)
   displ. norm   :     0.2251845 α      lambda       -0.1894063E-02
   maximum displ.:     0.2012610 α      in ANC's #9, #3, #6, ...

........................................................................
.............................. CYCLE    4 ..............................
........................................................................
   1    -48.7094892 -0.487095E+02  0.109E-01    1.74       0.0  T
   2    -48.7095333 -0.441852E-04  0.648E-02    1.73       1.0  T
   3    -48.7095321  0.127503E-05  0.287E-02    1.73       1.0  T
   4    -48.7095334 -0.137166E-05  0.139E-02    1.72       1.4  T
   5    -48.7095364 -0.298032E-05  0.469E-03    1.73       4.3  T
   6    -48.7095367 -0.315025E-06  0.263E-03    1.73       7.6  T
   7    -48.7095368 -0.119089E-06  0.834E-04    1.73      24.0  T
   8    -48.7095369 -0.386422E-08  0.451E-04    1.73      44.3  T
     SCC iter.                  ...        0 min,  0.013 sec
     gradient                   ...        0 min,  0.014 sec
 * total energy  :   -48.1212993 Eh     change       -0.1213713E-02 Eh
   gradient norm :     0.0103643 Eh/α   predicted    -0.9951655E-03 ( -18.01%)
   displ. norm   :     0.1348082 α      lambda       -0.3743642E-03
   maximum displ.:     0.0974635 α      in ANC's #9, #3, #6, ...

........................................................................
.............................. CYCLE    5 ..............................
........................................................................
   1    -48.7111604 -0.487112E+02  0.602E-02    1.74       0.0  T
   2    -48.7111720 -0.116006E-04  0.332E-02    1.74       1.0  T
   3    -48.7111720  0.408291E-07  0.136E-02    1.74       1.5  T
   4    -48.7111722 -0.283743E-06  0.582E-03    1.74       3.4  T
   5    -48.7111726 -0.345302E-06  0.256E-03    1.74       7.8  T
   6    -48.7111726 -0.354048E-07  0.160E-03    1.74      12.5  T
   7    -48.7111727 -0.549163E-07  0.453E-04    1.74      44.2  T
   8    -48.7111727 -0.570807E-09  0.250E-04    1.74      79.9  T
     SCC iter.                  ...        0 min,  0.013 sec
     gradient                   ...        0 min,  0.014 sec
 * total energy  :   -48.1215263 Eh     change       -0.2270314E-03 Eh
   gradient norm :     0.0041246 Eh/α   predicted    -0.1906179E-03 ( -16.04%)
   displ. norm   :     0.0884320 α      lambda       -0.8085911E-04
   maximum displ.:     0.0838151 α      in ANC's #3, #9, #13, ...

........................................................................
.............................. CYCLE    6 ..............................
........................................................................
   1    -48.7115909 -0.487116E+02  0.240E-02    1.74       0.0  T
   2    -48.7115917 -0.760112E-06  0.131E-02    1.74       1.5  T
   3    -48.7115916  0.690082E-07  0.399E-03    1.73       5.0  T
   4    -48.7115917 -0.869656E-07  0.201E-03    1.74       9.9  T
   5    -48.7115917 -0.436591E-07  0.877E-04    1.74      22.8  T
   6    -48.7115917 -0.666423E-08  0.400E-04    1.74      50.0  T
     SCC iter.                  ...        0 min,  0.010 sec
     gradient                   ...        0 min,  0.014 sec
 * total energy  :   -48.1215905 Eh     change       -0.6424637E-04 Eh
   gradient norm :     0.0028241 Eh/α   predicted    -0.4077428E-04 ( -36.53%)
   displ. norm   :     0.0785590 α      lambda       -0.5727310E-04
   maximum displ.:     0.0772637 α      in ANC's #3, #6, #40, ...

........................................................................
.............................. CYCLE    7 ..............................
........................................................................
   1    -48.7116544 -0.487117E+02  0.195E-02    1.73       0.0  T
   2    -48.7116545 -0.148553E-06  0.114E-02    1.73       1.8  T
   3    -48.7116542  0.352835E-06  0.449E-03    1.73       4.5  T
   4    -48.7116546 -0.372854E-06  0.188E-03    1.73      10.7  T
   5    -48.7116546 -0.336667E-07  0.901E-04    1.73      22.2  T
   6    -48.7116546 -0.145762E-07  0.302E-04    1.73      66.2  T
     SCC iter.                  ...        0 min,  0.010 sec
     gradient                   ...        0 min,  0.014 sec
 * total energy  :   -48.1216395 Eh     change       -0.4894584E-04 Eh
   gradient norm :     0.0020905 Eh/α   predicted    -0.2883549E-04 ( -41.09%)
   displ. norm   :     0.0701943 α      lambda       -0.4147592E-04
   maximum displ.:     0.0689025 α      in ANC's #3, #6, #9, ...

........................................................................
.............................. CYCLE    8 ..............................
........................................................................
   1    -48.7116076 -0.487116E+02  0.158E-02    1.73       0.0  T
   2    -48.7116079 -0.274381E-06  0.923E-03    1.73       2.2  T
   3    -48.7116076  0.267082E-06  0.431E-03    1.73       4.6  T
   4    -48.7116079 -0.238468E-06  0.224E-03    1.73       8.9  T
   5    -48.7116080 -0.955924E-07  0.719E-04    1.73      27.8  T
   6    -48.7116080 -0.520442E-08  0.318E-04    1.73      62.9  T
     SCC iter.                  ...        0 min,  0.010 sec
     gradient                   ...        0 min,  0.014 sec
 * total energy  :   -48.1216765 Eh     change       -0.3699131E-04 Eh
   gradient norm :     0.0019703 Eh/α   predicted    -0.2085879E-04 ( -43.61%)
   displ. norm   :     0.0893815 α      lambda       -0.3105013E-04
   maximum displ.:     0.0879774 α      in ANC's #3, #6, #9, ...

........................................................................
.............................. CYCLE    9 ..............................
........................................................................
   1    -48.7115210 -0.487115E+02  0.185E-02    1.73       0.0  T
   2    -48.7115216 -0.585142E-06  0.106E-02    1.73       1.9  T
   3    -48.7115213  0.329471E-06  0.535E-03    1.73       3.7  T
   4    -48.7115216 -0.286253E-06  0.284E-03    1.73       7.0  T
   5    -48.7115218 -0.164636E-06  0.841E-04    1.73      23.8  T
   6    -48.7115218 -0.675951E-08  0.398E-04    1.73      50.3  T
     SCC iter.                  ...        0 min,  0.010 sec
     gradient                   ...        0 min,  0.014 sec
 * total energy  :   -48.1217177 Eh     change       -0.4120426E-04 Eh
   gradient norm :     0.0018662 Eh/α   predicted    -0.1560333E-04 ( -62.13%)
   displ. norm   :     0.0709384 α      lambda       -0.2212822E-04
   maximum displ.:     0.0705970 α      in ANC's #3, #6, #17, ...

........................................................................
.............................. CYCLE   10 ..............................
........................................................................
   1    -48.7115679 -0.487116E+02  0.141E-02    1.73       0.0  T
   2    -48.7115681 -0.166695E-06  0.781E-03    1.73       2.6  T
   3    -48.7115680  0.112403E-06  0.313E-03    1.73       6.4  T
   4    -48.7115681 -0.110448E-06  0.154E-03    1.73      13.0  T
   5    -48.7115681 -0.360680E-07  0.639E-04    1.73      31.3  T
   6    -48.7115681 -0.551281E-08  0.256E-04    1.73      78.3  T
     SCC iter.                  ...        0 min,  0.010 sec
     gradient                   ...        0 min,  0.014 sec
 * total energy  :   -48.1217480 Eh     change       -0.3028125E-04 Eh
   gradient norm :     0.0013045 Eh/α   predicted    -0.1111376E-04 ( -63.30%)
   displ. norm   :     0.0642868 α      lambda       -0.1824436E-04
   maximum displ.:     0.0638942 α      in ANC's #3, #17, #9, ...

........................................................................
.............................. CYCLE   11 ..............................
........................................................................
   1    -48.7116893 -0.487117E+02  0.138E-02    1.73       0.0  T
   2    -48.7116894 -0.628079E-07  0.776E-03    1.73       2.6  T
   3    -48.7116894  0.453540E-07  0.230E-03    1.73       8.7  T
   4    -48.7116894 -0.498011E-07  0.105E-03    1.73      19.1  T
   5    -48.7116894 -0.998116E-08  0.509E-04    1.73      39.3  T
   6    -48.7116894 -0.525786E-08  0.208E-04    1.73      96.1  T
     SCC iter.                  ...        0 min,  0.010 sec
     gradient                   ...        0 min,  0.014 sec
 * total energy  :   -48.1217711 Eh     change       -0.2317040E-04 Eh
   gradient norm :     0.0009537 Eh/α   predicted    -0.9148220E-05 ( -60.52%)
   displ. norm   :     0.0568946 α      lambda       -0.1475612E-04
   maximum displ.:     0.0564210 α      in ANC's #3, #6, #17, ...

........................................................................
.............................. CYCLE   12 ..............................
........................................................................
   1    -48.7118149 -0.487118E+02  0.123E-02    1.73       0.0  T
   2    -48.7118149 -0.298415E-07  0.703E-03    1.73       2.8  T
   3    -48.7118147  0.228900E-06  0.349E-03    1.73       5.7  T
   4    -48.7118149 -0.251164E-06  0.967E-04    1.73      20.7  T
   5    -48.7118150 -0.614514E-08  0.444E-04    1.73      45.0  T
     SCC iter.                  ...        0 min,  0.008 sec
     gradient                   ...        0 min,  0.014 sec
 * total energy  :   -48.1217896 Eh     change       -0.1843821E-04 Eh
   gradient norm :     0.0007677 Eh/α   predicted    -0.7390795E-05 ( -59.92%)
   displ. norm   :     0.0461893 α      lambda       -0.9025629E-05
   maximum displ.:     0.0461039 α      in ANC's #3, #17, #9, ...

........................................................................
.............................. CYCLE   13 ..............................
........................................................................
   1    -48.7118528 -0.487119E+02  0.827E-03    1.73       0.0  T
   2    -48.7118528 -0.130464E-07  0.483E-03    1.73       4.1  T
   3    -48.7118526  0.168518E-06  0.293E-03    1.73       6.8  T
   4    -48.7118528 -0.189281E-06  0.656E-04    1.73      30.5  T
   5    -48.7118528 -0.631843E-09  0.348E-04    1.73      57.5  T
     SCC iter.                  ...        0 min,  0.008 sec
     gradient                   ...        0 min,  0.014 sec
 * total energy  :   -48.1218022 Eh     change       -0.1265221E-04 Eh
   gradient norm :     0.0007391 Eh/α   predicted    -0.4518023E-05 ( -64.29%)
   displ. norm   :     0.0402683 α      lambda       -0.7205500E-05
   maximum displ.:     0.0401880 α      in ANC's #3, #9, #17, ...

........................................................................
.............................. CYCLE   14 ..............................
........................................................................
   1    -48.7118871 -0.487119E+02  0.741E-03    1.73       0.0  T
   2    -48.7118872 -0.216924E-07  0.433E-03    1.73       4.6  T
   3    -48.7118871  0.613968E-07  0.196E-03    1.73      10.2  T
   4    -48.7118872 -0.667939E-07  0.626E-04    1.73      32.0  T
   5    -48.7118872 -0.331552E-08  0.333E-04    1.73      60.0  T
     SCC iter.                  ...        0 min,  0.008 sec
     gradient                   ...        0 min,  0.014 sec
 * total energy  :   -48.1218124 Eh     change       -0.1012962E-04 Eh
   gradient norm :     0.0004885 Eh/α   predicted    -0.3608873E-05 ( -64.37%)
   displ. norm   :     0.0367359 α      lambda       -0.5752986E-05
   maximum displ.:     0.0366148 α      in ANC's #3, #6, #9, ...

........................................................................
.............................. CYCLE   15 ..............................
........................................................................
   1    -48.7118895 -0.487119E+02  0.684E-03    1.73       0.0  T
   2    -48.7118895 -0.281167E-07  0.397E-03    1.73       5.0  T
   3    -48.7118895  0.152334E-07  0.132E-03    1.73      15.1  T
   4    -48.7118895 -0.201296E-07  0.501E-04    1.73      39.9  T
   5    -48.7118895 -0.119083E-08  0.254E-04    1.73      78.9  T
     SCC iter.                  ...        0 min,  0.008 sec
     gradient                   ...        0 min,  0.014 sec
 * total energy  :   -48.1218204 Eh     change       -0.8056571E-05 Eh
   gradient norm :     0.0002893 Eh/α   predicted    -0.2879593E-05 ( -64.26%)
   displ. norm   :     0.0329687 α      lambda       -0.4472494E-05
   maximum displ.:     0.0328350 α      in ANC's #3, #6, #9, ...

........................................................................
.............................. CYCLE   16 ..............................
........................................................................
   1    -48.7119164 -0.487119E+02  0.611E-03    1.73       0.0  T
   2    -48.7119164 -0.237146E-07  0.350E-03    1.73       5.7  T
   3    -48.7119164  0.270952E-07  0.138E-03    1.73      14.5  T
   4    -48.7119164 -0.285649E-07  0.630E-04    1.73      31.8  T
   5    -48.7119164 -0.481650E-08  0.302E-04    1.73      66.2  T
     SCC iter.                  ...        0 min,  0.008 sec
     gradient                   ...        0 min,  0.014 sec
 * total energy  :   -48.1218267 Eh     change       -0.6267641E-05 Eh
   gradient norm :     0.0002412 Eh/α   predicted    -0.2238544E-05 ( -64.28%)
   displ. norm   :     0.0291100 α      lambda       -0.3481458E-05
   maximum displ.:     0.0289802 α      in ANC's #3, #6, #9, ...

........................................................................
.............................. CYCLE   17 ..............................
........................................................................
   1    -48.7119268 -0.487119E+02  0.539E-03    1.73       0.0  T
   2    -48.7119268 -0.159316E-07  0.307E-03    1.73       6.5  T
   3    -48.7119268  0.176265E-07  0.118E-03    1.73      17.0  T
   4    -48.7119268 -0.202421E-07  0.488E-04    1.73      41.0  T
   5    -48.7119268 -0.195714E-08  0.252E-04    1.73      79.3  T
     SCC iter.                  ...        0 min,  0.009 sec
     gradient                   ...        0 min,  0.014 sec
 * total energy  :   -48.1218315 Eh     change       -0.4827294E-05 Eh
   gradient norm :     0.0002572 Eh/α   predicted    -0.1742772E-05 ( -63.90%)
   displ. norm   :     0.0257796 α      lambda       -0.2804029E-05
   maximum displ.:     0.0256577 α      in ANC's #3, #6, #9, ...

   *** GEOMETRY OPTIMIZATION CONVERGED AFTER 17 ITERATIONS ***

------------------------------------------------------------------------
 total energy gain   :        -0.0371314 Eh      -23.3003 kcal/mol
 total RMSD          :         0.2555261 a0        0.1352 Å
 total power (kW/mol):        -5.7346116 (step) -188.7503 (real)
------------------------------------------------------------------------

 ANCopt (total)                0 d,  0 h,  0 min,  0.517 sec
 optimizer setup                ...        0 min,  0.000 sec (  0.039%)
 model hessian                  ...        0 min,  0.002 sec (  0.482%)
 ANC generation                 ...        0 min,  0.001 sec (  0.135%)
 coordinate transformation      ...        0 min,  0.000 sec (  0.056%)
 single point calculation       ...        0 min,  0.508 sec ( 98.276%)
 optimization log               ...        0 min,  0.002 sec (  0.461%)
 hessian update                 ...        0 min,  0.000 sec (  0.054%)
 rational function              ...        0 min,  0.001 sec (  0.274%)

================
 final structure:
================

  xtb     01172214263D
 xtb: 6.4.1 (unknown)
 25 27  0     0  0            999 V2000
   -2.4372   -3.6359    3.3895 C   0  0  0  0  0  0  0  0  0  0  0  0
   -1.1574   -3.7618    2.5863 C   0  0  0  0  0  0  0  0  0  0  0  0
   -0.8170   -2.4740    2.0712 O   0  0  0  0  0  0  0  0  0  0  0  0
    0.2939   -2.4086    1.3342 C   0  0  0  0  0  0  0  0  0  0  0  0
    1.0045   -3.3529    1.0877 O   0  0  0  0  0  0  0  0  0  0  0  0
    0.5471   -1.0445    0.8585 C   0  0  0  0  0  0  0  0  0  0  0  0
    1.5936   -0.6508    0.0885 C   0  0  0  0  0  0  0  0  0  0  0  0
    1.5741    0.7396   -0.2160 C   0  0  0  0  0  0  0  0  0  0  0  0
    2.4836    1.4557   -0.9706 C   0  0  0  0  0  0  0  0  0  0  0  0
    2.2535    2.8221   -1.1327 C   0  0  0  0  0  0  0  0  0  0  0  0
    3.0015    3.6955   -1.8184 N   0  0  0  0  0  0  0  0  0  0  0  0
    2.3289    5.1440   -1.7110 S   0  0  0  0  0  0  0  0  0  0  0  0
    1.0617    4.7699   -0.8025 N   0  0  0  0  0  0  0  0  0  0  0  0
    1.1019    3.4617   -0.5300 C   0  0  0  0  0  0  0  0  0  0  0  0
    0.1866    2.7274    0.2325 C   0  0  0  0  0  0  0  0  0  0  0  0
    0.4388    1.3866    0.3745 C   0  0  0  0  0  0  0  0  0  0  0  0
   -0.5432    0.2550    1.2708 S   0  0  0  0  0  0  0  0  0  0  0  0
   -3.2417   -3.2700    2.7575 H   0  0  0  0  0  0  0  0  0  0  0  0
   -2.2969   -2.9385    4.2108 H   0  0  0  0  0  0  0  0  0  0  0  0
   -2.7118   -4.6076    3.7896 H   0  0  0  0  0  0  0  0  0  0  0  0
   -1.2774   -4.4551    1.7460 H   0  0  0  0  0  0  0  0  0  0  0  0
   -0.3283   -4.1221    3.2060 H   0  0  0  0  0  0  0  0  0  0  0  0
    2.3537   -1.3311   -0.2506 H   0  0  0  0  0  0  0  0  0  0  0  0
    3.3415    0.9843   -1.4208 H   0  0  0  0  0  0  0  0  0  0  0  0
   -0.6683    3.2067    0.6788 H   0  0  0  0  0  0  0  0  0  0  0  0
  1  2  1  0  0  0  0
  2  3  1  0  0  0  0
  3  4  1  0  0  0  0
  4  5  2  0  0  0  0
  4  6  1  0  0  0  0
  6  7  2  0  0  0  0
  7  8  1  0  0  0  0
  8  9  2  0  0  0  0
  9 10  1  0  0  0  0
 10 11  2  0  0  0  0
 11 12  1  0  0  0  0
 12 13  1  0  0  0  0
 13 14  2  0  0  0  0
 14 15  1  0  0  0  0
 15 16  2  0  0  0  0
 16 17  1  0  0  0  0
 17  6  1  0  0  0  0
 16  8  1  0  0  0  0
 14 10  1  0  0  0  0
  1 18  1  0  0  0  0
  1 19  1  0  0  0  0
  1 20  1  0  0  0  0
  2 21  1  0  0  0  0
  2 22  1  0  0  0  0
  7 23  1  0  0  0  0
  9 24  1  0  0  0  0
 15 25  1  0  0  0  0
M  END
 
 Bond Distances (Angstroems)
 ---------------------------
C1-C2=1.5162         C1-H18=1.0865        C1-H19=1.0865        C1-H20=1.0861        C2-C1=1.5162         C2-O3=1.4282         
C2-H21=1.0960        C2-H22=1.0960        O3-C2=1.4282         O3-C4=1.3348         C4-O3=1.3348         C4-O5=1.2072         
C4-C6=1.4666         O5-C4=1.2072         C6-C4=1.4666         C6-C7=1.3576         C6-S17=1.7457        C7-C6=1.3576         
C7-C8=1.4235         C7-H23=1.0750        C8-C7=1.4235         C8-C9=1.3817         C8-C16=1.4340        C9-C8=1.3817         
C9-C10=1.3951        C9-H24=1.0775        C10-C9=1.3951        C10-N11=1.3389       C10-C14=1.4487       N11-C10=1.3389       
N11-S12=1.6007       S12-N11=1.6007       S12-N13=1.6035       N13-S12=1.6035       N13-C14=1.3368       C14-C10=1.4487       
C14-N13=1.3368       C14-C15=1.3994       C15-C14=1.3994       C15-C16=1.3716       C15-H25=1.0769       C16-C8=1.4340        
C16-C15=1.3716       C16-S17=1.7459       S17-C6=1.7457        S17-C16=1.7459       H18-C1=1.0865        H19-C1=1.0865        
H20-C1=1.0861        H21-C2=1.0960        H22-C2=1.0960        H23-C7=1.0750        H24-C9=1.0775        H25-C15=1.0769       
 C  H  Rav=1.0851 sigma=0.0077  Rmin=1.0750  Rmax=1.0960     8
 C  C  Rav=1.4194 sigma=0.0460  Rmin=1.3576  Rmax=1.5162    10
 N  C  Rav=1.3378 sigma=0.0010  Rmin=1.3368  Rmax=1.3389     2
 O  C  Rav=1.3234 sigma=0.0906  Rmin=1.2072  Rmax=1.4282     3
 S  C  Rav=1.7458 sigma=0.0001  Rmin=1.7457  Rmax=1.7459     2
 S  N  Rav=1.6021 sigma=0.0014  Rmin=1.6007  Rmax=1.6035     2
 
 selected bond angles (degree)
 --------------------
H18-C1-C2=110.17               H19-C1-C2=110.16               H19-C1-H18=108.61              H20-C1-C2=109.53               
H20-C1-H18=109.17              H20-C1-H19=109.17              O3-C2-C1=108.50                H21-C2-C1=111.49               
H21-C2-O3=108.66               H22-C2-C1=111.49               H22-C2-O3=108.66               H22-C2-H21=107.96              
C4-O3-C2=116.21                O5-C4-O3=124.35                C6-C4-O3=111.61                C6-C4-O5=124.03                
C7-C6-C4=125.93                S17-C6-C4=120.53               S17-C6-C7=113.55               C8-C7-C6=113.21                
H23-C7-C6=122.71               H23-C7-C8=124.08               C9-C8-C7=127.88                C16-C8-C7=111.31               
C16-C8-C9=120.81               C10-C9-C8=117.55               H24-C9-C8=121.71               H24-C9-C10=120.75              
N11-C10-C9=127.32              C14-C10-C9=121.01              C14-C10-N11=111.66             
 
 selected dihedral angles (degree)
 ---------------------------------
O3-C2-C1-H18= 59.90           O3-C2-C1-H19=300.10           O3-C2-C1-H20=180.00           H21-C2-C1-H18=300.27          
H21-C2-C1-H19=180.47          H21-C2-C1-H20= 60.37          H22-C2-C1-H18=179.54          H22-C2-C1-H19= 59.73          
H22-C2-C1-H20=299.63          C4-O3-C2-C1=180.00            C4-O3-C2-H21=301.38           C4-O3-C2-H22= 58.62           
O5-C4-O3-C2=  0.00            C6-C4-O3-C2=180.00            C7-C6-C4-O3=180.00            C7-C6-C4-O5=  0.00            
S17-C6-C4-O3=  0.00           S17-C6-C4-O5=180.00           C8-C7-C6-C4=180.00            C8-C7-C6-S17=  0.00           
H23-C7-C6-C4=  0.00           H23-C7-C6-S17=180.00          C9-C8-C7-C6=180.00            C9-C8-C7-H23=  0.00           
C16-C8-C7-C6=  0.00           C16-C8-C7-H23=180.00          C10-C9-C8-C7=180.00           C10-C9-C8-C16=  0.00          
H24-C9-C8-C7=  0.00           H24-C9-C8-C16=180.00          N11-C10-C9-C8=180.01          N11-C10-C9-H24=  0.00         
C14-C10-C9-C8=  0.00          C14-C10-C9-H24=180.00         
           -------------------------------------------------
          |                Final Singlepoint                |
           -------------------------------------------------

          ...................................................
          :                      SETUP                      :
          :.................................................:
          :  # basis functions                  88          :
          :  # atomic orbitals                  86          :
          :  # shells                           44          :
          :  # electrons                        86          :
          :  max. iterations                   250          :
          :  Hamiltonian                  GFN2-xTB          :
          :  restarted?                      false          :
          :  GBSA solvation                  false          :
          :  PC potential                    false          :
          :  electronic temp.          300.0000000     K    :
          :  accuracy                    1.0000000          :
          :  -> integral cutoff          0.2500000E+02      :
          :  -> integral neglect         0.1000000E-07      :
          :  -> SCF convergence          0.1000000E-05 Eh   :
          :  -> wf. convergence          0.1000000E-03 e    :
          :  Broyden damping             0.4000000          :
          ...................................................

 iter      E             dE          RMSdq      gap      omega  full diag
   1    -48.7119268 -0.487119E+02  0.994E-05    1.73       0.0  T
   2    -48.7119268  0.232134E-10  0.939E-05    1.73     213.1  T
   3    -48.7119268 -0.163617E-09  0.426E-05    1.73     469.9  T

   *** convergence criteria satisfied after 3 iterations ***

         #    Occupation            Energy/Eh            Energy/eV
      -------------------------------------------------------------
         1        2.0000           -0.7706730             -20.9711
       ...           ...                  ...                  ...
        37        2.0000           -0.4439157             -12.0796
        38        2.0000           -0.4322426             -11.7619
        39        2.0000           -0.4255974             -11.5811
        40        2.0000           -0.4210274             -11.4567
        41        2.0000           -0.4175911             -11.3632
        42        2.0000           -0.4148106             -11.2876
        43        2.0000           -0.3848880             -10.4733 (HOMO)
        44                         -0.3212576              -8.7419 (LUMO)
        45                         -0.2839159              -7.7257
        46                         -0.2314458              -6.2980
        47                         -0.2233561              -6.0778
        48                         -0.2176556              -5.9227
       ...                                ...                  ...
        86                          0.7320697              19.9206
      -------------------------------------------------------------
                  HL-Gap            0.0636304 Eh            1.7315 eV
             Fermi-level           -0.3530728 Eh           -9.6076 eV

 SCC (total)                   0 d,  0 h,  0 min,  0.025 sec
 SCC setup                      ...        0 min,  0.000 sec (  0.559%)
 Dispersion                     ...        0 min,  0.000 sec (  0.438%)
 classical contributions        ...        0 min,  0.000 sec (  0.126%)
 integral evaluation            ...        0 min,  0.005 sec ( 20.101%)
 iterations                     ...        0 min,  0.006 sec ( 22.089%)
 molecular gradient             ...        0 min,  0.014 sec ( 55.661%)
 printout                       ...        0 min,  0.000 sec (  0.859%)

         :::::::::::::::::::::::::::::::::::::::::::::::::::::
         ::                     SUMMARY                     ::
         :::::::::::::::::::::::::::::::::::::::::::::::::::::
         :: total energy             -48.121831509163 Eh    ::
         :: gradient norm              0.000257236150 Eh/a0 ::
         :: HOMO-LUMO gap              1.731470449228 eV    ::
         ::.................................................::
         :: SCC energy               -48.711926820432 Eh    ::
         :: -> isotropic ES            0.062652494397 Eh    ::
         :: -> anisotropic ES          0.002805022098 Eh    ::
         :: -> anisotropic XC          0.018616012297 Eh    ::
         :: -> dispersion             -0.028843173266 Eh    ::
         :: repulsion energy           0.590334123749 Eh    ::
         :: add. restraining           0.000000000000 Eh    ::
         :: total charge               0.000000000000 e     ::
         :::::::::::::::::::::::::::::::::::::::::::::::::::::

           -------------------------------------------------
          |                Property Printout                |
           -------------------------------------------------

    * Orbital Energies and Occupations

         #    Occupation            Energy/Eh            Energy/eV
      -------------------------------------------------------------
         1        2.0000           -0.7706730             -20.9711
       ...           ...                  ...                  ...
        31        2.0000           -0.4789179             -13.0320
        32        2.0000           -0.4739807             -12.8977
        33        2.0000           -0.4731582             -12.8753
        34        2.0000           -0.4689061             -12.7596
        35        2.0000           -0.4637645             -12.6197
        36        2.0000           -0.4578200             -12.4579
        37        2.0000           -0.4439157             -12.0796
        38        2.0000           -0.4322426             -11.7619
        39        2.0000           -0.4255974             -11.5811
        40        2.0000           -0.4210274             -11.4567
        41        2.0000           -0.4175911             -11.3632
        42        2.0000           -0.4148106             -11.2876
        43        2.0000           -0.3848880             -10.4733 (HOMO)
        44                         -0.3212576              -8.7419 (LUMO)
        45                         -0.2839159              -7.7257
        46                         -0.2314458              -6.2980
        47                         -0.2233561              -6.0778
        48                         -0.2176556              -5.9227
        49                         -0.2168172              -5.8999
        50                         -0.1738609              -4.7310
        51                         -0.1451341              -3.9493
        52                         -0.1346612              -3.6643
        53                         -0.1134045              -3.0859
        54                         -0.0223776              -0.6089
       ...                                ...                  ...
        86                          0.7320697              19.9206
      -------------------------------------------------------------
                  HL-Gap            0.0636304 Eh            1.7315 eV
             Fermi-level           -0.3530728 Eh           -9.6076 eV

     #   Z          covCN         q      C6AA      α(0)
     1   6 C        3.751    -0.116    22.789     6.808
     2   6 C        3.704     0.086    19.298     6.281
     3   8 O        1.706    -0.259    18.295     5.775
     4   6 C        2.749     0.354    20.998     7.503
     5   8 O        0.857    -0.416    21.996     6.288
     6   6 C        2.984    -0.002    28.078     8.692
     7   6 C        3.053    -0.035    28.812     8.803
     8   6 C        3.120     0.008    27.656     8.613
     9   6 C        2.906    -0.043    29.068     8.840
    10   6 C        3.349     0.071    23.802     7.690
    11   7 N        1.851    -0.267    27.783     7.812
    12  16 S        2.686     0.367   126.973    18.965
    13   7 N        1.851    -0.268    27.821     7.817
    14   6 C        3.355     0.075    23.615     7.644
    15   6 C        2.930    -0.050    29.254     8.870
    16   6 C        3.003     0.034    27.224     8.559
    17  16 S        2.243    -0.015   141.691    20.034
    18   1 H        0.925     0.060     2.194     2.316
    19   1 H        0.925     0.060     2.194     2.316
    20   1 H        0.925     0.054     2.265     2.354
    21   1 H        0.924     0.053     2.283     2.363
    22   1 H        0.924     0.053     2.283     2.363
    23   1 H        0.926     0.071     2.071     2.250
    24   1 H        0.926     0.062     2.181     2.309
    25   1 H        0.926     0.063     2.169     2.303

 Mol. C6AA /au·bohr⁶  :      12040.859339
 Mol. C8AA /au·bohr⁸  :     348117.901476
 Mol. α(0) /au        :        173.570439


Wiberg/Mayer (AO) data.
largest (>0.10) Wiberg bond orders for each atom

 ---------------------------------------------------------------------------
     #   Z sym  total        # sym  WBO       # sym  WBO       # sym  WBO
 ---------------------------------------------------------------------------
     1   6 C    3.990 --     2 C    1.020    19 H    0.985    18 H    0.985
                            20 H    0.983
     2   6 C    3.924 --     1 C    1.020    21 H    0.968    22 H    0.968
                             3 O    0.934
     3   8 O    2.312 --     4 C    1.130     2 C    0.934     5 O    0.173
     4   6 C    3.926 --     5 O    1.705     3 O    1.130     6 C    1.028
     5   8 O    2.016 --     4 C    1.705     3 O    0.173
     6   6 C    3.933 --     7 C    1.606    17 S    1.101     4 C    1.028
     7   6 C    3.984 --     6 C    1.606     8 C    1.199    23 H    0.958
                            17 S    0.110
     8   6 C    3.988 --     9 C    1.426     7 C    1.199    16 C    1.185
     9   6 C    3.978 --     8 C    1.426    10 C    1.305    24 H    0.963
                            15 C    0.121
    10   6 C    3.976 --    11 N    1.349     9 C    1.305    14 C    1.138
    11   7 N    3.072 --    12 S    1.460    10 C    1.349    13 N    0.176
    12  16 S    3.217 --    11 N    1.460    13 N    1.448
    13   7 N    3.084 --    12 S    1.448    14 C    1.360    11 N    0.176
    14   6 C    3.972 --    13 N    1.360    15 C    1.281    10 C    1.138
    15   6 C    3.988 --    16 C    1.490    14 C    1.281    25 H    0.964
                             9 C    0.121
    16   6 C    3.962 --    15 C    1.490     8 C    1.185    17 S    1.108
    17  16 S    2.536 --    16 C    1.108     6 C    1.101     7 C    0.110
    18   1 H    0.996 --     1 C    0.985
    19   1 H    0.996 --     1 C    0.985
    20   1 H    0.996 --     1 C    0.983
    21   1 H    0.997 --     2 C    0.968
    22   1 H    0.997 --     2 C    0.968
    23   1 H    0.995 --     7 C    0.958
    24   1 H    0.996 --     9 C    0.963
    25   1 H    0.996 --    15 C    0.964
 ---------------------------------------------------------------------------

Topologies differ in bond orders
Writing corrected topology to xtbtopo.mol

molecular dipole:
                 x           y           z       tot (Debye)
 q only:       -0.522       0.622       0.198
   full:       -0.443       0.239       0.234       1.412
molecular quadrupole (traceless):
                xx          xy          yy          xz          yz          zz
 q only:       -2.595      14.066       1.539      -6.903      -9.150       1.056
  q+dip:       -1.586      11.704      -1.676      -3.773      -6.873       3.262
   full:       -2.086      12.661      -2.658      -1.861      -6.638       4.743

           -------------------------------------------------
          |                Geometry Summary                 |
           -------------------------------------------------

      molecular mass/u    :      264.3234120
   center of mass at/Å    :        0.7374239       0.7373856       0.3283501
  moments of inertia/u·Å² :        0.3161711E+03   0.3226592E+04   0.3536456E+04
rotational constants/cm⁻¹ :        0.5331806E-01   0.5224594E-02   0.4766816E-02

 * 26 selected distances

     #   Z          #   Z                                           value/Å
     1   6 C        2   6 C                                       1.5162101
     2   6 C        3   8 O                                       1.4281778
     3   8 O        4   6 C                                       1.3348376
     4   6 C        5   8 O                                       1.2072478
     6   6 C        7   6 C                                       1.3575543
     7   6 C        8   6 C                                       1.4235412
     8   6 C        9   6 C                                       1.3817286
     9   6 C       10   6 C                                       1.3950935
    10   6 C       11   7 N                                       1.3388568
    11   7 N       12  16 S                                       1.6006537
    12  16 S       13   7 N                                       1.6034893
    10   6 C       14   6 C                                       1.4486671
    13   7 N       14   6 C                                       1.3368081
    14   6 C       15   6 C                                       1.3994460
     8   6 C       16   6 C                                       1.4339807
    15   6 C       16   6 C                                       1.3716400
     6   6 C       17  16 S                                       1.7457079
    16   6 C       17  16 S                                       1.7458846 (max)
     1   6 C       18   1 H                                       1.0865135
     1   6 C       19   1 H                                       1.0865193
     1   6 C       20   1 H                                       1.0860914
     2   6 C       21   1 H                                       1.0960117
     2   6 C       22   1 H                                       1.0960159
     7   6 C       23   1 H                                       1.0749965 (min)
     9   6 C       24   1 H                                       1.0774948
    15   6 C       25   1 H                                       1.0769055

 * 6 distinct bonds (by element types)

   Z      Z             #   av. dist./Å        max./Å        min./Å
   1 H    6 C           8     1.0850686     1.0960159     1.0749965
   6 C    6 C           9     1.4142068     1.5162101     1.3575543
   6 C    7 N           2     1.3378324     1.3388568     1.3368081
   6 C    8 O           3     1.3234211     1.4281778     1.2072478
   6 C   16 S           2     1.7457963     1.7458846     1.7457079
   7 N   16 S           2     1.6020715     1.6034893     1.6006537


optimized geometry written to: xtbopt.mol


           -------------------------------------------------
          | TOTAL ENERGY              -48.121831509163 Eh   |
          | GRADIENT NORM               0.000257236150 Eh/α |
          | HOMO-LUMO GAP               1.731470449228 eV   |
           -------------------------------------------------

------------------------------------------------------------------------
 * finished run on 2022/01/17 at 14:26:40.324     
------------------------------------------------------------------------
 total:
 * wall-time:     0 d,  0 h,  0 min,  0.601 sec
 *  cpu-time:     0 d,  0 h,  0 min,  0.601 sec
 * ratio c/w:     1.000 speedup
 SCF:
 * wall-time:     0 d,  0 h,  0 min,  0.043 sec
 *  cpu-time:     0 d,  0 h,  0 min,  0.043 sec
 * ratio c/w:     1.000 speedup
 ANC optimizer:
 * wall-time:     0 d,  0 h,  0 min,  0.543 sec
 *  cpu-time:     0 d,  0 h,  0 min,  0.543 sec
 * ratio c/w:     1.000 speedup

