      -----------------------------------------------------------      
     |                   =====================                   |     
     |                           x T B                           |     
     |                   =====================                   |     
     |                         S. Grimme                         |     
     |          Mulliken Center for Theoretical Chemistry        |     
     |                    University of Bonn                     |     
      -----------------------------------------------------------      

   * xtb version 6.4.1 (unknown) compiled by 'oda6@login1.crc.pitt.edu' on 2021-06-25

   xtb is free software: you can redistribute it and/or modify it under
   the terms of the GNU Lesser General Public License as published by
   the Free Software Foundation, either version 3 of the License, or
   (at your option) any later version.
   
   xtb is distributed in the hope that it will be useful,
   but WITHOUT ANY WARRANTY; without even the implied warranty of
   MERCHANTABILITY or FITNESS FOR A PARTICULAR PURPOSE.  See the
   GNU Lesser General Public License for more details.
   
   Cite this work as:
   * C. Bannwarth, E. Caldeweyher, S. Ehlert, A. Hansen, P. Pracht,
     J. Seibert, S. Spicher, S. Grimme, WIREs Comput. Mol. Sci., 2020, 11,
     e01493. DOI: 10.1002/wcms.1493
   
   for GFN2-xTB:
   * C. Bannwarth, S. Ehlert and S. Grimme., J. Chem. Theory Comput., 2019,
     15, 1652-1671. DOI: 10.1021/acs.jctc.8b01176
   for GFN1-xTB:
   * S. Grimme, C. Bannwarth, P. Shushkov, J. Chem. Theory Comput., 2017,
     13, 1989-2009. DOI: 10.1021/acs.jctc.7b00118
   for GFN0-xTB:
   * P. Pracht, E. Caldeweyher, S. Ehlert, S. Grimme, ChemRxiv, 2019, preprint.
     DOI: 10.26434/chemrxiv.8326202.v1
   for GFN-FF:
   * S. Spicher and S. Grimme, Angew. Chem. Int. Ed., 2020, 59, 15665-15673.
     DOI: 10.1002/anie.202004239
   
   for DFT-D4:
   * E. Caldeweyher, C. Bannwarth and S. Grimme, J. Chem. Phys., 2017,
     147, 034112. DOI: 10.1063/1.4993215
   * E. Caldeweyher, S. Ehlert, A. Hansen, H. Neugebauer, S. Spicher,
     C. Bannwarth and S. Grimme, J. Chem. Phys., 2019, 150, 154122.
     DOI: 10.1063/1.5090222
   * E. Caldeweyher, J.-M. Mewes, S. Ehlert and S. Grimme, Phys. Chem. Chem. Phys.
     2020, 22, 8499-8512. DOI: 10.1039/D0CP00502A
   
   for sTDA-xTB:
   * S. Grimme and C. Bannwarth, J. Chem. Phys., 2016, 145, 054103.
     DOI: 10.1063/1.4959605
   
   in the mass-spec context:
   * V. Asgeirsson, C. Bauer and S. Grimme, Chem. Sci., 2017, 8, 4879.
     DOI: 10.1039/c7sc00601b
   * J. Koopman and S. Grimme, ACS Omega 2019, 4, 12, 15120-15133.
     DOI: 10.1021/acsomega.9b02011
   
   for metadynamics refer to:
   * S. Grimme, J. Chem. Theory Comput., 2019, 155, 2847-2862
     DOI: 10.1021/acs.jctc.9b00143
   
   for SPH calculations refer to:
   * S. Spicher and S. Grimme, J. Chem. Theory Comput., 2021, 17, 1701-1714
     DOI: 10.1021/acs.jctc.0c01306
   
   with help from (in alphabetical order)
   P. Atkinson, C. Bannwarth, F. Bohle, G. Brandenburg, E. Caldeweyher
   M. Checinski, S. Dohm, S. Ehlert, S. Ehrlich, I. Gerasimov, J. Koopman
   C. Lavigne, S. Lehtola, F. März, M. Müller, F. Musil, H. Neugebauer
   J. Pisarek, C. Plett, P. Pracht, J. Seibert, P. Shushkov, S. Spicher
   M. Stahn, M. Steiner, T. Strunk, J. Stückrath, T. Rose, and J. Unsleber
   
 * started run on 2022/01/17 at 14:31:02.778     

           -------------------------------------------------
          |                Calculation Setup                |
           -------------------------------------------------

          program call               : /ihome/ghutchison/oda6/xtb/xtb-641/bin//xtb 166.mol -opt
          hostname                   : smp-n43
          coordinate file            : 166.mol
          omp threads                :                     1
          number of atoms            :                    75
          number of electrons        :                   190
          charge                     :                     0
          spin                       :                   0.0
          first test random number   :      0.68620198468080

   ID    Z sym.   atoms
    1    6 C      1-18, 20-35, 37
    2   16 S      19, 36
    3    1 H      38-75
########################################################################
[WARNING] Please study the warnings concerning your input carefully
-1- prog_main_parseArguments: the use of '-opt' is discouraged, please use '--opt' next time
########################################################################

           -------------------------------------------------
          |                 G F N 2 - x T B                 |
           -------------------------------------------------

        Reference                      10.1021/acs.jctc.8b01176
      * Hamiltonian:
        H0-scaling (s, p, d)           1.850000    2.230000    2.230000
        zeta-weighting                 0.500000
      * Dispersion:
        s8                             2.700000
        a1                             0.520000
        a2                             5.000000
        s9                             5.000000
      * Repulsion:
        kExp                           1.500000    1.000000
        rExp                           1.000000
      * Coulomb:
        alpha                          2.000000
        third order                    shell-resolved
        anisotropic                    true
        a3                             3.000000
        a5                             4.000000
        cn-shift                       1.200000
        cn-exp                         4.000000
        max-rad                        5.000000


          ...................................................
          :                      SETUP                      :
          :.................................................:
          :  # basis functions                 198          :
          :  # atomic orbitals                 196          :
          :  # shells                          114          :
          :  # electrons                       190          :
          :  max. iterations                   250          :
          :  Hamiltonian                  GFN2-xTB          :
          :  restarted?                      false          :
          :  GBSA solvation                  false          :
          :  PC potential                    false          :
          :  electronic temp.          300.0000000     K    :
          :  accuracy                    1.0000000          :
          :  -> integral cutoff          0.2500000E+02      :
          :  -> integral neglect         0.1000000E-07      :
          :  -> SCF convergence          0.1000000E-05 Eh   :
          :  -> wf. convergence          0.1000000E-03 e    :
          :  Broyden damping             0.4000000          :
          ...................................................

 iter      E             dE          RMSdq      gap      omega  full diag
   1   -102.3149362 -0.102315E+03  0.347E+00    2.38       0.0  T
   2   -102.4079368 -0.930006E-01  0.197E+00    2.40       1.0  T
   3   -102.3910222  0.169146E-01  0.893E-01    2.40       1.0  T
   4   -102.4070449 -0.160226E-01  0.463E-01    2.39       1.0  T
   5   -102.4181560 -0.111111E-01  0.107E-01    2.40       1.0  T
   6   -102.4182806 -0.124602E-03  0.578E-02    2.40       1.0  T
   7   -102.4184244 -0.143826E-03  0.209E-02    2.40       1.0  T
   8   -102.4184390 -0.146116E-04  0.948E-03    2.40       1.2  T
   9   -102.4184408 -0.180452E-05  0.419E-03    2.40       2.8  T
  10   -102.4184412 -0.407362E-06  0.181E-03    2.40       6.4  T
  11   -102.4184413 -0.841812E-07  0.855E-04    2.40      13.5  T
  12   -102.4184413 -0.100050E-07  0.436E-04    2.40      26.5  T

   *** convergence criteria satisfied after 12 iterations ***

         #    Occupation            Energy/Eh            Energy/eV
      -------------------------------------------------------------
         1        2.0000           -0.7270536             -19.7841
       ...           ...                  ...                  ...
        89        2.0000           -0.4019876             -10.9386
        90        2.0000           -0.3932290             -10.7003
        91        2.0000           -0.3904913             -10.6258
        92        2.0000           -0.3876078             -10.5473
        93        2.0000           -0.3855363             -10.4910
        94        2.0000           -0.3717735             -10.1165
        95        2.0000           -0.3532668              -9.6129 (HOMO)
        96                         -0.2649860              -7.2106 (LUMO)
        97                         -0.2451616              -6.6712
        98                         -0.2250145              -6.1230
        99                         -0.2211007              -6.0165
       100                         -0.2142520              -5.8301
       ...                                ...                  ...
       196                          0.7540819              20.5196
      -------------------------------------------------------------
                  HL-Gap            0.0882808 Eh            2.4022 eV
             Fermi-level           -0.3091264 Eh           -8.4118 eV

 SCC (total)                   0 d,  0 h,  0 min,  0.201 sec
 SCC setup                      ...        0 min,  0.001 sec (  0.405%)
 Dispersion                     ...        0 min,  0.002 sec (  1.035%)
 classical contributions        ...        0 min,  0.000 sec (  0.118%)
 integral evaluation            ...        0 min,  0.024 sec ( 12.001%)
 iterations                     ...        0 min,  0.093 sec ( 46.354%)
 molecular gradient             ...        0 min,  0.080 sec ( 39.624%)
 printout                       ...        0 min,  0.001 sec (  0.436%)

         :::::::::::::::::::::::::::::::::::::::::::::::::::::
         ::                     SUMMARY                     ::
         :::::::::::::::::::::::::::::::::::::::::::::::::::::
         :: total energy            -100.869059663471 Eh    ::
         :: gradient norm              0.151243196105 Eh/a0 ::
         :: HOMO-LUMO gap              2.402243041447 eV    ::
         ::.................................................::
         :: SCC energy              -102.418441299449 Eh    ::
         :: -> isotropic ES            0.008413910560 Eh    ::
         :: -> anisotropic ES          0.019938027322 Eh    ::
         :: -> anisotropic XC          0.052808611991 Eh    ::
         :: -> dispersion             -0.100675045415 Eh    ::
         :: repulsion energy           1.547971960707 Eh    ::
         :: add. restraining           0.000000000000 Eh    ::
         :: total charge              -0.000000000000 e     ::
         :::::::::::::::::::::::::::::::::::::::::::::::::::::

      ----------------------------------------------------------- 
     |                   =====================                   |
     |                        A N C O P T                        |
     |                   =====================                   |
     |               Approximate Normal Coordinate               |
     |                Rational Function Optimizer                |
      ----------------------------------------------------------- 

          ...................................................
          :                      SETUP                      :
          :.................................................:
          :   optimization level            normal          :
          :   max. optcycles                   225          :
          :   ANC micro-cycles                  20          :
          :   degrees of freedom               219          :
          :.................................................:
          :   RF solver                   davidson          :
          :   write xtbopt.log                true          :
          :   linear?                        false          :
          :   energy convergence         0.5000000E-05 Eh   :
          :   grad. convergence          0.1000000E-02 Eh/α :
          :   maximium RF displ.         1.0000000          :
          :   Hlow (freq-cutoff)         0.1000000E-01      :
          :   Hmax (freq-cutoff)         5.0000000          :
          :   S6 in model hess.         20.0000000          :
          ...................................................

generating ANC from model Hessian ...
Using Lindh-Hessian (1995)
 Shifting diagonal of input Hessian by   9.902312796891967E-003
 Lowest  eigenvalues of input Hessian
    0.000000    0.000000    0.000000    0.000000    0.000000    0.000000
    0.010000    0.010023    0.010150    0.010514    0.010623    0.011202
    0.011395    0.011507    0.011573    0.011778    0.011856    0.012131
 Highest eigenvalues
    1.939867    1.959000    2.005115    2.029133    2.049798    2.077429
 

........................................................................
.............................. CYCLE    1 ..............................
........................................................................
   1   -102.4184413 -0.102418E+03  0.191E-04    2.40       0.0  T
   2   -102.4184413 -0.100243E-09  0.148E-04    2.40      77.9  T
   3   -102.4184413 -0.896222E-09  0.868E-05    2.40     133.1  T
     SCC iter.                  ...        0 min,  0.026 sec
     gradient                   ...        0 min,  0.080 sec
 * total energy  :  -100.8690597 Eh     change       -0.5599603E-08 Eh
   gradient norm :     0.1512412 Eh/α   predicted     0.0000000E+00 (-100.00%)
   displ. norm   :     0.3208252 α      lambda       -0.3031100E-01
   maximum displ.:     0.0925295 α      in ANC's #55, #127, #53, ...

........................................................................
.............................. CYCLE    2 ..............................
........................................................................
   1   -102.5048774 -0.102505E+03  0.216E-01    2.34       0.0  T
   2   -102.5050941 -0.216660E-03  0.137E-01    2.34       1.0  T
   3   -102.5048834  0.210689E-03  0.815E-02    2.34       1.0  T
   4   -102.5052534 -0.369998E-03  0.250E-02    2.34       1.0  T
   5   -102.5052706 -0.171852E-04  0.103E-02    2.34       1.1  T
   6   -102.5052727 -0.209166E-05  0.354E-03    2.34       3.3  T
   7   -102.5052730 -0.364029E-06  0.159E-03    2.34       7.3  T
   8   -102.5052731 -0.904510E-07  0.788E-04    2.34      14.7  T
   9   -102.5052731 -0.773292E-08  0.282E-04    2.34      41.0  T
     SCC iter.                  ...        0 min,  0.069 sec
     gradient                   ...        0 min,  0.080 sec
 * total energy  :  -100.8893592 Eh     change       -0.2029957E-01 Eh
   gradient norm :     0.0590944 Eh/α   predicted    -0.1672229E-01 ( -17.62%)
   displ. norm   :     0.2642078 α      lambda       -0.6887718E-02
   maximum displ.:     0.0827993 α      in ANC's #37, #55, #32, ...

........................................................................
.............................. CYCLE    3 ..............................
........................................................................
   1   -102.5446326 -0.102545E+03  0.137E-01    2.30       0.0  T
   2   -102.5447071 -0.745532E-04  0.805E-02    2.30       1.0  T
   3   -102.5446250  0.820584E-04  0.503E-02    2.30       1.0  T
   4   -102.5447652 -0.140103E-03  0.158E-02    2.30       1.0  T
   5   -102.5447711 -0.597250E-05  0.600E-03    2.30       1.9  T
   6   -102.5447717 -0.593198E-06  0.213E-03    2.30       5.4  T
   7   -102.5447719 -0.227860E-06  0.827E-04    2.30      14.0  T
   8   -102.5447720 -0.251539E-07  0.407E-04    2.30      28.4  T
     SCC iter.                  ...        0 min,  0.062 sec
     gradient                   ...        0 min,  0.080 sec
 * total energy  :  -100.8932770 Eh     change       -0.3917747E-02 Eh
   gradient norm :     0.0179880 Eh/α   predicted    -0.3686025E-02 (  -5.91%)
   displ. norm   :     0.1524479 α      lambda       -0.7279406E-03
   maximum displ.:     0.0585058 α      in ANC's #21, #32, #15, ...

........................................................................
.............................. CYCLE    4 ..............................
........................................................................
   1   -102.5460979 -0.102546E+03  0.472E-02    2.29       0.0  T
   2   -102.5461040 -0.612013E-05  0.249E-02    2.29       1.0  T
   3   -102.5460990  0.503270E-05  0.118E-02    2.29       1.0  T
   4   -102.5461052 -0.618572E-05  0.455E-03    2.29       2.5  T
   5   -102.5461061 -0.917164E-06  0.139E-03    2.29       8.3  T
   6   -102.5461061 -0.186070E-07  0.635E-04    2.29      18.2  T
   7   -102.5461061 -0.240377E-07  0.189E-04    2.29      61.1  T
     SCC iter.                  ...        0 min,  0.055 sec
     gradient                   ...        0 min,  0.080 sec
 * total energy  :  -100.8937865 Eh     change       -0.5095177E-03 Eh
   gradient norm :     0.0092508 Eh/α   predicted    -0.3724594E-03 ( -26.90%)
   displ. norm   :     0.1634908 α      lambda       -0.3491498E-03
   maximum displ.:     0.0693836 α      in ANC's #21, #15, #32, ...

........................................................................
.............................. CYCLE    5 ..............................
........................................................................
   1   -102.5448179 -0.102545E+03  0.381E-02    2.29       0.0  T
   2   -102.5448219 -0.391298E-05  0.202E-02    2.29       1.0  T
   3   -102.5448194  0.245295E-05  0.848E-03    2.29       1.4  T
   4   -102.5448223 -0.291907E-05  0.337E-03    2.29       3.4  T
   5   -102.5448229 -0.577282E-06  0.110E-03    2.29      10.5  T
   6   -102.5448229 -0.248246E-07  0.481E-04    2.29      24.0  T
   7   -102.5448229 -0.113791E-07  0.149E-04    2.29      77.5  T
     SCC iter.                  ...        0 min,  0.055 sec
     gradient                   ...        0 min,  0.080 sec
 * total energy  :  -100.8939999 Eh     change       -0.2134337E-03 Eh
   gradient norm :     0.0032427 Eh/α   predicted    -0.1794057E-03 ( -15.94%)
   displ. norm   :     0.0935227 α      lambda       -0.7473707E-04
   maximum displ.:     0.0343223 α      in ANC's #21, #13, #15, ...

........................................................................
.............................. CYCLE    6 ..............................
........................................................................
   1   -102.5444107 -0.102544E+03  0.155E-02    2.29       0.0  T
   2   -102.5444110 -0.277311E-06  0.903E-03    2.29       1.3  T
   3   -102.5444097  0.128939E-05  0.498E-03    2.29       2.3  T
   4   -102.5444112 -0.151252E-05  0.103E-03    2.29      11.2  T
   5   -102.5444113 -0.310134E-07  0.386E-04    2.29      29.9  T
   6   -102.5444113 -0.259710E-08  0.144E-04    2.29      80.3  T
     SCC iter.                  ...        0 min,  0.047 sec
     gradient                   ...        0 min,  0.080 sec
 * total energy  :  -100.8940541 Eh     change       -0.5413741E-04 Eh
   gradient norm :     0.0031375 Eh/α   predicted    -0.3770061E-04 ( -30.36%)
   displ. norm   :     0.1082686 α      lambda       -0.5792747E-04
   maximum displ.:     0.0388647 α      in ANC's #13, #21, #12, ...

........................................................................
.............................. CYCLE    7 ..............................
........................................................................
   1   -102.5445684 -0.102545E+03  0.162E-02    2.29       0.0  T
   2   -102.5445685 -0.885776E-07  0.981E-03    2.29       1.2  T
   3   -102.5445666  0.191520E-05  0.578E-03    2.29       2.0  T
   4   -102.5445688 -0.218759E-05  0.607E-04    2.29      19.0  T
   5   -102.5445688 -0.504428E-09  0.300E-04    2.29      38.5  T
   6   -102.5445688 -0.295118E-08  0.117E-04    2.29      98.4  T
     SCC iter.                  ...        0 min,  0.048 sec
     gradient                   ...        0 min,  0.079 sec
 * total energy  :  -100.8940925 Eh     change       -0.3841994E-04 Eh
   gradient norm :     0.0029493 Eh/α   predicted    -0.2934839E-04 ( -23.61%)
   displ. norm   :     0.0678311 α      lambda       -0.2359607E-04
   maximum displ.:     0.0268851 α      in ANC's #13, #12, #8, ...

........................................................................
.............................. CYCLE    8 ..............................
........................................................................
   1   -102.5450541 -0.102545E+03  0.101E-02    2.29       0.0  T
   2   -102.5450542 -0.105412E-06  0.594E-03    2.29       1.9  T
   3   -102.5450538  0.402398E-06  0.275E-03    2.29       4.2  T
   4   -102.5450542 -0.460506E-06  0.615E-04    2.29      18.8  T
   5   -102.5450543 -0.134599E-07  0.237E-04    2.29      48.7  T
     SCC iter.                  ...        0 min,  0.040 sec
     gradient                   ...        0 min,  0.079 sec
 * total energy  :  -100.8941091 Eh     change       -0.1656220E-04 Eh
   gradient norm :     0.0018998 Eh/α   predicted    -0.1188260E-04 ( -28.25%)
   displ. norm   :     0.0809757 α      lambda       -0.1405117E-04
   maximum displ.:     0.0319583 α      in ANC's #13, #12, #34, ...

........................................................................
.............................. CYCLE    9 ..............................
........................................................................
   1   -102.5457548 -0.102546E+03  0.124E-02    2.29       0.0  T
   2   -102.5457551 -0.270924E-06  0.699E-03    2.29       1.7  T
   3   -102.5457549  0.209006E-06  0.229E-03    2.29       5.0  T
   4   -102.5457551 -0.226141E-06  0.919E-04    2.29      12.6  T
   5   -102.5457552 -0.481058E-07  0.265E-04    2.29      43.5  T
     SCC iter.                  ...        0 min,  0.040 sec
     gradient                   ...        0 min,  0.080 sec
 * total energy  :  -100.8941199 Eh     change       -0.1088857E-04 Eh
   gradient norm :     0.0011575 Eh/α   predicted    -0.7056420E-05 ( -35.19%)
   displ. norm   :     0.0791778 α      lambda        0.1263073E-04
   maximum displ.:     0.0312943 α      in ANC's #13, #12, #34, ...

........................................................................
.............................. CYCLE   10 ..............................
........................................................................
   1   -102.5463370 -0.102546E+03  0.122E-02    2.29       0.0  T
   2   -102.5463373 -0.263422E-06  0.685E-03    2.29       1.7  T
   3   -102.5463371  0.170524E-06  0.217E-03    2.29       5.3  T
   4   -102.5463373 -0.185983E-06  0.885E-04    2.29      13.0  T
   5   -102.5463374 -0.426039E-07  0.261E-04    2.29      44.2  T
     SCC iter.                  ...        0 min,  0.040 sec
     gradient                   ...        0 min,  0.079 sec
 * total energy  :  -100.8941107 Eh     change        0.9267625E-05 Eh
   gradient norm :     0.0031560 Eh/α   predicted     0.6329147E-05 ( -31.71%)
   displ. norm   :     0.0478852 α      lambda       -0.1621170E-04
   maximum displ.:     0.0190718 α      in ANC's #13, #12, #7, ...

........................................................................
.............................. CYCLE   11 ..............................
........................................................................
   1   -102.5459518 -0.102546E+03  0.783E-03    2.29       0.0  T
   2   -102.5459519 -0.108546E-06  0.446E-03    2.29       2.6  T
   3   -102.5459517  0.176833E-06  0.199E-03    2.29       5.8  T
   4   -102.5459519 -0.204842E-06  0.642E-04    2.29      18.0  T
   5   -102.5459520 -0.180772E-07  0.200E-04    2.29      57.7  T
     SCC iter.                  ...        0 min,  0.040 sec
     gradient                   ...        0 min,  0.080 sec
 * total energy  :  -100.8941222 Eh     change       -0.1150109E-04 Eh
   gradient norm :     0.0015220 Eh/α   predicted    -0.8132992E-05 ( -29.29%)
   displ. norm   :     0.0429362 α      lambda       -0.6365025E-05
   maximum displ.:     0.0142977 α      in ANC's #13, #22, #15, ...

........................................................................
.............................. CYCLE   12 ..............................
........................................................................
   1   -102.5453350 -0.102545E+03  0.779E-03    2.29       0.0  T
   2   -102.5453351 -0.137536E-06  0.446E-03    2.29       2.6  T
   3   -102.5453349  0.190717E-06  0.218E-03    2.29       5.3  T
   4   -102.5453351 -0.232961E-06  0.680E-04    2.29      17.0  T
   5   -102.5453352 -0.200108E-07  0.217E-04    2.29      53.3  T
     SCC iter.                  ...        0 min,  0.044 sec
     gradient                   ...        0 min,  0.080 sec
 * total energy  :  -100.8941260 Eh     change       -0.3809948E-05 Eh
   gradient norm :     0.0004687 Eh/α   predicted    -0.3186701E-05 ( -16.36%)
   displ. norm   :     0.0416518 α      lambda        0.1030950E-04
   maximum displ.:     0.0140516 α      in ANC's #13, #22, #7, ...

   *** GEOMETRY OPTIMIZATION CONVERGED AFTER 12 ITERATIONS ***

------------------------------------------------------------------------
 total energy gain   :        -0.0250663 Eh      -15.7294 kcal/mol
 total RMSD          :         0.1068807 a0        0.0566 Å
 total power (kW/mol):        -5.4843022 (step)  -34.4716 (real)
------------------------------------------------------------------------

 ANCopt (total)                0 d,  0 h,  0 min,  1.909 sec
 optimizer setup                ...        0 min,  0.000 sec (  0.013%)
 model hessian                  ...        0 min,  0.059 sec (  3.108%)
 ANC generation                 ...        0 min,  0.006 sec (  0.320%)
 coordinate transformation      ...        0 min,  0.001 sec (  0.066%)
 single point calculation       ...        0 min,  1.836 sec ( 96.154%)
 optimization log               ...        0 min,  0.003 sec (  0.164%)
 hessian update                 ...        0 min,  0.001 sec (  0.036%)
 rational function              ...        0 min,  0.001 sec (  0.075%)

================
 final structure:
================

  xtb     01172214313D
 xtb: 6.4.1 (unknown)
 75 81  0     0  0            999 V2000
    0.9540    1.0027    4.5925 C   0  0  0  0  0  0  0  0  0  0  0  0
   -0.1726    0.6002    3.6497 C   0  0  0  0  0  0  0  0  0  0  0  0
    0.0726   -0.6601    2.7944 C   0  0  0  0  0  0  0  0  0  0  0  0
    0.4119   -1.9196    3.6186 C   0  0  0  0  0  0  0  0  0  0  0  0
   -0.6048   -2.3248    4.6780 C   0  0  0  0  0  0  0  0  0  0  0  0
    1.1754   -0.4681    1.7721 C   0  0  0  0  0  0  0  0  0  0  0  0
    2.5302   -0.3079    1.9758 C   0  0  0  0  0  0  0  0  0  0  0  0
    3.3369   -0.1734    0.8532 C   0  0  0  0  0  0  0  0  0  0  0  0
    2.8190   -0.2131   -0.4593 C   0  0  0  0  0  0  0  0  0  0  0  0
    1.4747   -0.4370   -0.6558 C   0  0  0  0  0  0  0  0  0  0  0  0
    0.6612   -0.5547    0.4675 C   0  0  0  0  0  0  0  0  0  0  0  0
   -0.7650   -0.7911    0.5463 C   0  0  0  0  0  0  0  0  0  0  0  0
   -1.6989   -0.9192   -0.4782 C   0  0  0  0  0  0  0  0  0  0  0  0
   -3.0151   -1.1047   -0.1251 C   0  0  0  0  0  0  0  0  0  0  0  0
   -3.3895   -1.1460    1.2350 C   0  0  0  0  0  0  0  0  0  0  0  0
   -2.4602   -1.0124    2.2578 C   0  0  0  0  0  0  0  0  0  0  0  0
   -1.1362   -0.8557    1.9003 C   0  0  0  0  0  0  0  0  0  0  0  0
   -4.8132   -1.3278    1.2632 C   0  0  0  0  0  0  0  0  0  0  0  0
   -6.0328   -1.4794    2.4664 S   0  0  0  0  0  0  0  0  0  0  0  0
   -7.2321   -1.6384    1.2311 C   0  0  0  0  0  0  0  0  0  0  0  0
   -6.7199   -1.5779   -0.0304 C   0  0  0  0  0  0  0  0  0  0  0  0
   -5.3263   -1.3994   -0.0123 C   0  0  0  0  0  0  0  0  0  0  0  0
   -4.2256   -1.2609   -1.0274 C   0  0  0  0  0  0  0  0  0  0  0  0
   -4.1107   -2.5140   -1.9144 C   0  0  0  0  0  0  0  0  0  0  0  0
   -3.9046   -3.7919   -1.1105 C   0  0  0  0  0  0  0  0  0  0  0  0
   -4.4290   -0.0186   -1.9144 C   0  0  0  0  0  0  0  0  0  0  0  0
   -4.5432    1.2715   -1.1115 C   0  0  0  0  0  0  0  0  0  0  0  0
    3.9305   -0.0617   -1.4892 C   0  0  0  0  0  0  0  0  0  0  0  0
    3.8186    1.2497   -2.2941 C   0  0  0  0  0  0  0  0  0  0  0  0
    2.6211    1.3586   -3.2288 C   0  0  0  0  0  0  0  0  0  0  0  0
    3.9657   -1.3306   -2.3620 C   0  0  0  0  0  0  0  0  0  0  0  0
    5.0789   -1.3718   -3.4006 C   0  0  0  0  0  0  0  0  0  0  0  0
    5.1370    0.0524   -0.5895 C   0  0  0  0  0  0  0  0  0  0  0  0
    6.5197    0.2622   -0.7402 C   0  0  0  0  0  0  0  0  0  0  0  0
    7.1523    0.3325    0.4646 C   0  0  0  0  0  0  0  0  0  0  0  0
    6.0837    0.1614    1.8112 S   0  0  0  0  0  0  0  0  0  0  0  0
    4.7554   -0.0063    0.7319 C   0  0  0  0  0  0  0  0  0  0  0  0
    1.8435    1.2877    4.0382 H   0  0  0  0  0  0  0  0  0  0  0  0
    1.2067    0.1971    5.2768 H   0  0  0  0  0  0  0  0  0  0  0  0
    0.6385    1.8604    5.1837 H   0  0  0  0  0  0  0  0  0  0  0  0
   -0.3687    1.4278    2.9621 H   0  0  0  0  0  0  0  0  0  0  0  0
   -1.0828    0.4419    4.2308 H   0  0  0  0  0  0  0  0  0  0  0  0
    1.3793   -1.7584    4.0975 H   0  0  0  0  0  0  0  0  0  0  0  0
    0.5348   -2.7470    2.9140 H   0  0  0  0  0  0  0  0  0  0  0  0
   -0.2222   -3.1779    5.2353 H   0  0  0  0  0  0  0  0  0  0  0  0
   -0.7884   -1.5177    5.3822 H   0  0  0  0  0  0  0  0  0  0  0  0
   -1.5466   -2.6181    4.2231 H   0  0  0  0  0  0  0  0  0  0  0  0
    2.9754   -0.3002    2.9586 H   0  0  0  0  0  0  0  0  0  0  0  0
    1.0508   -0.5365   -1.6430 H   0  0  0  0  0  0  0  0  0  0  0  0
   -1.3945   -0.8652   -1.5130 H   0  0  0  0  0  0  0  0  0  0  0  0
   -2.7879   -1.0204    3.2857 H   0  0  0  0  0  0  0  0  0  0  0  0
   -8.2554   -1.7684    1.5237 H   0  0  0  0  0  0  0  0  0  0  0  0
   -7.3221   -1.6586   -0.9179 H   0  0  0  0  0  0  0  0  0  0  0  0
   -3.2723   -2.3790   -2.6013 H   0  0  0  0  0  0  0  0  0  0  0  0
   -5.0218   -2.6025   -2.5109 H   0  0  0  0  0  0  0  0  0  0  0  0
   -3.8262   -4.6467   -1.7785 H   0  0  0  0  0  0  0  0  0  0  0  0
   -2.9932   -3.7293   -0.5199 H   0  0  0  0  0  0  0  0  0  0  0  0
   -4.7400   -3.9593   -0.4346 H   0  0  0  0  0  0  0  0  0  0  0  0
   -3.5866    0.0582   -2.6052 H   0  0  0  0  0  0  0  0  0  0  0  0
   -5.3361   -0.1596   -2.5067 H   0  0  0  0  0  0  0  0  0  0  0  0
   -5.3909    1.2270   -0.4316 H   0  0  0  0  0  0  0  0  0  0  0  0
   -3.6424    1.4384   -0.5251 H   0  0  0  0  0  0  0  0  0  0  0  0
   -4.6827    2.1180   -1.7801 H   0  0  0  0  0  0  0  0  0  0  0  0
    3.7789    2.0725   -1.5750 H   0  0  0  0  0  0  0  0  0  0  0  0
    4.7375    1.3683   -2.8717 H   0  0  0  0  0  0  0  0  0  0  0  0
    2.6016    0.5429   -3.9469 H   0  0  0  0  0  0  0  0  0  0  0  0
    1.6909    1.3592   -2.6679 H   0  0  0  0  0  0  0  0  0  0  0  0
    2.6803    2.2938   -3.7825 H   0  0  0  0  0  0  0  0  0  0  0  0
    4.0751   -2.1864   -1.6903 H   0  0  0  0  0  0  0  0  0  0  0  0
    3.0012   -1.4332   -2.8619 H   0  0  0  0  0  0  0  0  0  0  0  0
    4.9919   -0.5514   -4.1082 H   0  0  0  0  0  0  0  0  0  0  0  0
    6.0538   -1.3227   -2.9240 H   0  0  0  0  0  0  0  0  0  0  0  0
    5.0223   -2.3054   -3.9570 H   0  0  0  0  0  0  0  0  0  0  0  0
    7.0374    0.3678   -1.6767 H   0  0  0  0  0  0  0  0  0  0  0  0
    8.1976    0.4782    0.6536 H   0  0  0  0  0  0  0  0  0  0  0  0
  1  2  1  0  0  0  0
  2  3  1  0  0  0  0
  3  4  1  0  0  0  0
  4  5  1  0  0  0  0
  3  6  1  0  0  0  0
  6  7  2  0  0  0  0
  7  8  1  0  0  0  0
  8  9  2  0  0  0  0
  9 10  1  0  0  0  0
 10 11  2  0  0  0  0
 11 12  1  0  0  0  0
 12 13  2  0  0  0  0
 13 14  1  0  0  0  0
 14 15  2  0  0  0  0
 15 16  1  0  0  0  0
 16 17  2  0  0  0  0
 15 18  1  0  0  0  0
 18 19  1  0  0  0  0
 19 20  1  0  0  0  0
 20 21  2  0  0  0  0
 21 22  1  0  0  0  0
 22 23  1  0  0  0  0
 23 24  1  0  0  0  0
 24 25  1  0  0  0  0
 23 26  1  0  0  0  0
 26 27  1  0  0  0  0
  9 28  1  0  0  0  0
 28 29  1  0  0  0  0
 29 30  1  0  0  0  0
 28 31  1  0  0  0  0
 31 32  1  0  0  0  0
 28 33  1  0  0  0  0
 33 34  1  0  0  0  0
 34 35  2  0  0  0  0
 35 36  1  0  0  0  0
 36 37  1  0  0  0  0
 17  3  1  0  0  0  0
 22 18  2  0  0  0  0
 37 33  2  0  0  0  0
 11  6  1  0  0  0  0
 17 12  1  0  0  0  0
 37  8  1  0  0  0  0
 23 14  1  0  0  0  0
  1 38  1  0  0  0  0
  1 39  1  0  0  0  0
  1 40  1  0  0  0  0
  2 41  1  0  0  0  0
  2 42  1  0  0  0  0
  4 43  1  0  0  0  0
  4 44  1  0  0  0  0
  5 45  1  0  0  0  0
  5 46  1  0  0  0  0
  5 47  1  0  0  0  0
  7 48  1  0  0  0  0
 10 49  1  0  0  0  0
 13 50  1  0  0  0  0
 16 51  1  0  0  0  0
 20 52  1  0  0  0  0
 21 53  1  0  0  0  0
 24 54  1  0  0  0  0
 24 55  1  0  0  0  0
 25 56  1  0  0  0  0
 25 57  1  0  0  0  0
 25 58  1  0  0  0  0
 26 59  1  0  0  0  0
 26 60  1  0  0  0  0
 27 61  1  0  0  0  0
 27 62  1  0  0  0  0
 27 63  1  0  0  0  0
 29 64  1  0  0  0  0
 29 65  1  0  0  0  0
 30 66  1  0  0  0  0
 30 67  1  0  0  0  0
 30 68  1  0  0  0  0
 31 69  1  0  0  0  0
 31 70  1  0  0  0  0
 32 71  1  0  0  0  0
 32 72  1  0  0  0  0
 32 73  1  0  0  0  0
 34 74  1  0  0  0  0
 35 75  1  0  0  0  0
M  END
 
 Bond Distances (Angstroems)
 ---------------------------
C1-C2=1.5232         C1-H38=1.0861        C1-H39=1.0868        C1-H40=1.0885        C2-C1=1.5232         C2-C3=1.5427         
C2-H41=1.0937        C2-H42=1.0914        C3-C2=1.5427         C3-C4=1.5430         C3-C6=1.5160         C3-C17=1.5162        
C4-C3=1.5430         C4-C5=1.5232         C4-H43=1.0914        C4-H44=1.0937        C5-C4=1.5232         C5-H45=1.0885        
C5-H46=1.0868        C5-H47=1.0862        C6-C3=1.5160         C6-C7=1.3794         C6-C11=1.4050        C7-C6=1.3794         
C7-C8=1.3888         C7-H48=1.0790        C8-C7=1.3888         C8-C9=1.4116         C8-C37=1.4335        C9-C8=1.4116         
C9-C10=1.3769        C9-C28=1.5229        C10-C9=1.3769        C10-C11=1.3918       C10-H49=1.0790       C11-C6=1.4050        
C11-C10=1.3918       C11-C12=1.4478       C12-C11=1.4478       C12-C13=1.3922       C12-C17=1.4055       C13-C12=1.3922       
C13-C14=1.3753       C13-H50=1.0800       C14-C13=1.3753       C14-C15=1.4113       C14-C23=1.5178       C15-C14=1.4113       
C15-C16=1.3883       C15-C18=1.4355       C16-C15=1.3883       C16-C17=1.3803       C16-H51=1.0790       C17-C3=1.5162        
C17-C12=1.4055       C17-C16=1.3803       C18-C15=1.4355       C18-S19=1.7200       C18-C22=1.3767       S19-C18=1.7200       
S19-C20=1.7290       C20-S19=1.7290       C20-C21=1.3629       C20-H52=1.0722       C21-C20=1.3629       C21-C22=1.4051       
C21-H53=1.0755       C22-C18=1.3767       C22-C21=1.4051       C22-C23=1.5037       C23-C14=1.5178       C23-C22=1.5037       
C23-C24=1.5395       C23-C26=1.5399       C24-C23=1.5395       C24-C25=1.5237       C24-H54=1.0922       C24-H55=1.0925       
C25-C24=1.5237       C25-H56=1.0877       C25-H57=1.0878       C25-H58=1.0876       C26-C23=1.5399       C26-C27=1.5238       
C26-H59=1.0922       C26-H60=1.0925       C27-C26=1.5238       C27-H61=1.0876       C27-H62=1.0878       C27-H63=1.0877       
C28-C9=1.5229        C28-C29=1.5427       C28-C31=1.5404       C28-C33=1.5093       C29-C28=1.5427       C29-C30=1.5230       
C29-H64=1.0935       C29-H65=1.0918       C30-C29=1.5230       C30-H66=1.0870       C30-H67=1.0863       C30-H68=1.0885       
C31-C28=1.5404       C31-C32=1.5230       C31-H69=1.0935       C31-H70=1.0912       C32-C31=1.5230       C32-H71=1.0869       
C32-H72=1.0862       C32-H73=1.0883       C33-C28=1.5093       C33-C34=1.4066       C33-C37=1.3765       C34-C33=1.4066       
C34-C35=1.3626       C34-H74=1.0753       C35-C34=1.3626       C35-S36=1.7276       C35-H75=1.0722       S36-C35=1.7276       
S36-C37=1.7197       C37-C8=1.4335        C37-C33=1.3765       C37-S36=1.7197       H38-C1=1.0861        H39-C1=1.0868        
H40-C1=1.0885        H41-C2=1.0937        H42-C2=1.0914        H43-C4=1.0914        H44-C4=1.0937        H45-C5=1.0885        
H46-C5=1.0868        H47-C5=1.0862        H48-C7=1.0790        H49-C10=1.0790       H50-C13=1.0800       H51-C16=1.0790       
H52-C20=1.0722       H53-C21=1.0755       H54-C24=1.0922       H55-C24=1.0925       H56-C25=1.0877       H57-C25=1.0878       
H58-C25=1.0876       H59-C26=1.0922       H60-C26=1.0925       H61-C27=1.0876       H62-C27=1.0878       H63-C27=1.0877       
H64-C29=1.0935       H65-C29=1.0918       H66-C30=1.0870       H67-C30=1.0863       H68-C30=1.0885       H69-C31=1.0935       
H70-C31=1.0912       H71-C32=1.0869       H72-C32=1.0862       H73-C32=1.0883       H74-C34=1.0753       H75-C35=1.0722       
 C  H  Rav=1.0867 sigma=0.0059  Rmin=1.0722  Rmax=1.0937    38
 C  C  Rav=1.4561 sigma=0.0676  Rmin=1.3626  Rmax=1.5430    39
 S  C  Rav=1.7241 sigma=0.0043  Rmin=1.7197  Rmax=1.7290     4
 
 selected bond angles (degree)
 --------------------
H38-C1-C2=111.05               H39-C1-C2=111.46               H39-C1-H38=108.99              H40-C1-C2=109.27               
H40-C1-H38=107.92              H40-C1-H39=108.03              C3-C2-C1=116.20                H41-C2-C1=108.77               
H41-C2-C3=107.34               H42-C2-C1=109.00               H42-C2-C3=108.01               H42-C2-H41=107.16              
C4-C3-C2=113.93                C6-C3-C2=112.71                C6-C3-C4=107.67                C17-C3-C2=107.80               
C17-C3-C4=112.64               C17-C3-C6=101.46               C5-C4-C3=116.22                H43-C4-C3=107.98               
H43-C4-C5=109.01               H44-C4-C3=107.35               H44-C4-C5=108.77               H44-C4-H43=107.15              
H45-C5-C4=109.27               H46-C5-C4=111.46               H46-C5-H45=108.03              H47-C5-C4=111.06               
H47-C5-H45=107.91              H47-C5-H46=109.00              C7-C6-C3=129.02                C11-C6-C3=110.62               
C11-C6-C7=120.25               C8-C7-C6=117.54                H48-C7-C6=122.72               H48-C7-C8=119.73               
C9-C8-C7=122.39                C37-C8-C7=130.88               C37-C8-C9=106.71               C10-C9-C8=119.70               
C28-C9-C8=110.99               C28-C9-C10=129.22              C11-C10-C9=117.98              H49-C10-C9=121.94              
H49-C10-C11=120.06             
 
 selected dihedral angles (degree)
 ---------------------------------
C3-C2-C1-H38= 64.74           C3-C2-C1-H39=303.01           C3-C2-C1-H40=183.68           H41-C2-C1-H38=303.54          
H41-C2-C1-H39=181.80          H41-C2-C1-H40= 62.48          H42-C2-C1-H38=187.02          H42-C2-C1-H39= 65.28          
H42-C2-C1-H40=305.96          C4-C3-C2-C1= 56.17            C4-C3-C2-H41=178.13           C4-C3-C2-H42=293.37           
C6-C3-C2-C1=293.09            C6-C3-C2-H41= 55.05           C6-C3-C2-H42=170.29           C17-C3-C2-C1=181.96           
C17-C3-C2-H41=303.92          C17-C3-C2-H42= 59.16          C5-C4-C3-C2= 56.41            C5-C4-C3-C6=182.20            
C5-C4-C3-C17=293.22           H43-C4-C3-C2=293.62           H43-C4-C3-C6= 59.40           H43-C4-C3-C17=170.43          
H44-C4-C3-C2=178.39           H44-C4-C3-C6=304.18           H44-C4-C3-C17= 55.20          H45-C5-C4-C3=184.02           
H45-C5-C4-H43=306.27          H45-C5-C4-H44= 62.79          H46-C5-C4-C3=303.34           H46-C5-C4-H43= 65.59          
H46-C5-C4-H44=182.11          H47-C5-C4-C3= 65.09           H47-C5-C4-H43=187.34          H47-C5-C4-H44=303.86          
C7-C6-C3-C2= 68.41            C7-C6-C3-C4=301.90            C7-C6-C3-C17=183.42           C11-C6-C3-C2=244.55           
C11-C6-C3-C4=118.05           C11-C6-C3-C17=359.57          C8-C7-C6-C3=178.83            C8-C7-C6-C11=  3.01           
H48-C7-C6-C3=359.85           H48-C7-C6-C11=184.03          C9-C8-C7-C6=359.18            C9-C8-C7-H48=178.20           
C37-C8-C7-C6=180.59           C37-C8-C7-H48=359.60          C10-C9-C8-C7=357.75           C10-C9-C8-C37=176.64          
C28-C9-C8-C7=180.88           C28-C9-C8-C37=359.77          C11-C10-C9-C8=  2.97          C11-C10-C9-C28=179.20         
H49-C10-C9-C8=183.93          H49-C10-C9-C28=  0.16         
           -------------------------------------------------
          |                Final Singlepoint                |
           -------------------------------------------------

          ...................................................
          :                      SETUP                      :
          :.................................................:
          :  # basis functions                 198          :
          :  # atomic orbitals                 196          :
          :  # shells                          114          :
          :  # electrons                       190          :
          :  max. iterations                   250          :
          :  Hamiltonian                  GFN2-xTB          :
          :  restarted?                      false          :
          :  GBSA solvation                  false          :
          :  PC potential                    false          :
          :  electronic temp.          300.0000000     K    :
          :  accuracy                    1.0000000          :
          :  -> integral cutoff          0.2500000E+02      :
          :  -> integral neglect         0.1000000E-07      :
          :  -> SCF convergence          0.1000000E-05 Eh   :
          :  -> wf. convergence          0.1000000E-03 e    :
          :  Broyden damping             0.4000000          :
          ...................................................

 iter      E             dE          RMSdq      gap      omega  full diag
   1   -102.5453352 -0.102545E+03  0.910E-05    2.29       0.0  T
   2   -102.5453352 -0.556639E-10  0.701E-05    2.29     164.7  T
   3   -102.5453352 -0.270759E-09  0.334E-05    2.29     345.5  T

   *** convergence criteria satisfied after 3 iterations ***

         #    Occupation            Energy/Eh            Energy/eV
      -------------------------------------------------------------
         1        2.0000           -0.7230782             -19.6760
       ...           ...                  ...                  ...
        89        2.0000           -0.4015151             -10.9258
        90        2.0000           -0.3960133             -10.7761
        91        2.0000           -0.3912827             -10.6473
        92        2.0000           -0.3868674             -10.5272
        93        2.0000           -0.3861952             -10.5089
        94        2.0000           -0.3715822             -10.1113
        95        2.0000           -0.3516567              -9.5691 (HOMO)
        96                         -0.2674169              -7.2768 (LUMO)
        97                         -0.2468432              -6.7169
        98                         -0.2188840              -5.9561
        99                         -0.2150817              -5.8527
       100                         -0.2126538              -5.7866
       ...                                ...                  ...
       196                          0.7190164              19.5654
      -------------------------------------------------------------
                  HL-Gap            0.0842398 Eh            2.2923 eV
             Fermi-level           -0.3095368 Eh           -8.4229 eV

 SCC (total)                   0 d,  0 h,  0 min,  0.132 sec
 SCC setup                      ...        0 min,  0.001 sec (  0.542%)
 Dispersion                     ...        0 min,  0.002 sec (  1.445%)
 classical contributions        ...        0 min,  0.000 sec (  0.177%)
 integral evaluation            ...        0 min,  0.023 sec ( 17.492%)
 iterations                     ...        0 min,  0.026 sec ( 19.434%)
 molecular gradient             ...        0 min,  0.079 sec ( 60.216%)
 printout                       ...        0 min,  0.001 sec (  0.649%)

         :::::::::::::::::::::::::::::::::::::::::::::::::::::
         ::                     SUMMARY                     ::
         :::::::::::::::::::::::::::::::::::::::::::::::::::::
         :: total energy            -100.894125990083 Eh    ::
         :: gradient norm              0.000465587931 Eh/a0 ::
         :: HOMO-LUMO gap              2.292280294705 eV    ::
         ::.................................................::
         :: SCC energy              -102.545335161183 Eh    ::
         :: -> isotropic ES            0.009300669125 Eh    ::
         :: -> anisotropic ES          0.016970080308 Eh    ::
         :: -> anisotropic XC          0.049171654812 Eh    ::
         :: -> dispersion             -0.101676623502 Eh    ::
         :: repulsion energy           1.649787010658 Eh    ::
         :: add. restraining           0.000000000000 Eh    ::
         :: total charge               0.000000000000 e     ::
         :::::::::::::::::::::::::::::::::::::::::::::::::::::

           -------------------------------------------------
          |                Property Printout                |
           -------------------------------------------------

    * Orbital Energies and Occupations

         #    Occupation            Energy/Eh            Energy/eV
      -------------------------------------------------------------
         1        2.0000           -0.7230782             -19.6760
       ...           ...                  ...                  ...
        83        2.0000           -0.4233135             -11.5189
        84        2.0000           -0.4206049             -11.4452
        85        2.0000           -0.4159157             -11.3176
        86        2.0000           -0.4134455             -11.2504
        87        2.0000           -0.4049708             -11.0198
        88        2.0000           -0.4035375             -10.9808
        89        2.0000           -0.4015151             -10.9258
        90        2.0000           -0.3960133             -10.7761
        91        2.0000           -0.3912827             -10.6473
        92        2.0000           -0.3868674             -10.5272
        93        2.0000           -0.3861952             -10.5089
        94        2.0000           -0.3715822             -10.1113
        95        2.0000           -0.3516567              -9.5691 (HOMO)
        96                         -0.2674169              -7.2768 (LUMO)
        97                         -0.2468432              -6.7169
        98                         -0.2188840              -5.9561
        99                         -0.2150817              -5.8527
       100                         -0.2126538              -5.7866
       101                         -0.1945382              -5.2937
       102                         -0.1944269              -5.2906
       103                         -0.1821635              -4.9569
       104                         -0.1628371              -4.4310
       105                         -0.1422905              -3.8719
       106                         -0.1151199              -3.1326
       ...                                ...                  ...
       196                          0.7190164              19.5654
      -------------------------------------------------------------
                  HL-Gap            0.0842398 Eh            2.2923 eV
             Fermi-level           -0.3095368 Eh           -8.4229 eV

     #   Z          covCN         q      C6AA      α(0)
     1   6 C        3.751    -0.101    22.498     6.764
     2   6 C        3.806    -0.048    21.429     6.590
     3   6 C        3.933     0.010    20.352     6.411
     4   6 C        3.806    -0.048    21.429     6.590
     5   6 C        3.750    -0.101    22.496     6.764
     6   6 C        3.056    -0.004    28.057     8.687
     7   6 C        2.910    -0.043    29.059     8.839
     8   6 C        3.043    -0.004    28.091     8.693
     9   6 C        3.075    -0.009    28.164     8.701
    10   6 C        2.911    -0.041    29.012     8.832
    11   6 C        3.039    -0.005    28.118     8.697
    12   6 C        3.040    -0.005    28.115     8.697
    13   6 C        2.910    -0.039    28.980     8.827
    14   6 C        3.078    -0.004    28.047     8.683
    15   6 C        3.042    -0.002    28.046     8.686
    16   6 C        2.909    -0.043    29.065     8.840
    17   6 C        3.055    -0.004    28.069     8.689
    18   6 C        3.082     0.013    27.634     8.618
    19  16 S        2.258    -0.048   143.057    20.131
    20   6 C        2.953    -0.025    28.623     8.775
    21   6 C        3.077    -0.047    29.072     8.840
    22   6 C        3.248    -0.018    27.419     8.480
    23   6 C        3.943     0.014    20.282     6.400
    24   6 C        3.806    -0.049    21.449     6.593
    25   6 C        3.751    -0.099    22.452     6.757
    26   6 C        3.806    -0.049    21.449     6.593
    27   6 C        3.751    -0.099    22.453     6.758
    28   6 C        3.938     0.014    20.274     6.399
    29   6 C        3.806    -0.048    21.426     6.589
    30   6 C        3.751    -0.101    22.492     6.764
    31   6 C        3.805    -0.048    21.423     6.589
    32   6 C        3.751    -0.101    22.486     6.763
    33   6 C        3.241    -0.022    27.596     8.516
    34   6 C        3.081    -0.047    29.081     8.841
    35   6 C        2.951    -0.025    28.617     8.774
    36  16 S        2.255    -0.047   143.012    20.127
    37   6 C        3.083     0.011    27.675     8.624
    38   1 H        0.925     0.038     2.470     2.457
    39   1 H        0.925     0.038     2.474     2.460
    40   1 H        0.925     0.032     2.554     2.499
    41   1 H        0.924     0.028     2.608     2.526
    42   1 H        0.924     0.038     2.477     2.461
    43   1 H        0.924     0.038     2.475     2.460
    44   1 H        0.924     0.029     2.608     2.525
    45   1 H        0.925     0.032     2.554     2.499
    46   1 H        0.925     0.038     2.473     2.459
    47   1 H        0.925     0.038     2.471     2.458
    48   1 H        0.926     0.035     2.522     2.484
    49   1 H        0.926     0.032     2.564     2.504
    50   1 H        0.926     0.028     2.618     2.530
    51   1 H        0.926     0.034     2.527     2.486
    52   1 H        0.926     0.037     2.494     2.470
    53   1 H        0.926     0.031     2.569     2.506
    54   1 H        0.924     0.033     2.545     2.495
    55   1 H        0.924     0.033     2.539     2.492
    56   1 H        0.925     0.034     2.526     2.485
    57   1 H        0.925     0.036     2.502     2.474
    58   1 H        0.925     0.036     2.506     2.476
    59   1 H        0.924     0.033     2.545     2.495
    60   1 H        0.924     0.034     2.537     2.491
    61   1 H        0.925     0.036     2.506     2.476
    62   1 H        0.925     0.036     2.506     2.476
    63   1 H        0.925     0.034     2.524     2.485
    64   1 H        0.924     0.030     2.580     2.512
    65   1 H        0.924     0.038     2.473     2.459
    66   1 H        0.925     0.037     2.487     2.466
    67   1 H        0.925     0.039     2.467     2.456
    68   1 H        0.925     0.033     2.548     2.496
    69   1 H        0.924     0.030     2.581     2.512
    70   1 H        0.924     0.037     2.487     2.466
    71   1 H        0.925     0.037     2.483     2.464
    72   1 H        0.925     0.038     2.471     2.458
    73   1 H        0.925     0.032     2.553     2.499
    74   1 H        0.926     0.032     2.561     2.503
    75   1 H        0.926     0.037     2.485     2.465

 Mol. C6AA /au·bohr⁶  :      67631.106259
 Mol. C8AA /au·bohr⁸  :    1749257.346721
 Mol. α(0) /au        :        408.304875


Wiberg/Mayer (AO) data.
largest (>0.10) Wiberg bond orders for each atom

 ---------------------------------------------------------------------------
     #   Z sym  total        # sym  WBO       # sym  WBO       # sym  WBO
 ---------------------------------------------------------------------------
     1   6 C    3.995 --     2 C    1.019    40 H    0.985    39 H    0.985
                            38 H    0.984
     2   6 C    3.995 --     1 C    1.019    41 H    0.978    42 H    0.972
                             3 C    0.961
     3   6 C    3.989 --    17 C    0.987     6 C    0.987     2 C    0.961
                             4 C    0.961
     4   6 C    3.994 --     5 C    1.019    44 H    0.978    43 H    0.972
                             3 C    0.961
     5   6 C    3.995 --     4 C    1.019    45 H    0.985    46 H    0.985
                            47 H    0.984
     6   6 C    3.978 --     7 C    1.448    11 C    1.322     3 C    0.987
     7   6 C    3.989 --     6 C    1.448     8 C    1.366    48 H    0.963
     8   6 C    3.974 --     7 C    1.366     9 C    1.298    37 C    1.127
     9   6 C    3.982 --    10 C    1.463     8 C    1.298    28 C    0.982
    10   6 C    3.984 --     9 C    1.463    11 C    1.361    49 H    0.962
    11   6 C    3.968 --    10 C    1.361     6 C    1.322    12 C    1.098
    12   6 C    3.968 --    13 C    1.359    17 C    1.324    11 C    1.098
    13   6 C    3.985 --    14 C    1.466    12 C    1.359    50 H    0.965
    14   6 C    3.983 --    13 C    1.466    15 C    1.296    23 C    0.984
    15   6 C    3.974 --    16 C    1.369    14 C    1.296    18 C    1.124
    16   6 C    3.990 --    17 C    1.446    15 C    1.369    51 H    0.963
    17   6 C    3.978 --    16 C    1.446    12 C    1.324     3 C    0.987
    18   6 C    3.943 --    22 C    1.469    19 S    1.150    15 C    1.124
                            20 C    0.104
    19  16 S    2.602 --    20 C    1.184    18 C    1.150
    20   6 C    3.926 --    21 C    1.602    19 S    1.184    52 H    0.972
                            18 C    0.104
    21   6 C    3.987 --    20 C    1.602    22 C    1.285    53 H    0.964
    22   6 C    3.971 --    18 C    1.469    21 C    1.285    23 C    0.989
    23   6 C    3.990 --    22 C    0.989    14 C    0.984    24 C    0.960
                            26 C    0.959
    24   6 C    3.996 --    25 C    1.020    55 H    0.976    54 H    0.975
                            23 C    0.960
    25   6 C    3.996 --    24 C    1.020    56 H    0.987    58 H    0.987
                            57 H    0.986
    26   6 C    3.996 --    27 C    1.020    60 H    0.976    59 H    0.975
                            23 C    0.959
    27   6 C    3.996 --    26 C    1.020    63 H    0.987    61 H    0.987
                            62 H    0.986
    28   6 C    3.989 --    33 C    0.986     9 C    0.982    31 C    0.962
                            29 C    0.960
    29   6 C    3.995 --    30 C    1.018    64 H    0.978    65 H    0.973
                            28 C    0.960
    30   6 C    3.995 --    29 C    1.018    68 H    0.985    66 H    0.985
                            67 H    0.984
    31   6 C    3.995 --    32 C    1.019    69 H    0.977    70 H    0.972
                            28 C    0.962
    32   6 C    3.995 --    31 C    1.019    73 H    0.986    71 H    0.985
                            72 H    0.984
    33   6 C    3.970 --    37 C    1.471    34 C    1.284    28 C    0.986
    34   6 C    3.987 --    35 C    1.603    33 C    1.284    74 H    0.961
    35   6 C    3.926 --    34 C    1.603    36 S    1.184    75 H    0.972
                            37 C    0.103
    36  16 S    2.600 --    35 C    1.184    37 C    1.149
    37   6 C    3.943 --    33 C    1.471    36 S    1.149     8 C    1.127
                            35 C    0.103
    38   1 H    0.999 --     1 C    0.984
    39   1 H    0.999 --     1 C    0.985
    40   1 H    0.998 --     1 C    0.985
    41   1 H    0.999 --     2 C    0.978
    42   1 H    0.998 --     2 C    0.972
    43   1 H    0.998 --     4 C    0.972
    44   1 H    0.999 --     4 C    0.978
    45   1 H    0.998 --     5 C    0.985
    46   1 H    0.999 --     5 C    0.985
    47   1 H    0.999 --     5 C    0.984
    48   1 H    0.998 --     7 C    0.963
    49   1 H    0.998 --    10 C    0.962
    50   1 H    0.998 --    13 C    0.965
    51   1 H    0.998 --    16 C    0.963
    52   1 H    0.998 --    20 C    0.972
    53   1 H    0.999 --    21 C    0.964
    54   1 H    0.998 --    24 C    0.975
    55   1 H    0.998 --    24 C    0.976
    56   1 H    0.998 --    25 C    0.987
    57   1 H    0.999 --    25 C    0.986
    58   1 H    0.999 --    25 C    0.987
    59   1 H    0.998 --    26 C    0.975
    60   1 H    0.998 --    26 C    0.976
    61   1 H    0.999 --    27 C    0.987
    62   1 H    0.999 --    27 C    0.986
    63   1 H    0.998 --    27 C    0.987
    64   1 H    0.999 --    29 C    0.978
    65   1 H    0.998 --    29 C    0.973
    66   1 H    0.999 --    30 C    0.985
    67   1 H    0.998 --    30 C    0.984
    68   1 H    0.998 --    30 C    0.985
    69   1 H    0.999 --    31 C    0.977
    70   1 H    0.998 --    31 C    0.972
    71   1 H    0.999 --    32 C    0.985
    72   1 H    0.999 --    32 C    0.984
    73   1 H    0.998 --    32 C    0.986
    74   1 H    0.999 --    34 C    0.961
    75   1 H    0.998 --    35 C    0.972
 ---------------------------------------------------------------------------

Topologies differ in bond orders
Writing corrected topology to xtbtopo.mol

molecular dipole:
                 x           y           z       tot (Debye)
 q only:       -0.031       0.008      -0.522
   full:       -0.047       0.008      -1.003       2.551
molecular quadrupole (traceless):
                xx          xy          yy          xz          yz          zz
 q only:       -6.623      -0.490      -1.186      -0.023       0.809       7.808
  q+dip:        4.170       2.273     -10.319      -0.304       1.677       6.149
   full:        0.827       0.882      -3.690      -0.295       1.689       2.864

           -------------------------------------------------
          |                Geometry Summary                 |
           -------------------------------------------------

      molecular mass/u    :      522.8070798
   center of mass at/Å    :       -0.0511780      -0.6581824       0.5173422
  moments of inertia/u·Å² :        0.2748304E+04   0.9992430E+04   0.1172865E+05
rotational constants/cm⁻¹ :        0.6133832E-02   0.1687040E-02   0.1437304E-02

 * 72 selected distances

     #   Z          #   Z                                           value/Å
     1   6 C        2   6 C                                       1.5231881
     4   6 C        5   6 C                                       1.5232301
     6   6 C        7   6 C                                       1.3793543
     7   6 C        8   6 C                                       1.3887994
     8   6 C        9   6 C                                       1.4116030
     9   6 C       10   6 C                                       1.3769205
     6   6 C       11   6 C                                       1.4049974
    10   6 C       11   6 C                                       1.3918442
    12   6 C       13   6 C                                       1.3921842
    13   6 C       14   6 C                                       1.3753394
    14   6 C       15   6 C                                       1.4112809
    15   6 C       16   6 C                                       1.3883397
    12   6 C       17   6 C                                       1.4054553
    16   6 C       17   6 C                                       1.3803245
    15   6 C       18   6 C                                       1.4355411
    18   6 C       19  16 S                                       1.7200023
    19  16 S       20   6 C                                       1.7290366 (max)
    20   6 C       21   6 C                                       1.3628688
    18   6 C       22   6 C                                       1.3767339
    21   6 C       22   6 C                                       1.4050837
    22   6 C       23   6 C                                       1.5037319
    23   6 C       24   6 C                                       1.5395032
    24   6 C       25   6 C                                       1.5237390
    23   6 C       26   6 C                                       1.5399180
    26   6 C       27   6 C                                       1.5237941
    29   6 C       30   6 C                                       1.5230348
    28   6 C       31   6 C                                       1.5404232
    31   6 C       32   6 C                                       1.5230379
    33   6 C       34   6 C                                       1.4066459
    34   6 C       35   6 C                                       1.3625741
    35   6 C       36  16 S                                       1.7275896
     8   6 C       37   6 C                                       1.4335369
    33   6 C       37   6 C                                       1.3765393
    36  16 S       37   6 C                                       1.7197085
     1   6 C       38   1 H                                       1.0861372
     1   6 C       39   1 H                                       1.0867764
     1   6 C       40   1 H                                       1.0884833
     2   6 C       41   1 H                                       1.0937101
     2   6 C       42   1 H                                       1.0914295
     4   6 C       43   1 H                                       1.0914040
     4   6 C       44   1 H                                       1.0937127
     5   6 C       45   1 H                                       1.0884891
     5   6 C       46   1 H                                       1.0867817
     5   6 C       47   1 H                                       1.0861893
     7   6 C       48   1 H                                       1.0789931
    10   6 C       49   1 H                                       1.0789715
    13   6 C       50   1 H                                       1.0800078
    16   6 C       51   1 H                                       1.0789567
    20   6 C       52   1 H                                       1.0721995
    21   6 C       53   1 H                                       1.0754963
    24   6 C       54   1 H                                       1.0922137
    24   6 C       55   1 H                                       1.0925425
    25   6 C       56   1 H                                       1.0877016
    25   6 C       57   1 H                                       1.0877785
    25   6 C       58   1 H                                       1.0876035
    26   6 C       59   1 H                                       1.0921902
    26   6 C       60   1 H                                       1.0925196
    27   6 C       61   1 H                                       1.0875789
    27   6 C       62   1 H                                       1.0877757
    27   6 C       63   1 H                                       1.0876733
    29   6 C       64   1 H                                       1.0934651
    29   6 C       65   1 H                                       1.0917801
    30   6 C       66   1 H                                       1.0869513
    30   6 C       67   1 H                                       1.0862703
    30   6 C       68   1 H                                       1.0884634
    31   6 C       69   1 H                                       1.0934659
    31   6 C       70   1 H                                       1.0911614
    32   6 C       71   1 H                                       1.0868803
    32   6 C       72   1 H                                       1.0862432
    32   6 C       73   1 H                                       1.0882667
    34   6 C       74   1 H                                       1.0752789
    35   6 C       75   1 H                                       1.0721962 (min)

 * 3 distinct bonds (by element types)

   Z      Z             #   av. dist./Å        max./Å        min./Å
   1 H    6 C          38     1.0866773     1.0937127     1.0721962
   6 C    6 C          30     1.4376522     1.5404232     1.3625741
   6 C   16 S           4     1.7240843     1.7290366     1.7197085


optimized geometry written to: xtbopt.mol


           -------------------------------------------------
          | TOTAL ENERGY             -100.894125990083 Eh   |
          | GRADIENT NORM               0.000465587931 Eh/α |
          | HOMO-LUMO GAP               2.292280294705 eV   |
           -------------------------------------------------

------------------------------------------------------------------------
 * finished run on 2022/01/17 at 14:31:05.059     
------------------------------------------------------------------------
 total:
 * wall-time:     0 d,  0 h,  0 min,  2.281 sec
 *  cpu-time:     0 d,  0 h,  0 min,  2.280 sec
 * ratio c/w:     1.000 speedup
 SCF:
 * wall-time:     0 d,  0 h,  0 min,  0.202 sec
 *  cpu-time:     0 d,  0 h,  0 min,  0.202 sec
 * ratio c/w:     0.999 speedup
 ANC optimizer:
 * wall-time:     0 d,  0 h,  0 min,  2.044 sec
 *  cpu-time:     0 d,  0 h,  0 min,  2.044 sec
 * ratio c/w:     1.000 speedup

