      -----------------------------------------------------------      
     |                   =====================                   |     
     |                           x T B                           |     
     |                   =====================                   |     
     |                         S. Grimme                         |     
     |          Mulliken Center for Theoretical Chemistry        |     
     |                    University of Bonn                     |     
      -----------------------------------------------------------      

   * xtb version 6.4.1 (unknown) compiled by 'oda6@login1.crc.pitt.edu' on 2021-06-25

   xtb is free software: you can redistribute it and/or modify it under
   the terms of the GNU Lesser General Public License as published by
   the Free Software Foundation, either version 3 of the License, or
   (at your option) any later version.
   
   xtb is distributed in the hope that it will be useful,
   but WITHOUT ANY WARRANTY; without even the implied warranty of
   MERCHANTABILITY or FITNESS FOR A PARTICULAR PURPOSE.  See the
   GNU Lesser General Public License for more details.
   
   Cite this work as:
   * C. Bannwarth, E. Caldeweyher, S. Ehlert, A. Hansen, P. Pracht,
     J. Seibert, S. Spicher, S. Grimme, WIREs Comput. Mol. Sci., 2020, 11,
     e01493. DOI: 10.1002/wcms.1493
   
   for GFN2-xTB:
   * C. Bannwarth, S. Ehlert and S. Grimme., J. Chem. Theory Comput., 2019,
     15, 1652-1671. DOI: 10.1021/acs.jctc.8b01176
   for GFN1-xTB:
   * S. Grimme, C. Bannwarth, P. Shushkov, J. Chem. Theory Comput., 2017,
     13, 1989-2009. DOI: 10.1021/acs.jctc.7b00118
   for GFN0-xTB:
   * P. Pracht, E. Caldeweyher, S. Ehlert, S. Grimme, ChemRxiv, 2019, preprint.
     DOI: 10.26434/chemrxiv.8326202.v1
   for GFN-FF:
   * S. Spicher and S. Grimme, Angew. Chem. Int. Ed., 2020, 59, 15665-15673.
     DOI: 10.1002/anie.202004239
   
   for DFT-D4:
   * E. Caldeweyher, C. Bannwarth and S. Grimme, J. Chem. Phys., 2017,
     147, 034112. DOI: 10.1063/1.4993215
   * E. Caldeweyher, S. Ehlert, A. Hansen, H. Neugebauer, S. Spicher,
     C. Bannwarth and S. Grimme, J. Chem. Phys., 2019, 150, 154122.
     DOI: 10.1063/1.5090222
   * E. Caldeweyher, J.-M. Mewes, S. Ehlert and S. Grimme, Phys. Chem. Chem. Phys.
     2020, 22, 8499-8512. DOI: 10.1039/D0CP00502A
   
   for sTDA-xTB:
   * S. Grimme and C. Bannwarth, J. Chem. Phys., 2016, 145, 054103.
     DOI: 10.1063/1.4959605
   
   in the mass-spec context:
   * V. Asgeirsson, C. Bauer and S. Grimme, Chem. Sci., 2017, 8, 4879.
     DOI: 10.1039/c7sc00601b
   * J. Koopman and S. Grimme, ACS Omega 2019, 4, 12, 15120-15133.
     DOI: 10.1021/acsomega.9b02011
   
   for metadynamics refer to:
   * S. Grimme, J. Chem. Theory Comput., 2019, 155, 2847-2862
     DOI: 10.1021/acs.jctc.9b00143
   
   for SPH calculations refer to:
   * S. Spicher and S. Grimme, J. Chem. Theory Comput., 2021, 17, 1701-1714
     DOI: 10.1021/acs.jctc.0c01306
   
   with help from (in alphabetical order)
   P. Atkinson, C. Bannwarth, F. Bohle, G. Brandenburg, E. Caldeweyher
   M. Checinski, S. Dohm, S. Ehlert, S. Ehrlich, I. Gerasimov, J. Koopman
   C. Lavigne, S. Lehtola, F. März, M. Müller, F. Musil, H. Neugebauer
   J. Pisarek, C. Plett, P. Pracht, J. Seibert, P. Shushkov, S. Spicher
   M. Stahn, M. Steiner, T. Strunk, J. Stückrath, T. Rose, and J. Unsleber
   
 * started run on 2022/01/17 at 14:58:21.593     

           -------------------------------------------------
          |                Calculation Setup                |
           -------------------------------------------------

          program call               : /ihome/ghutchison/oda6/xtb/xtb-641/bin//xtb 323.mol -opt
          hostname                   : smp-n43
          coordinate file            : 323.mol
          omp threads                :                     1
          number of atoms            :                    98
          number of electrons        :                   274
          charge                     :                     0
          spin                       :                   0.0
          first test random number   :      0.11895942646617

   ID    Z sym.   atoms
    1    6 C      1-23, 25-27, 29-49, 51-53, 55, 56
    2   16 S      24, 28, 50, 54
    3    1 H      57-98
########################################################################
[WARNING] Please study the warnings concerning your input carefully
-1- prog_main_parseArguments: the use of '-opt' is discouraged, please use '--opt' next time
########################################################################

           -------------------------------------------------
          |                 G F N 2 - x T B                 |
           -------------------------------------------------

        Reference                      10.1021/acs.jctc.8b01176
      * Hamiltonian:
        H0-scaling (s, p, d)           1.850000    2.230000    2.230000
        zeta-weighting                 0.500000
      * Dispersion:
        s8                             2.700000
        a1                             0.520000
        a2                             5.000000
        s9                             5.000000
      * Repulsion:
        kExp                           1.500000    1.000000
        rExp                           1.000000
      * Coulomb:
        alpha                          2.000000
        third order                    shell-resolved
        anisotropic                    true
        a3                             3.000000
        a5                             4.000000
        cn-shift                       1.200000
        cn-exp                         4.000000
        max-rad                        5.000000


          ...................................................
          :                      SETUP                      :
          :.................................................:
          :  # basis functions                 290          :
          :  # atomic orbitals                 286          :
          :  # shells                          158          :
          :  # electrons                       274          :
          :  max. iterations                   250          :
          :  Hamiltonian                  GFN2-xTB          :
          :  restarted?                      false          :
          :  GBSA solvation                  false          :
          :  PC potential                    false          :
          :  electronic temp.          300.0000000     K    :
          :  accuracy                    1.0000000          :
          :  -> integral cutoff          0.2500000E+02      :
          :  -> integral neglect         0.1000000E-07      :
          :  -> SCF convergence          0.1000000E-05 Eh   :
          :  -> wf. convergence          0.1000000E-03 e    :
          :  Broyden damping             0.4000000          :
          ...................................................

 iter      E             dE          RMSdq      gap      omega  full diag
   1   -148.0424055 -0.148042E+03  0.384E+00    2.10       0.0  T
   2   -148.1349681 -0.925627E-01  0.218E+00    2.12       1.0  T
   3   -148.0868950  0.480732E-01  0.971E-01    2.14       1.0  T
   4   -148.1403568 -0.534618E-01  0.403E-01    2.13       1.0  T
   5   -148.1514463 -0.110896E-01  0.126E-01    2.15       1.0  T
   6   -148.1520900 -0.643692E-03  0.570E-02    2.15       1.0  T
   7   -148.1522099 -0.119894E-03  0.220E-02    2.15       1.0  T
   8   -148.1522264 -0.164637E-04  0.949E-03    2.15       1.1  T
   9   -148.1522293 -0.293085E-05  0.462E-03    2.15       2.2  T
  10   -148.1522300 -0.653422E-06  0.229E-03    2.15       4.4  T
  11   -148.1522302 -0.261087E-06  0.899E-04    2.15      11.2  T
  12   -148.1522303 -0.176237E-07  0.536E-04    2.15      18.9  T

   *** convergence criteria satisfied after 12 iterations ***

         #    Occupation            Energy/Eh            Energy/eV
      -------------------------------------------------------------
         1        2.0000           -0.7356484             -20.0180
       ...           ...                  ...                  ...
       131        2.0000           -0.3897895             -10.6067
       132        2.0000           -0.3871790             -10.5357
       133        2.0000           -0.3863968             -10.5144
       134        2.0000           -0.3841237             -10.4525
       135        2.0000           -0.3788498             -10.3090
       136        2.0000           -0.3719916             -10.1224
       137        2.0000           -0.3560311              -9.6881 (HOMO)
       138                         -0.2771873              -7.5426 (LUMO)
       139                         -0.2558753              -6.9627
       140                         -0.2365184              -6.4360
       141                         -0.2270874              -6.1794
       142                         -0.2256287              -6.1397
       ...                                ...                  ...
       286                          0.7917399              21.5443
      -------------------------------------------------------------
                  HL-Gap            0.0788438 Eh            2.1454 eV
             Fermi-level           -0.3166092 Eh           -8.6154 eV

 SCC (total)                   0 d,  0 h,  0 min,  0.443 sec
 SCC setup                      ...        0 min,  0.001 sec (  0.299%)
 Dispersion                     ...        0 min,  0.006 sec (  1.352%)
 classical contributions        ...        0 min,  0.000 sec (  0.090%)
 integral evaluation            ...        0 min,  0.051 sec ( 11.457%)
 iterations                     ...        0 min,  0.231 sec ( 52.117%)
 molecular gradient             ...        0 min,  0.152 sec ( 34.213%)
 printout                       ...        0 min,  0.002 sec (  0.455%)

         :::::::::::::::::::::::::::::::::::::::::::::::::::::
         ::                     SUMMARY                     ::
         :::::::::::::::::::::::::::::::::::::::::::::::::::::
         :: total energy            -145.763950924035 Eh    ::
         :: gradient norm              0.171798429414 Eh/a0 ::
         :: HOMO-LUMO gap              2.145448813599 eV    ::
         ::.................................................::
         :: SCC energy              -148.152230258453 Eh    ::
         :: -> isotropic ES            0.008027473609 Eh    ::
         :: -> anisotropic ES          0.017391604676 Eh    ::
         :: -> anisotropic XC          0.078194531766 Eh    ::
         :: -> dispersion             -0.149463845833 Eh    ::
         :: repulsion energy           2.383202757826 Eh    ::
         :: add. restraining           0.000000000000 Eh    ::
         :: total charge               0.000000000000 e     ::
         :::::::::::::::::::::::::::::::::::::::::::::::::::::

      ----------------------------------------------------------- 
     |                   =====================                   |
     |                        A N C O P T                        |
     |                   =====================                   |
     |               Approximate Normal Coordinate               |
     |                Rational Function Optimizer                |
      ----------------------------------------------------------- 

          ...................................................
          :                      SETUP                      :
          :.................................................:
          :   optimization level            normal          :
          :   max. optcycles                   294          :
          :   ANC micro-cycles                  20          :
          :   degrees of freedom               288          :
          :.................................................:
          :   RF solver                   davidson          :
          :   write xtbopt.log                true          :
          :   linear?                        false          :
          :   energy convergence         0.5000000E-05 Eh   :
          :   grad. convergence          0.1000000E-02 Eh/α :
          :   maximium RF displ.         1.0000000          :
          :   Hlow (freq-cutoff)         0.1000000E-01      :
          :   Hmax (freq-cutoff)         5.0000000          :
          :   S6 in model hess.         20.0000000          :
          ...................................................

generating ANC from model Hessian ...
Using Lindh-Hessian (1995)
 Shifting diagonal of input Hessian by   9.947740161800847E-003
 Lowest  eigenvalues of input Hessian
    0.000000    0.000000    0.000000    0.000000    0.000000    0.000000
    0.010000    0.010016    0.010132    0.010148    0.010199    0.010206
    0.010347    0.010435    0.010485    0.010625    0.010658    0.010809
 Highest eigenvalues
    1.938291    1.971168    2.005850    2.043445    2.114053    2.144858
 

........................................................................
.............................. CYCLE    1 ..............................
........................................................................
   1   -148.1522303 -0.148152E+03  0.258E-04    2.15       0.0  T
   2   -148.1522303  0.200458E-09  0.222E-04    2.15      45.5  T
   3   -148.1522303 -0.463393E-08  0.103E-04    2.15      98.0  T
     SCC iter.                  ...        0 min,  0.059 sec
     gradient                   ...        0 min,  0.151 sec
 * total energy  :  -145.7639509 Eh     change       -0.9287874E-08 Eh
   gradient norm :     0.1718009 Eh/α   predicted     0.0000000E+00 (-100.00%)
   displ. norm   :     0.3718820 α      lambda       -0.4336149E-01
   maximum displ.:     0.1186483 α      in ANC's #156, #78, #157, ...

........................................................................
.............................. CYCLE    2 ..............................
........................................................................
   1   -148.2477641 -0.148248E+03  0.251E-01    2.06       0.0  T
   2   -148.2481015 -0.337391E-03  0.155E-01    2.06       1.0  T
   3   -148.2478078  0.293634E-03  0.698E-02    2.06       1.0  T
   4   -148.2482141 -0.406296E-03  0.233E-02    2.06       1.0  T
   5   -148.2482315 -0.173623E-04  0.124E-02    2.06       1.0  T
   6   -148.2482380 -0.654925E-05  0.321E-03    2.06       3.1  T
   7   -148.2482385 -0.478929E-06  0.158E-03    2.06       6.4  T
   8   -148.2482387 -0.179018E-06  0.757E-04    2.06      13.3  T
   9   -148.2482387 -0.375661E-08  0.275E-04    2.06      36.7  T
     SCC iter.                  ...        0 min,  0.170 sec
     gradient                   ...        0 min,  0.151 sec
 * total energy  :  -145.7934459 Eh     change       -0.2949497E-01 Eh
   gradient norm :     0.0673380 Eh/α   predicted    -0.2468738E-01 ( -16.30%)
   displ. norm   :     0.3659364 α      lambda       -0.1155434E-01
   maximum displ.:     0.0896551 α      in ANC's #56, #35, #29, ...

........................................................................
.............................. CYCLE    3 ..............................
........................................................................
   1   -148.2966094 -0.148297E+03  0.152E-01    2.02       0.0  T
   2   -148.2967393 -0.129924E-03  0.921E-02    2.02       1.0  T
   3   -148.2966504  0.889473E-04  0.408E-02    2.02       1.0  T
   4   -148.2967798 -0.129392E-03  0.134E-02    2.02       1.0  T
   5   -148.2967864 -0.661982E-05  0.653E-03    2.02       1.5  T
   6   -148.2967883 -0.195568E-05  0.207E-03    2.02       4.9  T
   7   -148.2967886 -0.268321E-06  0.903E-04    2.02      11.2  T
   8   -148.2967887 -0.640049E-07  0.430E-04    2.02      23.5  T
     SCC iter.                  ...        0 min,  0.152 sec
     gradient                   ...        0 min,  0.151 sec
 * total energy  :  -145.8004539 Eh     change       -0.7007981E-02 Eh
   gradient norm :     0.0195863 Eh/α   predicted    -0.6555490E-02 (  -6.46%)
   displ. norm   :     0.3296110 α      lambda       -0.2317764E-02
   maximum displ.:     0.1129077 α      in ANC's #29, #27, #35, ...

........................................................................
.............................. CYCLE    4 ..............................
........................................................................
   1   -148.3041758 -0.148304E+03  0.722E-02    2.02       0.0  T
   2   -148.3041890 -0.131971E-04  0.425E-02    2.02       1.0  T
   3   -148.3041630  0.259996E-04  0.176E-02    2.02       1.0  T
   4   -148.3041941 -0.311850E-04  0.468E-03    2.02       2.2  T
   5   -148.3041956 -0.149964E-05  0.183E-03    2.02       5.5  T
   6   -148.3041958 -0.168312E-06  0.843E-04    2.02      12.0  T
   7   -148.3041959 -0.451574E-07  0.330E-04    2.02      30.7  T
     SCC iter.                  ...        0 min,  0.134 sec
     gradient                   ...        0 min,  0.152 sec
 * total energy  :  -145.8021502 Eh     change       -0.1696361E-02 Eh
   gradient norm :     0.0120865 Eh/α   predicted    -0.1284804E-02 ( -24.26%)
   displ. norm   :     0.4000372 α      lambda       -0.1459309E-02
   maximum displ.:     0.1410499 α      in ANC's #29, #12, #18, ...

........................................................................
.............................. CYCLE    5 ..............................
........................................................................
   1   -148.3067544 -0.148307E+03  0.727E-02    2.03       0.0  T
   2   -148.3067620 -0.752625E-05  0.415E-02    2.03       1.0  T
   3   -148.3067434  0.185326E-04  0.149E-02    2.03       1.0  T
   4   -148.3067643 -0.208677E-04  0.475E-03    2.03       2.1  T
   5   -148.3067656 -0.126491E-05  0.210E-03    2.03       4.8  T
   6   -148.3067658 -0.230405E-06  0.782E-04    2.03      12.9  T
   7   -148.3067658 -0.454384E-07  0.297E-04    2.03      34.0  T
     SCC iter.                  ...        0 min,  0.144 sec
     gradient                   ...        0 min,  0.152 sec
 * total energy  :  -145.8031641 Eh     change       -0.1013858E-02 Eh
   gradient norm :     0.0064935 Eh/α   predicted    -0.8464249E-03 ( -16.51%)
   displ. norm   :     0.3707050 α      lambda       -0.7272905E-03
   maximum displ.:     0.1576334 α      in ANC's #12, #10, #18, ...

........................................................................
.............................. CYCLE    6 ..............................
........................................................................
   1   -148.3081254 -0.148308E+03  0.597E-02    2.04       0.0  T
   2   -148.3081280 -0.258394E-05  0.335E-02    2.04       1.0  T
   3   -148.3081211  0.681858E-05  0.968E-03    2.04       1.0  T
   4   -148.3081286 -0.750031E-05  0.357E-03    2.04       2.8  T
   5   -148.3081291 -0.414946E-06  0.154E-03    2.04       6.6  T
   6   -148.3081293 -0.198342E-06  0.479E-04    2.04      21.1  T
   7   -148.3081293 -0.201638E-07  0.207E-04    2.04      48.8  T
     SCC iter.                  ...        0 min,  0.135 sec
     gradient                   ...        0 min,  0.152 sec
 * total energy  :  -145.8037236 Eh     change       -0.5594795E-03 Eh
   gradient norm :     0.0072822 Eh/α   predicted    -0.4136309E-03 ( -26.07%)
   displ. norm   :     0.4498777 α      lambda       -0.7023861E-03
   maximum displ.:     0.2080683 α      in ANC's #12, #10, #11, ...

........................................................................
.............................. CYCLE    7 ..............................
........................................................................
   1   -148.3089038 -0.148309E+03  0.684E-02    2.05       0.0  T
   2   -148.3089058 -0.204979E-05  0.384E-02    2.05       1.0  T
   3   -148.3088989  0.697514E-05  0.973E-03    2.05       1.0  T
   4   -148.3089066 -0.776568E-05  0.374E-03    2.05       2.7  T
   5   -148.3089069 -0.312889E-06  0.130E-03    2.05       7.8  T
   6   -148.3089071 -0.190537E-06  0.347E-04    2.05      29.1  T
   7   -148.3089071 -0.711168E-08  0.186E-04    2.05      54.2  T
     SCC iter.                  ...        0 min,  0.133 sec
     gradient                   ...        0 min,  0.152 sec
 * total energy  :  -145.8042809 Eh     change       -0.5573315E-03 Eh
   gradient norm :     0.0084930 Eh/α   predicted    -0.4222737E-03 ( -24.23%)
   displ. norm   :     0.4768542 α      lambda       -0.6532374E-03
   maximum displ.:     0.2312083 α      in ANC's #12, #10, #11, ...

........................................................................
.............................. CYCLE    8 ..............................
........................................................................
   1   -148.3094261 -0.148309E+03  0.700E-02    2.05       0.0  T
   2   -148.3094282 -0.208996E-05  0.394E-02    2.05       1.0  T
   3   -148.3094235  0.469317E-05  0.834E-03    2.05       1.2  T
   4   -148.3094285 -0.505828E-05  0.381E-03    2.05       2.7  T
   5   -148.3094291 -0.554748E-06  0.126E-03    2.05       8.0  T
   6   -148.3094292 -0.138565E-06  0.323E-04    2.05      31.2  T
   7   -148.3094292 -0.633182E-08  0.152E-04    2.05      66.4  T
     SCC iter.                  ...        0 min,  0.136 sec
     gradient                   ...        0 min,  0.152 sec
 * total energy  :  -145.8048008 Eh     change       -0.5198729E-03 Eh
   gradient norm :     0.0073664 Eh/α   predicted    -0.4008935E-03 ( -22.89%)
   displ. norm   :     0.4741067 α      lambda       -0.5483559E-03
   maximum displ.:     0.2386172 α      in ANC's #12, #10, #11, ...

........................................................................
.............................. CYCLE    9 ..............................
........................................................................
   1   -148.3101874 -0.148310E+03  0.682E-02    2.05       0.0  T
   2   -148.3101896 -0.226719E-05  0.382E-02    2.05       1.0  T
   3   -148.3101877  0.192690E-05  0.665E-03    2.05       1.5  T
   4   -148.3101895 -0.177721E-05  0.374E-03    2.05       2.7  T
   5   -148.3101903 -0.780072E-06  0.127E-03    2.05       7.9  T
   6   -148.3101904 -0.117831E-06  0.362E-04    2.05      27.9  T
   7   -148.3101904 -0.807290E-08  0.151E-04    2.05      67.0  T
     SCC iter.                  ...        0 min,  0.133 sec
     gradient                   ...        0 min,  0.151 sec
 * total energy  :  -145.8052288 Eh     change       -0.4280203E-03 Eh
   gradient norm :     0.0048305 Eh/α   predicted    -0.3358104E-03 ( -21.54%)
   displ. norm   :     0.4520779 α      lambda       -0.4091267E-03
   maximum displ.:     0.2326709 α      in ANC's #12, #10, #11, ...

........................................................................
.............................. CYCLE   10 ..............................
........................................................................
   1   -148.3108871 -0.148311E+03  0.644E-02    2.05       0.0  T
   2   -148.3108890 -0.187623E-05  0.361E-02    2.05       1.0  T
   3   -148.3108877  0.136809E-05  0.616E-03    2.05       1.6  T
   4   -148.3108890 -0.130331E-05  0.349E-03    2.05       2.9  T
   5   -148.3108896 -0.631543E-06  0.924E-04    2.05      10.9  T
   6   -148.3108896 -0.574103E-07  0.344E-04    2.05      29.4  T
     SCC iter.                  ...        0 min,  0.115 sec
     gradient                   ...        0 min,  0.152 sec
 * total energy  :  -145.8055477 Eh     change       -0.3188870E-03 Eh
   gradient norm :     0.0036450 Eh/α   predicted    -0.2463924E-03 ( -22.73%)
   displ. norm   :     0.4331566 α      lambda       -0.3228167E-03
   maximum displ.:     0.2225923 α      in ANC's #12, #10, #11, ...

........................................................................
.............................. CYCLE   11 ..............................
........................................................................
   1   -148.3114650 -0.148311E+03  0.618E-02    2.05       0.0  T
   2   -148.3114664 -0.140999E-05  0.347E-02    2.05       1.0  T
   3   -148.3114651  0.128031E-05  0.585E-03    2.05       1.7  T
   4   -148.3114663 -0.120327E-05  0.333E-03    2.05       3.0  T
   5   -148.3114669 -0.577365E-06  0.740E-04    2.05      13.7  T
   6   -148.3114670 -0.418697E-07  0.294E-04    2.05      34.4  T
     SCC iter.                  ...        0 min,  0.124 sec
     gradient                   ...        0 min,  0.152 sec
 * total energy  :  -145.8058034 Eh     change       -0.2557297E-03 Eh
   gradient norm :     0.0042045 Eh/α   predicted    -0.1917421E-03 ( -25.02%)
   displ. norm   :     0.4495894 α      lambda       -0.2970423E-03
   maximum displ.:     0.2234047 α      in ANC's #12, #11, #10, ...

........................................................................
.............................. CYCLE   12 ..............................
........................................................................
   1   -148.3116809 -0.148312E+03  0.649E-02    2.05       0.0  T
   2   -148.3116822 -0.131916E-05  0.367E-02    2.05       1.0  T
   3   -148.3116808  0.138417E-05  0.591E-03    2.05       1.7  T
   4   -148.3116821 -0.129551E-05  0.332E-03    2.05       3.0  T
   5   -148.3116827 -0.576944E-06  0.849E-04    2.05      11.9  T
   6   -148.3116828 -0.693931E-07  0.267E-04    2.05      37.9  T
     SCC iter.                  ...        0 min,  0.116 sec
     gradient                   ...        0 min,  0.152 sec
 * total energy  :  -145.8060417 Eh     change       -0.2382512E-03 Eh
   gradient norm :     0.0046939 Eh/α   predicted    -0.1785438E-03 ( -25.06%)
   displ. norm   :     0.4845401 α      lambda       -0.2919981E-03
   maximum displ.:     0.2255188 α      in ANC's #12, #11, #10, ...

........................................................................
.............................. CYCLE   13 ..............................
........................................................................
   1   -148.3114527 -0.148311E+03  0.710E-02    2.05       0.0  T
   2   -148.3114543 -0.158517E-05  0.404E-02    2.05       1.0  T
   3   -148.3114514  0.289703E-05  0.701E-03    2.05       1.4  T
   4   -148.3114544 -0.302532E-05  0.339E-03    2.05       3.0  T
   5   -148.3114549 -0.506904E-06  0.111E-03    2.05       9.1  T
   6   -148.3114550 -0.139025E-06  0.298E-04    2.05      33.9  T
   7   -148.3114550 -0.213589E-08  0.184E-04    2.05      54.8  T
     SCC iter.                  ...        0 min,  0.135 sec
     gradient                   ...        0 min,  0.152 sec
 * total energy  :  -145.8062747 Eh     change       -0.2329996E-03 Eh
   gradient norm :     0.0044846 Eh/α   predicted    -0.1802825E-03 ( -22.63%)
   displ. norm   :     0.4940870 α      lambda       -0.2671839E-03
   maximum displ.:     0.2102919 α      in ANC's #12, #11, #10, ...

........................................................................
.............................. CYCLE   14 ..............................
........................................................................
   1   -148.3107315 -0.148311E+03  0.738E-02    2.05       0.0  T
   2   -148.3107334 -0.183446E-05  0.422E-02    2.05       1.0  T
   3   -148.3107286  0.473843E-05  0.797E-03    2.05       1.3  T
   4   -148.3107338 -0.518737E-05  0.327E-03    2.05       3.1  T
   5   -148.3107342 -0.379419E-06  0.119E-03    2.05       8.5  T
   6   -148.3107344 -0.168307E-06  0.342E-04    2.05      29.6  T
   7   -148.3107344 -0.558643E-08  0.192E-04    2.05      52.5  T
     SCC iter.                  ...        0 min,  0.130 sec
     gradient                   ...        0 min,  0.151 sec
 * total energy  :  -145.8064851 Eh     change       -0.2104583E-03 Eh
   gradient norm :     0.0040342 Eh/α   predicted    -0.1662051E-03 ( -21.03%)
   displ. norm   :     0.4664039 α      lambda       -0.2290986E-03
   maximum displ.:     0.1769581 α      in ANC's #11, #12, #4, ...

........................................................................
.............................. CYCLE   15 ..............................
........................................................................
   1   -148.3107066 -0.148311E+03  0.709E-02    2.05       0.0  T
   2   -148.3107083 -0.166287E-05  0.407E-02    2.05       1.0  T
   3   -148.3107033  0.496286E-05  0.789E-03    2.05       1.3  T
   4   -148.3107088 -0.550216E-05  0.296E-03    2.05       3.4  T
   5   -148.3107091 -0.271909E-06  0.111E-03    2.05       9.1  T
   6   -148.3107092 -0.141983E-06  0.320E-04    2.05      31.6  T
   7   -148.3107092 -0.533788E-08  0.170E-04    2.05      59.5  T
     SCC iter.                  ...        0 min,  0.132 sec
     gradient                   ...        0 min,  0.152 sec
 * total energy  :  -145.8066599 Eh     change       -0.1747911E-03 Eh
   gradient norm :     0.0040996 Eh/α   predicted    -0.1394690E-03 ( -20.21%)
   displ. norm   :     0.4529839 α      lambda       -0.2000754E-03
   maximum displ.:     0.1790927 α      in ANC's #4, #6, #11, ...

........................................................................
.............................. CYCLE   16 ..............................
........................................................................
   1   -148.3094076 -0.148309E+03  0.696E-02    2.05       0.0  T
   2   -148.3094092 -0.154184E-05  0.400E-02    2.05       1.0  T
   3   -148.3094067  0.246057E-05  0.630E-03    2.05       1.6  T
   4   -148.3094094 -0.272061E-05  0.286E-03    2.05       3.5  T
   5   -148.3094097 -0.328060E-06  0.993E-04    2.05      10.2  T
   6   -148.3094098 -0.896426E-07  0.351E-04    2.05      28.7  T
     SCC iter.                  ...        0 min,  0.113 sec
     gradient                   ...        0 min,  0.151 sec
 * total energy  :  -145.8067963 Eh     change       -0.1363588E-03 Eh
   gradient norm :     0.0048878 Eh/α   predicted    -0.1205665E-03 ( -11.58%)
   displ. norm   :     0.3754954 α      lambda       -0.2001783E-03
   maximum displ.:     0.1620453 α      in ANC's #4, #6, #10, ...

........................................................................
.............................. CYCLE   17 ..............................
........................................................................
   1   -148.3118708 -0.148312E+03  0.604E-02    2.05       0.0  T
   2   -148.3118718 -0.994545E-06  0.349E-02    2.05       1.0  T
   3   -148.3118697  0.210207E-05  0.553E-03    2.05       1.8  T
   4   -148.3118721 -0.240744E-05  0.221E-03    2.05       4.6  T
   5   -148.3118723 -0.136040E-06  0.847E-04    2.05      11.9  T
   6   -148.3118723 -0.648018E-07  0.251E-04    2.05      40.2  T
     SCC iter.                  ...        0 min,  0.116 sec
     gradient                   ...        0 min,  0.151 sec
 * total energy  :  -145.8069220 Eh     change       -0.1257236E-03 Eh
   gradient norm :     0.0049820 Eh/α   predicted    -0.1142037E-03 (  -9.16%)
   displ. norm   :     0.3403795 α      lambda       -0.1453266E-03
   maximum displ.:     0.1533262 α      in ANC's #4, #6, #10, ...

........................................................................
.............................. CYCLE   18 ..............................
........................................................................
   1   -148.3110037 -0.148311E+03  0.482E-02    2.05       0.0  T
   2   -148.3110045 -0.801460E-06  0.277E-02    2.05       1.0  T
   3   -148.3110023  0.224184E-05  0.532E-03    2.05       1.9  T
   4   -148.3110048 -0.246822E-05  0.209E-03    2.05       4.8  T
   5   -148.3110049 -0.154262E-06  0.806E-04    2.05      12.5  T
   6   -148.3110050 -0.556765E-07  0.264E-04    2.05      38.2  T
     SCC iter.                  ...        0 min,  0.116 sec
     gradient                   ...        0 min,  0.151 sec
 * total energy  :  -145.8070404 Eh     change       -0.1183590E-03 Eh
   gradient norm :     0.0040411 Eh/α   predicted    -0.8108387E-04 ( -31.49%)
   displ. norm   :     0.3923647 α      lambda       -0.2413018E-03
   maximum displ.:     0.1894178 α      in ANC's #4, #6, #2, ...

........................................................................
.............................. CYCLE   19 ..............................
........................................................................
   1   -148.3138367 -0.148314E+03  0.549E-02    2.05       0.0  T
   2   -148.3138379 -0.123187E-05  0.319E-02    2.05       1.0  T
   3   -148.3138285  0.940173E-05  0.941E-03    2.05       1.1  T
   4   -148.3138389 -0.103484E-04  0.209E-03    2.05       4.8  T
   5   -148.3138390 -0.166472E-06  0.900E-04    2.05      11.2  T
   6   -148.3138391 -0.501793E-07  0.329E-04    2.05      30.7  T
     SCC iter.                  ...        0 min,  0.116 sec
     gradient                   ...        0 min,  0.153 sec
 * total energy  :  -145.8072071 Eh     change       -0.1666874E-03 Eh
   gradient norm :     0.0043121 Eh/α   predicted    -0.1392291E-03 ( -16.47%)
   displ. norm   :     0.4420823 α      lambda       -0.1979205E-03
   maximum displ.:     0.2160141 α      in ANC's #4, #6, #10, ...

........................................................................
.............................. CYCLE   20 ..............................
........................................................................
   1   -148.3119568 -0.148312E+03  0.592E-02    2.06       0.0  T
   2   -148.3119579 -0.112868E-05  0.342E-02    2.06       1.0  T
   3   -148.3119519  0.608085E-05  0.779E-03    2.06       1.3  T
   4   -148.3119586 -0.671831E-05  0.234E-03    2.06       4.3  T
   5   -148.3119587 -0.144352E-06  0.105E-03    2.06       9.6  T
   6   -148.3119588 -0.107101E-06  0.318E-04    2.06      31.8  T
   7   -148.3119588 -0.666603E-08  0.177E-04    2.06      57.0  T
     SCC iter.                  ...        0 min,  0.135 sec
     gradient                   ...        0 min,  0.152 sec
 * total energy  :  -145.8073564 Eh     change       -0.1493909E-03 Eh
   gradient norm :     0.0049254 Eh/α   predicted    -0.1183017E-03 ( -20.81%)
   displ. norm   :     0.3997676 α      lambda       -0.1747667E-03
   maximum displ.:     0.2012189 α      in ANC's #4, #6, #2, ...
 * RMSD in coord.:     0.6490192 α      energy gain  -0.4340552E-01 Eh

generating ANC from model Hessian ...
Using Lindh-Hessian (1995)
 Shifting diagonal of input Hessian by   9.944712252473828E-003
 Lowest  eigenvalues of input Hessian
    0.000000    0.000000    0.000000    0.000000    0.000000    0.000000
    0.010000    0.010021    0.010151    0.010177    0.010212    0.010238
    0.010291    0.010432    0.010540    0.010626    0.010686    0.010841
 Highest eigenvalues
    1.999159    2.014957    2.016664    2.023799    2.026758    2.093068
 

........................................................................
.............................. CYCLE   21 ..............................
........................................................................
   1   -148.3121543 -0.148312E+03  0.506E-02    2.05       0.0  T
   2   -148.3121549 -0.529237E-06  0.294E-02    2.05       1.0  T
   3   -148.3121527  0.214096E-05  0.460E-03    2.05       2.2  T
   4   -148.3121551 -0.238281E-05  0.153E-03    2.05       6.6  T
   5   -148.3121552 -0.764767E-07  0.674E-04    2.05      15.0  T
   6   -148.3121552 -0.483564E-07  0.181E-04    2.05      55.9  T
     SCC iter.                  ...        0 min,  0.116 sec
     gradient                   ...        0 min,  0.152 sec
 * total energy  :  -145.8075007 Eh     change       -0.1442494E-03 Eh
   gradient norm :     0.0049746 Eh/α   predicted     0.0000000E+00 (-100.00%)
   displ. norm   :     0.0585547 α      lambda       -0.7500919E-04
   maximum displ.:     0.0270043 α      in ANC's #5, #11, #25, ...

........................................................................
.............................. CYCLE   22 ..............................
........................................................................
   1   -148.3133140 -0.148313E+03  0.125E-02    2.05       0.0  T
   2   -148.3133142 -0.209216E-06  0.740E-03    2.05       1.4  T
   3   -148.3133129  0.124154E-05  0.374E-03    2.05       2.7  T
   4   -148.3133144 -0.146305E-05  0.741E-04    2.05      13.6  T
   5   -148.3133144 -0.964732E-08  0.402E-04    2.05      25.1  T
   6   -148.3133144 -0.956686E-08  0.148E-04    2.05      68.3  T
     SCC iter.                  ...        0 min,  0.116 sec
     gradient                   ...        0 min,  0.151 sec
 * total energy  :  -145.8075672 Eh     change       -0.6646169E-04 Eh
   gradient norm :     0.0024789 Eh/α   predicted    -0.4038315E-04 ( -39.24%)
   displ. norm   :     0.1771957 α      lambda       -0.1451871E-03
   maximum displ.:     0.0825942 α      in ANC's #5, #11, #25, ...

........................................................................
.............................. CYCLE   23 ..............................
........................................................................
   1   -148.3142793 -0.148314E+03  0.329E-02    2.05       0.0  T
   2   -148.3142802 -0.978188E-06  0.190E-02    2.05       1.0  T
   3   -148.3142751  0.511017E-05  0.747E-03    2.05       1.4  T
   4   -148.3142809 -0.580287E-05  0.177E-03    2.05       5.7  T
   5   -148.3142810 -0.885636E-07  0.834E-04    2.05      12.1  T
   6   -148.3142811 -0.469475E-07  0.298E-04    2.05      33.9  T
     SCC iter.                  ...        0 min,  0.116 sec
     gradient                   ...        0 min,  0.151 sec
 * total energy  :  -145.8076629 Eh     change       -0.9577143E-04 Eh
   gradient norm :     0.0027338 Eh/α   predicted    -0.7487351E-04 ( -21.82%)
   displ. norm   :     0.1492873 α      lambda       -0.6335750E-04
   maximum displ.:     0.0733948 α      in ANC's #5, #11, #3, ...

........................................................................
.............................. CYCLE   24 ..............................
........................................................................
   1   -148.3140326 -0.148314E+03  0.250E-02    2.05       0.0  T
   2   -148.3140330 -0.314902E-06  0.143E-02    2.05       1.0  T
   3   -148.3140317  0.127142E-05  0.362E-03    2.05       2.8  T
   4   -148.3140331 -0.137367E-05  0.119E-03    2.05       8.5  T
   5   -148.3140331 -0.689737E-07  0.490E-04    2.05      20.6  T
   6   -148.3140331 -0.216157E-07  0.147E-04    2.05      68.9  T
     SCC iter.                  ...        0 min,  0.116 sec
     gradient                   ...        0 min,  0.151 sec
 * total energy  :  -145.8077154 Eh     change       -0.5244224E-04 Eh
   gradient norm :     0.0037890 Eh/α   predicted    -0.3257654E-04 ( -37.88%)
   displ. norm   :     0.2454685 α      lambda       -0.1013446E-03
   maximum displ.:     0.1212831 α      in ANC's #5, #11, #3, ...

........................................................................
.............................. CYCLE   25 ..............................
........................................................................
   1   -148.3131505 -0.148313E+03  0.397E-02    2.05       0.0  T
   2   -148.3131510 -0.551112E-06  0.230E-02    2.05       1.0  T
   3   -148.3131483  0.271518E-05  0.533E-03    2.05       1.9  T
   4   -148.3131513 -0.296436E-05  0.160E-03    2.05       6.3  T
   5   -148.3131514 -0.908382E-07  0.691E-04    2.05      14.6  T
   6   -148.3131514 -0.447555E-07  0.174E-04    2.05      58.2  T
     SCC iter.                  ...        0 min,  0.117 sec
     gradient                   ...        0 min,  0.151 sec
 * total energy  :  -145.8078005 Eh     change       -0.8511676E-04 Eh
   gradient norm :     0.0036431 Eh/α   predicted    -0.5372606E-04 ( -36.88%)
   displ. norm   :     0.3625146 α      lambda       -0.1402575E-03
   maximum displ.:     0.1814336 α      in ANC's #5, #11, #3, ...

........................................................................
.............................. CYCLE   26 ..............................
........................................................................
   1   -148.3118460 -0.148312E+03  0.580E-02    2.05       0.0  T
   2   -148.3118469 -0.907144E-06  0.337E-02    2.05       1.0  T
   3   -148.3118418  0.510755E-05  0.737E-03    2.05       1.4  T
   4   -148.3118474 -0.565526E-05  0.194E-03    2.05       5.2  T
   5   -148.3118475 -0.776510E-07  0.909E-04    2.05      11.1  T
   6   -148.3118476 -0.795548E-07  0.219E-04    2.05      46.2  T
     SCC iter.                  ...        0 min,  0.116 sec
     gradient                   ...        0 min,  0.151 sec
 * total energy  :  -145.8079163 Eh     change       -0.1158161E-03 Eh
   gradient norm :     0.0030317 Eh/α   predicted    -0.7934901E-04 ( -31.49%)
   displ. norm   :     0.4279078 α      lambda       -0.1540599E-03
   maximum displ.:     0.2167085 α      in ANC's #5, #11, #3, ...

........................................................................
.............................. CYCLE   27 ..............................
........................................................................
   1   -148.3108719 -0.148311E+03  0.678E-02    2.05       0.0  T
   2   -148.3108729 -0.100527E-05  0.395E-02    2.05       1.0  T
   3   -148.3108681  0.485730E-05  0.716E-03    2.05       1.4  T
   4   -148.3108735 -0.543000E-05  0.196E-03    2.05       5.2  T
   5   -148.3108736 -0.742519E-07  0.929E-04    2.05      10.9  T
   6   -148.3108736 -0.858471E-07  0.226E-04    2.05      44.8  T
     SCC iter.                  ...        0 min,  0.116 sec
     gradient                   ...        0 min,  0.152 sec
 * total energy  :  -145.8080448 Eh     change       -0.1285016E-03 Eh
   gradient norm :     0.0033813 Eh/α   predicted    -0.9113489E-04 ( -29.08%)
   displ. norm   :     0.4738036 α      lambda       -0.1732085E-03
   maximum displ.:     0.2418306 α      in ANC's #5, #11, #3, ...

........................................................................
.............................. CYCLE   28 ..............................
........................................................................
   1   -148.3108495 -0.148311E+03  0.742E-02    2.05       0.0  T
   2   -148.3108506 -0.105955E-05  0.432E-02    2.05       1.0  T
   3   -148.3108462  0.437461E-05  0.653E-03    2.05       1.5  T
   4   -148.3108511 -0.492668E-05  0.190E-03    2.05       5.3  T
   5   -148.3108512 -0.976663E-07  0.862E-04    2.05      11.7  T
   6   -148.3108513 -0.717297E-07  0.234E-04    2.05      43.1  T
     SCC iter.                  ...        0 min,  0.123 sec
     gradient                   ...        0 min,  0.152 sec
 * total energy  :  -145.8081904 Eh     change       -0.1456045E-03 Eh
   gradient norm :     0.0042560 Eh/α   predicted    -0.1060465E-03 ( -27.17%)
   displ. norm   :     0.5139391 α      lambda       -0.1949615E-03
   maximum displ.:     0.2639521 α      in ANC's #5, #11, #3, ...

........................................................................
.............................. CYCLE   29 ..............................
........................................................................
   1   -148.3119095 -0.148312E+03  0.788E-02    2.05       0.0  T
   2   -148.3119106 -0.116175E-05  0.460E-02    2.05       1.0  T
   3   -148.3119038  0.685340E-05  0.792E-03    2.05       1.3  T
   4   -148.3119114 -0.766366E-05  0.184E-03    2.05       5.5  T
   5   -148.3119115 -0.832389E-07  0.820E-04    2.05      12.3  T
   6   -148.3119116 -0.493957E-07  0.272E-04    2.05      37.1  T
     SCC iter.                  ...        0 min,  0.115 sec
     gradient                   ...        0 min,  0.152 sec
 * total energy  :  -145.8083521 Eh     change       -0.1616711E-03 Eh
   gradient norm :     0.0045790 Eh/α   predicted    -0.1232293E-03 ( -23.78%)
   displ. norm   :     0.5268680 α      lambda       -0.1906682E-03
   maximum displ.:     0.2731577 α      in ANC's #5, #3, #11, ...

........................................................................
.............................. CYCLE   30 ..............................
........................................................................
   1   -148.3131731 -0.148313E+03  0.779E-02    2.06       0.0  T
   2   -148.3131742 -0.112395E-05  0.456E-02    2.06       1.0  T
   3   -148.3131629  0.113194E-04  0.104E-02    2.06       1.0  T
   4   -148.3131754 -0.125313E-04  0.168E-03    2.06       6.0  T
   5   -148.3131754 -0.336780E-07  0.811E-04    2.06      12.5  T
   6   -148.3131755 -0.410324E-07  0.315E-04    2.06      32.1  T
     SCC iter.                  ...        0 min,  0.115 sec
     gradient                   ...        0 min,  0.152 sec
 * total energy  :  -145.8085093 Eh     change       -0.1571869E-03 Eh
   gradient norm :     0.0039423 Eh/α   predicted    -0.1217988E-03 ( -22.51%)
   displ. norm   :     0.5263990 α      lambda       -0.1728850E-03
   maximum displ.:     0.2766283 α      in ANC's #5, #3, #11, ...

........................................................................
.............................. CYCLE   31 ..............................
........................................................................
   1   -148.3139505 -0.148314E+03  0.745E-02    2.06       0.0  T
   2   -148.3139515 -0.996241E-06  0.437E-02    2.06       1.0  T
   3   -148.3139391  0.123984E-04  0.110E-02    2.06       1.0  T
   4   -148.3139528 -0.136795E-04  0.148E-03    2.06       6.8  T
   5   -148.3139528 -0.230991E-07  0.787E-04    2.06      12.8  T
   6   -148.3139528 -0.353851E-07  0.320E-04    2.06      31.6  T
     SCC iter.                  ...        0 min,  0.115 sec
     gradient                   ...        0 min,  0.152 sec
 * total energy  :  -145.8086537 Eh     change       -0.1444031E-03 Eh
   gradient norm :     0.0028777 Eh/α   predicted    -0.1103973E-03 ( -23.55%)
   displ. norm   :     0.5119059 α      lambda       -0.1609968E-03
   maximum displ.:     0.2712632 α      in ANC's #5, #3, #11, ...

........................................................................
.............................. CYCLE   32 ..............................
........................................................................
   1   -148.3147933 -0.148315E+03  0.690E-02    2.06       0.0  T
   2   -148.3147941 -0.834728E-06  0.405E-02    2.06       1.0  T
   3   -148.3147850  0.909756E-05  0.946E-03    2.06       1.1  T
   4   -148.3147951 -0.100551E-04  0.127E-03    2.06       7.9  T
   5   -148.3147951 -0.320030E-07  0.705E-04    2.06      14.3  T
   6   -148.3147951 -0.233387E-07  0.293E-04    2.06      34.5  T
     SCC iter.                  ...        0 min,  0.115 sec
     gradient                   ...        0 min,  0.152 sec
 * total energy  :  -145.8087905 Eh     change       -0.1367788E-03 Eh
   gradient norm :     0.0023872 Eh/α   predicted    -0.1015934E-03 ( -25.72%)
   displ. norm   :     0.5203694 α      lambda       -0.1596734E-03
   maximum displ.:     0.2750679 α      in ANC's #5, #3, #11, ...

........................................................................
.............................. CYCLE   33 ..............................
........................................................................
   1   -148.3149691 -0.148315E+03  0.679E-02    2.06       0.0  T
   2   -148.3149698 -0.757865E-06  0.398E-02    2.06       1.0  T
   3   -148.3149655  0.432834E-05  0.648E-03    2.06       1.6  T
   4   -148.3149704 -0.487258E-05  0.127E-03    2.06       7.9  T
   5   -148.3149704 -0.506445E-07  0.664E-04    2.06      15.2  T
   6   -148.3149704 -0.196376E-07  0.254E-04    2.06      39.8  T
     SCC iter.                  ...        0 min,  0.116 sec
     gradient                   ...        0 min,  0.151 sec
 * total energy  :  -145.8089292 Eh     change       -0.1387401E-03 Eh
   gradient norm :     0.0029012 Eh/α   predicted    -0.1014560E-03 ( -26.87%)
   displ. norm   :     0.5280603 α      lambda       -0.1723514E-03
   maximum displ.:     0.2785070 α      in ANC's #3, #5, #4, ...

........................................................................
.............................. CYCLE   34 ..............................
........................................................................
   1   -148.3159907 -0.148316E+03  0.664E-02    2.06       0.0  T
   2   -148.3159914 -0.742868E-06  0.388E-02    2.06       1.0  T
   3   -148.3159902  0.118127E-05  0.376E-03    2.06       2.7  T
   4   -148.3159916 -0.141469E-05  0.149E-03    2.06       6.8  T
   5   -148.3159917 -0.103811E-06  0.677E-04    2.06      14.9  T
   6   -148.3159918 -0.339465E-07  0.235E-04    2.06      43.0  T
     SCC iter.                  ...        0 min,  0.115 sec
     gradient                   ...        0 min,  0.152 sec
 * total energy  :  -145.8090774 Eh     change       -0.1482426E-03 Eh
   gradient norm :     0.0035407 Eh/α   predicted    -0.1102088E-03 ( -25.66%)
   displ. norm   :     0.5761099 α      lambda       -0.1779346E-03
   maximum displ.:     0.3076886 α      in ANC's #3, #5, #4, ...

........................................................................
.............................. CYCLE   35 ..............................
........................................................................
   1   -148.3136994 -0.148314E+03  0.734E-02    2.06       0.0  T
   2   -148.3137003 -0.891022E-06  0.429E-02    2.06       1.0  T
   3   -148.3136983  0.195956E-05  0.504E-03    2.05       2.0  T
   4   -148.3137006 -0.231738E-05  0.175E-03    2.06       5.8  T
   5   -148.3137007 -0.821329E-07  0.844E-04    2.06      12.0  T
   6   -148.3137008 -0.581901E-07  0.256E-04    2.06      39.5  T
     SCC iter.                  ...        0 min,  0.116 sec
     gradient                   ...        0 min,  0.152 sec
 * total energy  :  -145.8092271 Eh     change       -0.1496932E-03 Eh
   gradient norm :     0.0037907 Eh/α   predicted    -0.1184967E-03 ( -20.84%)
   displ. norm   :     0.5163652 α      lambda       -0.1938355E-03
   maximum displ.:     0.2913770 α      in ANC's #3, #5, #4, ...

........................................................................
.............................. CYCLE   36 ..............................
........................................................................
   1   -148.3174819 -0.148317E+03  0.639E-02    2.05       0.0  T
   2   -148.3174831 -0.122878E-05  0.369E-02    2.05       1.0  T
   3   -148.3174802  0.287878E-05  0.689E-03    2.05       1.5  T
   4   -148.3174835 -0.324057E-05  0.252E-03    2.05       4.0  T
   5   -148.3174836 -0.168928E-06  0.986E-04    2.05      10.2  T
   6   -148.3174837 -0.811428E-07  0.287E-04    2.05      35.2  T
     SCC iter.                  ...        0 min,  0.116 sec
     gradient                   ...        0 min,  0.152 sec
 * total energy  :  -145.8093633 Eh     change       -0.1361913E-03 Eh
   gradient norm :     0.0037959 Eh/α   predicted    -0.1227650E-03 (  -9.86%)
   displ. norm   :     0.5498352 α      lambda       -0.1622375E-03
   maximum displ.:     0.3067760 α      in ANC's #3, #5, #4, ...

........................................................................
.............................. CYCLE   37 ..............................
........................................................................
   1   -148.3131214 -0.148313E+03  0.704E-02    2.05       0.0  T
   2   -148.3131223 -0.977288E-06  0.410E-02    2.05       1.0  T
   3   -148.3131192  0.309982E-05  0.638E-03    2.05       1.6  T
   4   -148.3131228 -0.352751E-05  0.206E-03    2.05       4.9  T
   5   -148.3131229 -0.976808E-07  0.965E-04    2.05      10.5  T
   6   -148.3131229 -0.723358E-07  0.271E-04    2.05      37.2  T
     SCC iter.                  ...        0 min,  0.116 sec
     gradient                   ...        0 min,  0.152 sec
 * total energy  :  -145.8094866 Eh     change       -0.1233225E-03 Eh
   gradient norm :     0.0031990 Eh/α   predicted    -0.1056541E-03 ( -14.33%)
   displ. norm   :     0.3577021 α      lambda       -0.1137573E-03
   maximum displ.:     0.2122214 α      in ANC's #3, #5, #10, ...

........................................................................
.............................. CYCLE   38 ..............................
........................................................................
   1   -148.3130287 -0.148313E+03  0.442E-02    2.05       0.0  T
   2   -148.3130293 -0.534631E-06  0.254E-02    2.05       1.0  T
   3   -148.3130287  0.606145E-06  0.356E-03    2.05       2.8  T
   4   -148.3130293 -0.676756E-06  0.174E-03    2.05       5.8  T
   5   -148.3130294 -0.115421E-06  0.603E-04    2.05      16.7  T
   6   -148.3130295 -0.283581E-07  0.198E-04    2.05      51.0  T
     SCC iter.                  ...        0 min,  0.115 sec
     gradient                   ...        0 min,  0.151 sec
 * total energy  :  -145.8095852 Eh     change       -0.9855987E-04 Eh
   gradient norm :     0.0030570 Eh/α   predicted    -0.6415752E-04 ( -34.91%)
   displ. norm   :     0.4394062 α      lambda       -0.1688370E-03
   maximum displ.:     0.2665139 α      in ANC's #3, #5, #10, ...

........................................................................
.............................. CYCLE   39 ..............................
........................................................................
   1   -148.3142870 -0.148314E+03  0.537E-02    2.05       0.0  T
   2   -148.3142880 -0.929554E-06  0.307E-02    2.05       1.0  T
   3   -148.3142872  0.735445E-06  0.433E-03    2.05       2.3  T
   4   -148.3142880 -0.810540E-06  0.223E-03    2.05       4.5  T
   5   -148.3142882 -0.214031E-06  0.743E-04    2.05      13.6  T
   6   -148.3142883 -0.419722E-07  0.249E-04    2.05      40.5  T
     SCC iter.                  ...        0 min,  0.117 sec
     gradient                   ...        0 min,  0.152 sec
 * total energy  :  -145.8097245 Eh     change       -0.1392794E-03 Eh
   gradient norm :     0.0031807 Eh/α   predicted    -0.1007183E-03 ( -27.69%)
   displ. norm   :     0.5188588 α      lambda       -0.1699269E-03
   maximum displ.:     0.3191739 α      in ANC's #3, #5, #10, ...

........................................................................
.............................. CYCLE   40 ..............................
........................................................................
   1   -148.3139820 -0.148314E+03  0.640E-02    2.06       0.0  T
   2   -148.3139831 -0.103399E-05  0.367E-02    2.06       1.0  T
   3   -148.3139812  0.182950E-05  0.568E-03    2.06       1.8  T
   4   -148.3139832 -0.195183E-05  0.272E-03    2.06       3.7  T
   5   -148.3139835 -0.303508E-06  0.875E-04    2.06      11.5  T
   6   -148.3139836 -0.710575E-07  0.235E-04    2.06      42.9  T
     SCC iter.                  ...        0 min,  0.125 sec
     gradient                   ...        0 min,  0.152 sec
 * total energy  :  -145.8098632 Eh     change       -0.1387118E-03 Eh
   gradient norm :     0.0038023 Eh/α   predicted    -0.1078389E-03 ( -22.26%)
   displ. norm   :     0.4898980 α      lambda       -0.1438212E-03
   maximum displ.:     0.3068256 α      in ANC's #3, #1, #10, ...

........................................................................
.............................. CYCLE   41 ..............................
........................................................................
   1   -148.3136310 -0.148314E+03  0.597E-02    2.06       0.0  T
   2   -148.3136319 -0.879226E-06  0.343E-02    2.06       1.0  T
   3   -148.3136296  0.222323E-05  0.577E-03    2.06       1.8  T
   4   -148.3136320 -0.240777E-05  0.252E-03    2.06       4.0  T
   5   -148.3136323 -0.231669E-06  0.831E-04    2.06      12.2  T
   6   -148.3136323 -0.671726E-07  0.216E-04    2.06      46.9  T
     SCC iter.                  ...        0 min,  0.116 sec
     gradient                   ...        0 min,  0.151 sec
 * total energy  :  -145.8099798 Eh     change       -0.1166348E-03 Eh
   gradient norm :     0.0033820 Eh/α   predicted    -0.8917518E-04 ( -23.54%)
   displ. norm   :     0.4432027 α      lambda       -0.1244339E-03
   maximum displ.:     0.2867078 α      in ANC's #3, #1, #10, ...

........................................................................
.............................. CYCLE   42 ..............................
........................................................................
   1   -148.3140785 -0.148314E+03  0.553E-02    2.06       0.0  T
   2   -148.3140793 -0.858677E-06  0.318E-02    2.06       1.0  T
   3   -148.3140772  0.211218E-05  0.547E-03    2.06       1.8  T
   4   -148.3140796 -0.232690E-05  0.223E-03    2.06       4.5  T
   5   -148.3140797 -0.165827E-06  0.881E-04    2.06      11.5  T
   6   -148.3140798 -0.675473E-07  0.207E-04    2.06      48.8  T
     SCC iter.                  ...        0 min,  0.117 sec
     gradient                   ...        0 min,  0.151 sec
 * total energy  :  -145.8100749 Eh     change       -0.9508678E-04 Eh
   gradient norm :     0.0027437 Eh/α   predicted    -0.7444373E-04 ( -21.71%)
   displ. norm   :     0.4232824 α      lambda       -0.1043199E-03
   maximum displ.:     0.2790819 α      in ANC's #3, #1, #5, ...
 * RMSD in coord.:     0.8509673 α      energy gain  -0.2718466E-02 Eh

generating ANC from model Hessian ...
Using Lindh-Hessian (1995)
 Shifting diagonal of input Hessian by   9.946722299105986E-003
 Lowest  eigenvalues of input Hessian
    0.000000    0.000000    0.000000    0.000000    0.000000    0.000000
    0.010000    0.010024    0.010164    0.010185    0.010245    0.010258
    0.010343    0.010453    0.010536    0.010645    0.010731    0.010877
 Highest eigenvalues
    1.998443    2.015002    2.017736    2.020490    2.025908    2.092604
 

........................................................................
.............................. CYCLE   43 ..............................
........................................................................
   1   -148.3139213 -0.148314E+03  0.514E-02    2.06       0.0  T
   2   -148.3139221 -0.839910E-06  0.297E-02    2.06       1.0  T
   3   -148.3139208  0.132183E-05  0.430E-03    2.06       2.3  T
   4   -148.3139223 -0.142933E-05  0.196E-03    2.06       5.2  T
   5   -148.3139224 -0.188108E-06  0.780E-04    2.06      12.9  T
   6   -148.3139225 -0.541545E-07  0.236E-04    2.06      42.8  T
     SCC iter.                  ...        0 min,  0.114 sec
     gradient                   ...        0 min,  0.151 sec
 * total energy  :  -145.8101505 Eh     change       -0.7555521E-04 Eh
   gradient norm :     0.0028471 Eh/α   predicted     0.0000000E+00 (-100.00%)
   displ. norm   :     0.0476134 α      lambda       -0.4162257E-04
   maximum displ.:     0.0248165 α      in ANC's #3, #7, #10, ...

........................................................................
.............................. CYCLE   44 ..............................
........................................................................
   1   -148.3157564 -0.148316E+03  0.794E-03    2.06       0.0  T
   2   -148.3157565 -0.743655E-07  0.467E-03    2.06       2.2  T
   3   -148.3157563  0.263051E-06  0.194E-03    2.06       5.2  T
   4   -148.3157566 -0.304699E-06  0.403E-04    2.06      25.0  T
   5   -148.3157566 -0.575886E-08  0.221E-04    2.06      45.8  T
     SCC iter.                  ...        0 min,  0.097 sec
     gradient                   ...        0 min,  0.152 sec
 * total energy  :  -145.8101850 Eh     change       -0.3453321E-04 Eh
   gradient norm :     0.0013026 Eh/α   predicted    -0.2092169E-04 ( -39.42%)
   displ. norm   :     0.2229854 α      lambda       -0.8215020E-04
   maximum displ.:     0.1152655 α      in ANC's #3, #7, #10, ...

........................................................................
.............................. CYCLE   45 ..............................
........................................................................
   1   -148.3196556 -0.148320E+03  0.298E-02    2.06       0.0  T
   2   -148.3196562 -0.652597E-06  0.174E-02    2.06       1.0  T
   3   -148.3196521  0.407319E-05  0.742E-03    2.06       1.4  T
   4   -148.3196568 -0.462186E-05  0.144E-03    2.06       7.0  T
   5   -148.3196568 -0.463117E-07  0.781E-04    2.06      12.9  T
   6   -148.3196569 -0.438349E-07  0.195E-04    2.06      51.9  T
     SCC iter.                  ...        0 min,  0.117 sec
     gradient                   ...        0 min,  0.152 sec
 * total energy  :  -145.8102562 Eh     change       -0.7118981E-04 Eh
   gradient norm :     0.0034600 Eh/α   predicted    -0.4198340E-04 ( -41.03%)
   displ. norm   :     0.0990556 α      lambda       -0.3897314E-04
   maximum displ.:     0.0554912 α      in ANC's #3, #7, #10, ...

........................................................................
.............................. CYCLE   46 ..............................
........................................................................
   1   -148.3189962 -0.148319E+03  0.110E-02    2.06       0.0  T
   2   -148.3189962 -0.444880E-07  0.639E-03    2.06       1.6  T
   3   -148.3189960  0.215248E-06  0.159E-03    2.06       6.3  T
   4   -148.3189962 -0.242274E-06  0.446E-04    2.06      22.7  T
   5   -148.3189962 -0.249534E-08  0.205E-04    2.06      49.2  T
     SCC iter.                  ...        0 min,  0.098 sec
     gradient                   ...        0 min,  0.152 sec
 * total energy  :  -145.8102918 Eh     change       -0.3563190E-04 Eh
   gradient norm :     0.0030216 Eh/α   predicted    -0.1967811E-04 ( -44.77%)
   displ. norm   :     0.2390563 α      lambda       -0.9459328E-04
   maximum displ.:     0.1327503 α      in ANC's #3, #7, #10, ...

........................................................................
.............................. CYCLE   47 ..............................
........................................................................
   1   -148.3167439 -0.148317E+03  0.263E-02    2.06       0.0  T
   2   -148.3167441 -0.265154E-06  0.153E-02    2.06       1.0  T
   3   -148.3167435  0.671674E-06  0.279E-03    2.06       3.6  T
   4   -148.3167443 -0.785007E-06  0.841E-04    2.06      12.0  T
   5   -148.3167443 -0.993398E-08  0.445E-04    2.06      22.7  T
     SCC iter.                  ...        0 min,  0.097 sec
     gradient                   ...        0 min,  0.151 sec
 * total energy  :  -145.8103671 Eh     change       -0.7522932E-04 Eh
   gradient norm :     0.0015923 Eh/α   predicted    -0.4999977E-04 ( -33.54%)
   displ. norm   :     0.4141538 α      lambda       -0.7533942E-04
   maximum displ.:     0.2360898 α      in ANC's #3, #7, #10, ...

........................................................................
.............................. CYCLE   48 ..............................
........................................................................
   1   -148.3138721 -0.148314E+03  0.454E-02    2.06       0.0  T
   2   -148.3138727 -0.631021E-06  0.265E-02    2.06       1.0  T
   3   -148.3138707  0.203264E-05  0.483E-03    2.06       2.1  T
   4   -148.3138730 -0.234662E-05  0.126E-03    2.06       8.0  T
   5   -148.3138730 -0.176404E-07  0.712E-04    2.06      14.2  T
   6   -148.3138731 -0.419012E-07  0.184E-04    2.06      54.9  T
     SCC iter.                  ...        0 min,  0.117 sec
     gradient                   ...        0 min,  0.151 sec
 * total energy  :  -145.8104402 Eh     change       -0.7316929E-04 Eh
   gradient norm :     0.0030006 Eh/α   predicted    -0.4054240E-04 ( -44.59%)
   displ. norm   :     0.1343361 α      lambda       -0.3862630E-04
   maximum displ.:     0.0816810 α      in ANC's #3, #7, #10, ...

........................................................................
.............................. CYCLE   49 ..............................
........................................................................
   1   -148.3144719 -0.148314E+03  0.157E-02    2.06       0.0  T
   2   -148.3144719 -0.513624E-07  0.918E-03    2.06       1.1  T
   3   -148.3144717  0.249658E-06  0.166E-03    2.06       6.1  T
   4   -148.3144719 -0.281141E-06  0.330E-04    2.06      30.6  T
   5   -148.3144720 -0.309817E-08  0.182E-04    2.06      55.5  T
     SCC iter.                  ...        0 min,  0.097 sec
     gradient                   ...        0 min,  0.152 sec
 * total energy  :  -145.8104760 Eh     change       -0.3580640E-04 Eh
   gradient norm :     0.0026363 Eh/α   predicted    -0.1966349E-04 ( -45.08%)
   displ. norm   :     0.2686245 α      lambda       -0.9757769E-04
   maximum displ.:     0.1646761 α      in ANC's #3, #7, #1, ...

........................................................................
.............................. CYCLE   50 ..............................
........................................................................
   1   -148.3165739 -0.148317E+03  0.346E-02    2.06       0.0  T
   2   -148.3165742 -0.276869E-06  0.202E-02    2.06       1.0  T
   3   -148.3165731  0.106551E-05  0.348E-03    2.06       2.9  T
   4   -148.3165743 -0.120867E-05  0.785E-04    2.06      12.9  T
   5   -148.3165743 -0.185407E-07  0.427E-04    2.06      23.6  T
   6   -148.3165743 -0.113635E-07  0.136E-04    2.06      74.0  T
     SCC iter.                  ...        0 min,  0.114 sec
     gradient                   ...        0 min,  0.151 sec
 * total energy  :  -145.8105568 Eh     change       -0.8080489E-04 Eh
   gradient norm :     0.0013996 Eh/α   predicted    -0.5230983E-04 ( -35.26%)
   displ. norm   :     0.5679253 α      lambda       -0.9920340E-04
   maximum displ.:     0.3522908 α      in ANC's #3, #7, #1, ...

........................................................................
.............................. CYCLE   51 ..............................
........................................................................
   1   -148.3181755 -0.148318E+03  0.723E-02    2.06       0.0  T
   2   -148.3181765 -0.971351E-06  0.423E-02    2.06       1.0  T
   3   -148.3181744  0.205385E-05  0.491E-03    2.06       2.1  T
   4   -148.3181769 -0.248338E-05  0.144E-03    2.06       7.0  T
   5   -148.3181769 -0.486154E-07  0.769E-04    2.06      13.1  T
   6   -148.3181770 -0.449287E-07  0.243E-04    2.06      41.5  T
     SCC iter.                  ...        0 min,  0.115 sec
     gradient                   ...        0 min,  0.151 sec
 * total energy  :  -145.8106628 Eh     change       -0.1059616E-03 Eh
   gradient norm :     0.0022645 Eh/α   predicted    -0.5671446E-04 ( -46.48%)
   displ. norm   :     0.2563169 α      lambda       -0.5057965E-04
   maximum displ.:     0.1628963 α      in ANC's #3, #7, #1, ...

........................................................................
.............................. CYCLE   52 ..............................
........................................................................
   1   -148.3179347 -0.148318E+03  0.307E-02    2.06       0.0  T
   2   -148.3179348 -0.139908E-06  0.180E-02    2.06       1.0  T
   3   -148.3179345  0.266699E-06  0.186E-03    2.06       5.4  T
   4   -148.3179349 -0.337152E-06  0.531E-04    2.06      19.0  T
   5   -148.3179349 -0.446542E-08  0.277E-04    2.06      36.4  T
     SCC iter.                  ...        0 min,  0.104 sec
     gradient                   ...        0 min,  0.152 sec
 * total energy  :  -145.8107089 Eh     change       -0.4614304E-04 Eh
   gradient norm :     0.0018530 Eh/α   predicted    -0.2695184E-04 ( -41.59%)
   displ. norm   :     0.3980995 α      lambda       -0.6367837E-04
   maximum displ.:     0.2558904 α      in ANC's #3, #7, #1, ...

........................................................................
.............................. CYCLE   53 ..............................
........................................................................
   1   -148.3173780 -0.148317E+03  0.469E-02    2.06       0.0  T
   2   -148.3173784 -0.368869E-06  0.275E-02    2.06       1.0  T
   3   -148.3173763  0.207942E-05  0.498E-03    2.06       2.0  T
   4   -148.3173786 -0.235615E-05  0.899E-04    2.06      11.2  T
   5   -148.3173787 -0.129399E-07  0.474E-04    2.06      21.3  T
   6   -148.3173787 -0.135599E-07  0.164E-04    2.06      61.7  T
     SCC iter.                  ...        0 min,  0.115 sec
     gradient                   ...        0 min,  0.152 sec
 * total energy  :  -145.8107892 Eh     change       -0.8025514E-04 Eh
   gradient norm :     0.0009334 Eh/α   predicted    -0.3408218E-04 ( -57.53%)
   displ. norm   :     0.4103063 α      lambda       -0.5834974E-04
   maximum displ.:     0.2672208 α      in ANC's #3, #7, #1, ...

........................................................................
.............................. CYCLE   54 ..............................
........................................................................
   1   -148.3165899 -0.148317E+03  0.464E-02    2.06       0.0  T
   2   -148.3165902 -0.343661E-06  0.272E-02    2.06       1.0  T
   3   -148.3165885  0.168452E-05  0.439E-03    2.06       2.3  T
   4   -148.3165905 -0.191871E-05  0.948E-04    2.06      10.7  T
   5   -148.3165905 -0.164220E-07  0.459E-04    2.06      22.0  T
   6   -148.3165905 -0.152293E-07  0.150E-04    2.06      67.2  T
     SCC iter.                  ...        0 min,  0.113 sec
     gradient                   ...        0 min,  0.151 sec
 * total energy  :  -145.8108632 Eh     change       -0.7401489E-04 Eh
   gradient norm :     0.0015918 Eh/α   predicted    -0.3135804E-04 ( -57.63%)
   displ. norm   :     0.4022946 α      lambda       -0.5807212E-04
   maximum displ.:     0.2643899 α      in ANC's #3, #1, #7, ...

........................................................................
.............................. CYCLE   55 ..............................
........................................................................
   1   -148.3168074 -0.148317E+03  0.433E-02    2.06       0.0  T
   2   -148.3168078 -0.346573E-06  0.253E-02    2.06       1.0  T
   3   -148.3168064  0.135467E-05  0.393E-03    2.06       2.6  T
   4   -148.3168079 -0.153989E-05  0.109E-03    2.06       9.3  T
   5   -148.3168080 -0.288669E-07  0.468E-04    2.06      21.6  T
   6   -148.3168080 -0.181809E-07  0.148E-04    2.06      68.1  T
     SCC iter.                  ...        0 min,  0.114 sec
     gradient                   ...        0 min,  0.151 sec
 * total energy  :  -145.8109372 Eh     change       -0.7402136E-04 Eh
   gradient norm :     0.0019460 Eh/α   predicted    -0.3112516E-04 ( -57.95%)
   displ. norm   :     0.4864880 α      lambda       -0.6660081E-04
   maximum displ.:     0.3201552 α      in ANC's #3, #1, #7, ...

........................................................................
.............................. CYCLE   56 ..............................
........................................................................
   1   -148.3161791 -0.148316E+03  0.514E-02    2.06       0.0  T
   2   -148.3161796 -0.467739E-06  0.300E-02    2.06       1.0  T
   3   -148.3161784  0.114156E-05  0.385E-03    2.06       2.6  T
   4   -148.3161798 -0.134550E-05  0.132E-03    2.06       7.6  T
   5   -148.3161798 -0.411916E-07  0.524E-04    2.06      19.3  T
   6   -148.3161798 -0.267589E-07  0.158E-04    2.06      64.1  T
     SCC iter.                  ...        0 min,  0.114 sec
     gradient                   ...        0 min,  0.151 sec
 * total energy  :  -145.8110223 Eh     change       -0.8511891E-04 Eh
   gradient norm :     0.0021431 Eh/α   predicted    -0.3680421E-04 ( -56.76%)
   displ. norm   :     0.4058790 α      lambda       -0.8742444E-04
   maximum displ.:     0.2679431 α      in ANC's #3, #1, #7, ...

........................................................................
.............................. CYCLE   57 ..............................
........................................................................
   1   -148.3165020 -0.148317E+03  0.424E-02    2.06       0.0  T
   2   -148.3165024 -0.387665E-06  0.246E-02    2.06       1.0  T
   3   -148.3165018  0.605361E-06  0.313E-03    2.06       3.2  T
   4   -148.3165025 -0.718282E-06  0.130E-03    2.06       7.8  T
   5   -148.3165026 -0.546632E-07  0.431E-04    2.06      23.4  T
   6   -148.3165026 -0.174221E-07  0.140E-04    2.06      72.0  T
     SCC iter.                  ...        0 min,  0.113 sec
     gradient                   ...        0 min,  0.151 sec
 * total energy  :  -145.8110980 Eh     change       -0.7563237E-04 Eh
   gradient norm :     0.0017312 Eh/α   predicted    -0.5091588E-04 ( -32.68%)
   displ. norm   :     0.7860460 α      lambda       -0.1039189E-03
   maximum displ.:     0.5222654 α      in ANC's #3, #1, #7, ...

........................................................................
.............................. CYCLE   58 ..............................
........................................................................
   1   -148.3156297 -0.148316E+03  0.832E-02    2.06       0.0  T
   2   -148.3156311 -0.142195E-05  0.482E-02    2.06       1.0  T
   3   -148.3156291  0.201940E-05  0.600E-03    2.06       1.7  T
   4   -148.3156315 -0.241104E-05  0.260E-03    2.06       3.9  T
   5   -148.3156317 -0.219659E-06  0.834E-04    2.06      12.1  T
   6   -148.3156318 -0.748948E-07  0.266E-04    2.06      37.9  T
     SCC iter.                  ...        0 min,  0.115 sec
     gradient                   ...        0 min,  0.151 sec
 * total energy  :  -145.8112107 Eh     change       -0.1127606E-03 Eh
   gradient norm :     0.0020925 Eh/α   predicted    -0.6622971E-04 ( -41.27%)
   displ. norm   :     0.3359411 α      lambda       -0.6362380E-04
   maximum displ.:     0.2260194 α      in ANC's #3, #1, #4, ...

........................................................................
.............................. CYCLE   59 ..............................
........................................................................
   1   -148.3167531 -0.148317E+03  0.374E-02    2.06       0.0  T
   2   -148.3167535 -0.367339E-06  0.216E-02    2.06       1.0  T
   3   -148.3167527  0.754689E-06  0.325E-03    2.06       3.1  T
   4   -148.3167536 -0.828819E-06  0.136E-03    2.06       7.4  T
   5   -148.3167536 -0.764165E-07  0.463E-04    2.06      21.8  T
   6   -148.3167537 -0.226878E-07  0.161E-04    2.06      62.9  T
     SCC iter.                  ...        0 min,  0.113 sec
     gradient                   ...        0 min,  0.151 sec
 * total energy  :  -145.8112593 Eh     change       -0.4859181E-04 Eh
   gradient norm :     0.0013092 Eh/α   predicted    -0.3540403E-04 ( -27.14%)
   displ. norm   :     0.6582556 α      lambda       -0.6075297E-04
   maximum displ.:     0.4516903 α      in ANC's #3, #1, #4, ...

........................................................................
.............................. CYCLE   60 ..............................
........................................................................
   1   -148.3169774 -0.148317E+03  0.706E-02    2.06       0.0  T
   2   -148.3169784 -0.101908E-05  0.410E-02    2.06       1.0  T
   3   -148.3169752  0.325478E-05  0.630E-03    2.06       1.6  T
   4   -148.3169788 -0.360728E-05  0.235E-03    2.06       4.3  T
   5   -148.3169790 -0.187356E-06  0.840E-04    2.06      12.0  T
   6   -148.3169790 -0.808323E-07  0.253E-04    2.06      39.9  T
     SCC iter.                  ...        0 min,  0.114 sec
     gradient                   ...        0 min,  0.151 sec
 * total energy  :  -145.8113114 Eh     change       -0.5203595E-04 Eh
   gradient norm :     0.0019091 Eh/α   predicted    -0.3622790E-04 ( -30.38%)
   displ. norm   :     0.2006317 α      lambda       -0.3683292E-04
   maximum displ.:     0.1324734 α      in ANC's #3, #1, #11, ...

........................................................................
.............................. CYCLE   61 ..............................
........................................................................
   1   -148.3195805 -0.148320E+03  0.257E-02    2.06       0.0  T
   2   -148.3195809 -0.333814E-06  0.150E-02    2.06       1.0  T
   3   -148.3195790  0.187264E-05  0.430E-03    2.06       2.3  T
   4   -148.3195811 -0.206291E-05  0.918E-04    2.06      11.0  T
   5   -148.3195811 -0.428506E-07  0.473E-04    2.06      21.4  T
   6   -148.3195811 -0.156175E-07  0.159E-04    2.06      63.4  T
     SCC iter.                  ...        0 min,  0.113 sec
     gradient                   ...        0 min,  0.151 sec
 * total energy  :  -145.8113388 Eh     change       -0.2740494E-04 Eh
   gradient norm :     0.0017729 Eh/α   predicted    -0.1874753E-04 ( -31.59%)
   displ. norm   :     0.2846673 α      lambda       -0.3145288E-04
   maximum displ.:     0.1977366 α      in ANC's #3, #1, #11, ...

........................................................................
.............................. CYCLE   62 ..............................
........................................................................
   1   -148.3187732 -0.148319E+03  0.307E-02    2.06       0.0  T
   2   -148.3187734 -0.196882E-06  0.180E-02    2.06       1.0  T
   3   -148.3187723  0.111580E-05  0.321E-03    2.06       3.1  T
   4   -148.3187735 -0.125063E-05  0.677E-04    2.06      14.9  T
   5   -148.3187735 -0.111646E-07  0.370E-04    2.06      27.3  T
   6   -148.3187736 -0.104944E-07  0.117E-04    2.06      86.4  T
     SCC iter.                  ...        0 min,  0.114 sec
     gradient                   ...        0 min,  0.152 sec
 * total energy  :  -145.8113755 Eh     change       -0.3674399E-04 Eh
   gradient norm :     0.0015940 Eh/α   predicted    -0.1629657E-04 ( -55.65%)
   displ. norm   :     0.4433755 α      lambda       -0.6156810E-04
   maximum displ.:     0.2867197 α      in ANC's #3, #1, #11, ...

........................................................................
.............................. CYCLE   63 ..............................
........................................................................
   1   -148.3182111 -0.148318E+03  0.487E-02    2.06       0.0  T
   2   -148.3182119 -0.748618E-06  0.284E-02    2.06       1.0  T
   3   -148.3182094  0.244483E-05  0.506E-03    2.06       2.0  T
   4   -148.3182122 -0.278458E-05  0.148E-03    2.06       6.8  T
   5   -148.3182123 -0.516627E-07  0.761E-04    2.06      13.3  T
   6   -148.3182123 -0.520421E-07  0.207E-04    2.06      48.7  T
     SCC iter.                  ...        0 min,  0.113 sec
     gradient                   ...        0 min,  0.147 sec
 * total energy  :  -145.8114254 Eh     change       -0.4986456E-04 Eh
   gradient norm :     0.0030970 Eh/α   predicted    -0.3347740E-04 ( -32.86%)
   displ. norm   :     0.1917963 α      lambda       -0.4324169E-04
   maximum displ.:     0.1134736 α      in ANC's #3, #1, #11, ...

........................................................................
.............................. CYCLE   64 ..............................
........................................................................
   1   -148.3171280 -0.148317E+03  0.265E-02    2.06       0.0  T
   2   -148.3171283 -0.276380E-06  0.154E-02    2.06       1.0  T
   3   -148.3171281  0.253533E-06  0.212E-03    2.06       4.8  T
   4   -148.3171284 -0.332207E-06  0.804E-04    2.06      12.6  T
   5   -148.3171284 -0.103216E-07  0.332E-04    2.06      30.4  T
     SCC iter.                  ...        0 min,  0.096 sec
     gradient                   ...        0 min,  0.152 sec
 * total energy  :  -145.8114536 Eh     change       -0.2818936E-04 Eh
   gradient norm :     0.0022904 Eh/α   predicted    -0.2241874E-04 ( -20.47%)
   displ. norm   :     0.1550634 α      lambda       -0.3500761E-04
   maximum displ.:     0.0738524 α      in ANC's #3, #11, #1, ...

[...]
    58   1 H        0.925     0.036     2.504     2.474
    59   1 H        0.925     0.035     2.519     2.482
    60   1 H        0.924     0.039     2.458     2.452
    61   1 H        0.924     0.036     2.507     2.476
    62   1 H        0.926     0.030     2.589     2.516
    63   1 H        0.926     0.030     2.593     2.518
    64   1 H        0.926     0.027     2.632     2.537
    65   1 H        0.926     0.027     2.631     2.537
    66   1 H        0.926     0.030     2.584     2.514
    67   1 H        0.926     0.030     2.587     2.515
    68   1 H        0.924     0.036     2.509     2.477
    69   1 H        0.924     0.036     2.509     2.477
    70   1 H        0.925     0.036     2.504     2.475
    71   1 H        0.925     0.036     2.503     2.474
    72   1 H        0.925     0.036     2.503     2.474
    73   1 H        0.926     0.031     2.570     2.507
    74   1 H        0.926     0.039     2.461     2.453
    75   1 H        0.926     0.040     2.446     2.446
    76   1 H        0.926     0.044     2.399     2.422
    77   1 H        0.926     0.046     2.376     2.411
    78   1 H        0.926     0.035     2.516     2.480
    79   1 H        0.926     0.031     2.569     2.506
    80   1 H        0.926     0.030     2.586     2.515
    81   1 H        0.924     0.036     2.509     2.477
    82   1 H        0.924     0.035     2.512     2.478
    83   1 H        0.925     0.036     2.497     2.471
    84   1 H        0.925     0.036     2.505     2.475
    85   1 H        0.925     0.036     2.509     2.477
    86   1 H        0.926     0.028     2.609     2.526
    87   1 H        0.926     0.029     2.595     2.519
    88   1 H        0.926     0.030     2.583     2.513
    89   1 H        0.926     0.030     2.589     2.516
    90   1 H        0.924     0.035     2.517     2.481
    91   1 H        0.924     0.036     2.505     2.475
    92   1 H        0.925     0.036     2.508     2.477
    93   1 H        0.925     0.035     2.512     2.478
    94   1 H        0.925     0.037     2.485     2.465
    95   1 H        0.926     0.029     2.603     2.523
    96   1 H        0.926     0.044     2.398     2.421
    97   1 H        0.926     0.046     2.374     2.409
    98   1 H        0.926     0.038     2.477     2.461

 Mol. C6AA /au·bohr⁶  :     147596.297562
 Mol. C8AA /au·bohr⁸  :    4067841.653087
 Mol. α(0) /au        :        617.339330


Wiberg/Mayer (AO) data.
largest (>0.10) Wiberg bond orders for each atom

 ---------------------------------------------------------------------------
     #   Z sym  total        # sym  WBO       # sym  WBO       # sym  WBO
 ---------------------------------------------------------------------------
     1   6 C    3.996 --     2 C    1.001    59 H    0.989    57 H    0.988
                            58 H    0.986
     2   6 C    3.997 --     3 C    1.012     1 C    1.001    61 H    0.976
                            60 H    0.972
     3   6 C    3.987 --    56 C    1.418     4 C    1.407     2 C    1.012
                             6 C    0.106
     4   6 C    3.989 --     5 C    1.446     3 C    1.407    62 H    0.969
                             7 C    0.106
     5   6 C    3.991 --     4 C    1.446     6 C    1.437    63 H    0.971
                            56 C    0.110
     6   6 C    3.991 --     5 C    1.437     7 C    1.413    64 H    0.967
                             3 C    0.106
     7   6 C    3.983 --     6 C    1.413    56 C    1.410     8 C    0.950
                             4 C    0.106
     8   6 C    3.988 --    30 C    0.971    17 C    0.970     9 C    0.957
                             7 C    0.950
     9   6 C    3.984 --    10 C    1.412    16 C    1.411     8 C    0.957
                            12 C    0.106
    10   6 C    3.990 --    11 C    1.439     9 C    1.412    65 H    0.968
                            13 C    0.107
    11   6 C    3.992 --    12 C    1.445    10 C    1.439    66 H    0.971
                            16 C    0.109
    12   6 C    3.990 --    11 C    1.445    13 C    1.408    67 H    0.969
                             9 C    0.106
    13   6 C    3.987 --    16 C    1.418    12 C    1.408    14 C    1.012
                            10 C    0.107
    14   6 C    3.997 --    13 C    1.012    15 C    1.001    69 H    0.975
                            68 H    0.974
    15   6 C    3.996 --    14 C    1.001    70 H    0.988    72 H    0.988
                            71 H    0.986
    16   6 C    3.989 --    13 C    1.418     9 C    1.411    73 H    0.965
                            11 C    0.109
    17   6 C    3.975 --    18 C    1.460    22 C    1.293     8 C    0.970
    18   6 C    3.980 --    17 C    1.460    19 C    1.355    74 H    0.964
    19   6 C    3.966 --    18 C    1.355    20 C    1.292    49 C    1.134
    20   6 C    3.975 --    21 C    1.461    19 C    1.292    31 C    0.971
    21   6 C    3.980 --    20 C    1.461    22 C    1.354    75 H    0.964
    22   6 C    3.966 --    21 C    1.354    17 C    1.293    23 C    1.134
    23   6 C    3.940 --    30 C    1.457    22 C    1.134    24 S    1.121
    24  16 S    2.542 --    23 C    1.121    25 C    1.111
    25   6 C    3.930 --    29 C    1.361    26 C    1.260    24 S    1.111
    26   6 C    3.986 --    27 C    1.626    25 C    1.260    76 H    0.963
    27   6 C    3.927 --    26 C    1.626    28 S    1.162    77 H    0.970
    28  16 S    2.579 --    27 C    1.162    29 C    1.116
    29   6 C    3.946 --    25 C    1.361    30 C    1.268    28 S    1.116
    30   6 C    3.965 --    23 C    1.457    29 C    1.268     8 C    0.971
    31   6 C    3.988 --    48 C    0.972    20 C    0.971    40 C    0.959
                            32 C    0.947
    32   6 C    3.983 --    39 C    1.423    33 C    1.400    31 C    0.947
                            35 C    0.106
    33   6 C    3.989 --    34 C    1.447    32 C    1.400    78 H    0.965
                            36 C    0.108
    34   6 C    3.991 --    33 C    1.447    35 C    1.437    79 H    0.971
                            39 C    0.108
    35   6 C    3.989 --    34 C    1.437    36 C    1.416    80 H    0.969
                            32 C    0.106
    36   6 C    3.988 --    35 C    1.416    39 C    1.409    37 C    1.012
                            33 C    0.108
    37   6 C    3.997 --    36 C    1.012    38 C    1.001    82 H    0.975
                            81 H    0.973
    38   6 C    3.996 --    37 C    1.001    85 H    0.989    83 H    0.988
                            84 H    0.986
    39   6 C    3.990 --    32 C    1.423    36 C    1.409    86 H    0.965
                            34 C    0.108
    40   6 C    3.984 --    47 C    1.424    41 C    1.400    31 C    0.959
                            43 C    0.106
    41   6 C    3.990 --    42 C    1.447    40 C    1.400    87 H    0.967
                            44 C    0.108
    42   6 C    3.991 --    41 C    1.447    43 C    1.437    88 H    0.971
                            47 C    0.108
    43   6 C    3.990 --    42 C    1.437    44 C    1.416    89 H    0.969
                            40 C    0.106
    44   6 C    3.987 --    43 C    1.416    47 C    1.409    45 C    1.012
                            41 C    0.108
    45   6 C    3.997 --    44 C    1.012    46 C    1.001    90 H    0.976
                            91 H    0.973
    46   6 C    3.996 --    45 C    1.001    92 H    0.989    94 H    0.988
                            93 H    0.986
    47   6 C    3.990 --    40 C    1.424    44 C    1.409    95 H    0.965
                            42 C    0.108
    48   6 C    3.966 --    49 C    1.459    55 C    1.267    31 C    0.972
    49   6 C    3.940 --    48 C    1.459    19 C    1.134    50 S    1.120
    50  16 S    2.541 --    49 C    1.120    51 C    1.110
    51   6 C    3.930 --    55 C    1.361    52 C    1.260    50 S    1.110
    52   6 C    3.986 --    53 C    1.626    51 C    1.260    96 H    0.963
    53   6 C    3.926 --    52 C    1.626    54 S    1.163    97 H    0.970
    54  16 S    2.578 --    53 C    1.163    55 C    1.117
    55   6 C    3.946 --    51 C    1.361    48 C    1.267    54 S    1.117
    56   6 C    3.989 --     3 C    1.418     7 C    1.410    98 H    0.962
                             5 C    0.110
    57   1 H    0.999 --     1 C    0.988
    58   1 H    0.998 --     1 C    0.986
    59   1 H    0.999 --     1 C    0.989
    60   1 H    0.998 --     2 C    0.972
    61   1 H    0.998 --     2 C    0.976
    62   1 H    0.998 --     4 C    0.969
    63   1 H    0.998 --     5 C    0.971
    64   1 H    0.999 --     6 C    0.967
    65   1 H    0.999 --    10 C    0.968
    66   1 H    0.998 --    11 C    0.971
    67   1 H    0.999 --    12 C    0.969
    68   1 H    0.998 --    14 C    0.974
    69   1 H    0.998 --    14 C    0.975
    70   1 H    0.999 --    15 C    0.988
    71   1 H    0.998 --    15 C    0.986
    72   1 H    0.999 --    15 C    0.988
    73   1 H    0.999 --    16 C    0.965
    74   1 H    0.997 --    18 C    0.964
    75   1 H    0.997 --    21 C    0.964
    76   1 H    0.998 --    26 C    0.963
    77   1 H    0.997 --    27 C    0.970
    78   1 H    0.998 --    33 C    0.965
    79   1 H    0.998 --    34 C    0.971
    80   1 H    0.998 --    35 C    0.969
    81   1 H    0.998 --    37 C    0.973
    82   1 H    0.998 --    37 C    0.975
    83   1 H    0.999 --    38 C    0.988
    84   1 H    0.998 --    38 C    0.986
    85   1 H    0.999 --    38 C    0.989
    86   1 H    0.999 --    39 C    0.965
    87   1 H    0.999 --    41 C    0.967
    88   1 H    0.998 --    42 C    0.971
    89   1 H    0.999 --    43 C    0.969
    90   1 H    0.998 --    45 C    0.976
    91   1 H    0.998 --    45 C    0.973
    92   1 H    0.999 --    46 C    0.989
    93   1 H    0.998 --    46 C    0.986
    94   1 H    0.999 --    46 C    0.988
    95   1 H    0.999 --    47 C    0.965
    96   1 H    0.998 --    52 C    0.963
    97   1 H    0.997 --    53 C    0.970
    98   1 H    0.998 --    56 C    0.962
 ---------------------------------------------------------------------------

Topologies differ in bond orders
Writing corrected topology to xtbtopo.mol

molecular dipole:
                 x           y           z       tot (Debye)
 q only:        0.352       0.082      -0.090
   full:        0.300       0.106      -0.072       0.828
molecular quadrupole (traceless):
                xx          xy          yy          xz          yz          zz
 q only:        7.005      -0.853      -6.744       3.486       4.236      -0.261
  q+dip:        0.571      -0.638      -3.270       3.831       2.037       2.699
   full:       -1.923      -1.212      -3.065       4.449       0.807       4.988

           -------------------------------------------------
          |                Geometry Summary                 |
           -------------------------------------------------

      molecular mass/u    :      795.1509279
   center of mass at/Å    :       -0.3272505      -0.5461138      -0.0191450
  moments of inertia/u·Å² :        0.8042654E+04   0.1704423E+05   0.1827116E+05
rotational constants/cm⁻¹ :        0.2096029E-02   0.9890523E-03   0.9226359E-03

 * 96 selected distances

     #   Z          #   Z                                           value/Å
     1   6 C        2   6 C                                       1.5296654
     3   6 C        4   6 C                                       1.3888354
     4   6 C        5   6 C                                       1.3828932
     5   6 C        6   6 C                                       1.3842972
     6   6 C        7   6 C                                       1.3870818
     9   6 C       10   6 C                                       1.3874353
    10   6 C       11   6 C                                       1.3834688
    11   6 C       12   6 C                                       1.3827118
    12   6 C       13   6 C                                       1.3887808
    14   6 C       15   6 C                                       1.5300542
     9   6 C       16   6 C                                       1.3881420
    13   6 C       16   6 C                                       1.3869145
    17   6 C       18   6 C                                       1.3761978
    18   6 C       19   6 C                                       1.3907910
    19   6 C       20   6 C                                       1.4131951
    20   6 C       21   6 C                                       1.3762336
    17   6 C       22   6 C                                       1.4126515
    21   6 C       22   6 C                                       1.3908115
    22   6 C       23   6 C                                       1.4331515
    23   6 C       24  16 S                                       1.7334162
    24  16 S       25   6 C                                       1.7375982
    25   6 C       26   6 C                                       1.4081681
    26   6 C       27   6 C                                       1.3575346
    27   6 C       28  16 S                                       1.7328889
    25   6 C       29   6 C                                       1.3968471
    28  16 S       29   6 C                                       1.7271022
    23   6 C       30   6 C                                       1.3787589
    29   6 C       30   6 C                                       1.3995022
    32   6 C       33   6 C                                       1.3900686
    33   6 C       34   6 C                                       1.3818091
    34   6 C       35   6 C                                       1.3840523
    35   6 C       36   6 C                                       1.3874490
    37   6 C       38   6 C                                       1.5299010
    32   6 C       39   6 C                                       1.3857177
    36   6 C       39   6 C                                       1.3889262
    40   6 C       41   6 C                                       1.3899691
    41   6 C       42   6 C                                       1.3819971
    42   6 C       43   6 C                                       1.3840172
    43   6 C       44   6 C                                       1.3872061
    45   6 C       46   6 C                                       1.5302083
    40   6 C       47   6 C                                       1.3855413
    44   6 C       47   6 C                                       1.3884822
    19   6 C       49   6 C                                       1.4331970
    48   6 C       49   6 C                                       1.3783513
    49   6 C       50  16 S                                       1.7339076
    50  16 S       51   6 C                                       1.7378658 (max)
    51   6 C       52   6 C                                       1.4081742
    52   6 C       53   6 C                                       1.3577467
    53   6 C       54  16 S                                       1.7335347
    48   6 C       55   6 C                                       1.3994472
    51   6 C       55   6 C                                       1.3967459
    54  16 S       55   6 C                                       1.7268199
     3   6 C       56   6 C                                       1.3863306
     7   6 C       56   6 C                                       1.3883766
     1   6 C       57   1 H                                       1.0878580
     1   6 C       58   1 H                                       1.0875607
     1   6 C       59   1 H                                       1.0879933
     2   6 C       60   1 H                                       1.0921320
     2   6 C       61   1 H                                       1.0917678
     4   6 C       62   1 H                                       1.0807152
     5   6 C       63   1 H                                       1.0804324
     6   6 C       64   1 H                                       1.0798086
    10   6 C       65   1 H                                       1.0800350
    11   6 C       66   1 H                                       1.0802655
    12   6 C       67   1 H                                       1.0807024
    14   6 C       68   1 H                                       1.0921788
    14   6 C       69   1 H                                       1.0918960
    15   6 C       70   1 H                                       1.0878442
    15   6 C       71   1 H                                       1.0876494
    15   6 C       72   1 H                                       1.0877555
    16   6 C       73   1 H                                       1.0811870
    18   6 C       74   1 H                                       1.0792239
    21   6 C       75   1 H                                       1.0790116
    26   6 C       76   1 H                                       1.0743452
    27   6 C       77   1 H                                       1.0717772 (min)
    33   6 C       78   1 H                                       1.0801202
    34   6 C       79   1 H                                       1.0800969
    35   6 C       80   1 H                                       1.0806987
    37   6 C       81   1 H                                       1.0921875
    37   6 C       82   1 H                                       1.0917647
    38   6 C       83   1 H                                       1.0878143
    38   6 C       84   1 H                                       1.0876546
    38   6 C       85   1 H                                       1.0878639
    39   6 C       86   1 H                                       1.0806807
    41   6 C       87   1 H                                       1.0801660
    42   6 C       88   1 H                                       1.0803607
    43   6 C       89   1 H                                       1.0806765
    45   6 C       90   1 H                                       1.0916699
    45   6 C       91   1 H                                       1.0921854
    46   6 C       92   1 H                                       1.0878547
    46   6 C       93   1 H                                       1.0876194
    46   6 C       94   1 H                                       1.0878884
    47   6 C       95   1 H                                       1.0807051
    52   6 C       96   1 H                                       1.0743570
    53   6 C       97   1 H                                       1.0717900
    56   6 C       98   1 H                                       1.0809761

 * 3 distinct bonds (by element types)

   Z      Z             #   av. dist./Å        max./Å        min./Å
   1 H    6 C          42     1.0839826     1.0921875     1.0717772
   6 C    6 C          46     1.4021269     1.5302083     1.3575346
   6 C   16 S           8     1.7328917     1.7378658     1.7268199


optimized geometry written to: xtbopt.mol


           -------------------------------------------------
          | TOTAL ENERGY             -145.811543212575 Eh   |
          | GRADIENT NORM               0.000362890982 Eh/α |
          | HOMO-LUMO GAP               2.059644032471 eV   |
           -------------------------------------------------

------------------------------------------------------------------------
 * finished run on 2022/01/17 at 14:58:45.561     
------------------------------------------------------------------------
 total:
 * wall-time:     0 d,  0 h,  0 min, 23.968 sec
 *  cpu-time:     0 d,  0 h,  0 min, 23.967 sec
 * ratio c/w:     1.000 speedup
 SCF:
 * wall-time:     0 d,  0 h,  0 min,  0.445 sec
 *  cpu-time:     0 d,  0 h,  0 min,  0.444 sec
 * ratio c/w:     0.998 speedup
 ANC optimizer:
 * wall-time:     0 d,  0 h,  0 min, 23.461 sec
 *  cpu-time:     0 d,  0 h,  0 min, 23.461 sec
 * ratio c/w:     1.000 speedup

