      -----------------------------------------------------------      
     |                   =====================                   |     
     |                           x T B                           |     
     |                   =====================                   |     
     |                         S. Grimme                         |     
     |          Mulliken Center for Theoretical Chemistry        |     
     |                    University of Bonn                     |     
      -----------------------------------------------------------      

   * xtb version 6.4.1 (unknown) compiled by 'oda6@login1.crc.pitt.edu' on 2021-06-25

   xtb is free software: you can redistribute it and/or modify it under
   the terms of the GNU Lesser General Public License as published by
   the Free Software Foundation, either version 3 of the License, or
   (at your option) any later version.
   
   xtb is distributed in the hope that it will be useful,
   but WITHOUT ANY WARRANTY; without even the implied warranty of
   MERCHANTABILITY or FITNESS FOR A PARTICULAR PURPOSE.  See the
   GNU Lesser General Public License for more details.
   
   Cite this work as:
   * C. Bannwarth, E. Caldeweyher, S. Ehlert, A. Hansen, P. Pracht,
     J. Seibert, S. Spicher, S. Grimme, WIREs Comput. Mol. Sci., 2020, 11,
     e01493. DOI: 10.1002/wcms.1493
   
   for GFN2-xTB:
   * C. Bannwarth, S. Ehlert and S. Grimme., J. Chem. Theory Comput., 2019,
     15, 1652-1671. DOI: 10.1021/acs.jctc.8b01176
   for GFN1-xTB:
   * S. Grimme, C. Bannwarth, P. Shushkov, J. Chem. Theory Comput., 2017,
     13, 1989-2009. DOI: 10.1021/acs.jctc.7b00118
   for GFN0-xTB:
   * P. Pracht, E. Caldeweyher, S. Ehlert, S. Grimme, ChemRxiv, 2019, preprint.
     DOI: 10.26434/chemrxiv.8326202.v1
   for GFN-FF:
   * S. Spicher and S. Grimme, Angew. Chem. Int. Ed., 2020, 59, 15665-15673.
     DOI: 10.1002/anie.202004239
   
   for DFT-D4:
   * E. Caldeweyher, C. Bannwarth and S. Grimme, J. Chem. Phys., 2017,
     147, 034112. DOI: 10.1063/1.4993215
   * E. Caldeweyher, S. Ehlert, A. Hansen, H. Neugebauer, S. Spicher,
     C. Bannwarth and S. Grimme, J. Chem. Phys., 2019, 150, 154122.
     DOI: 10.1063/1.5090222
   * E. Caldeweyher, J.-M. Mewes, S. Ehlert and S. Grimme, Phys. Chem. Chem. Phys.
     2020, 22, 8499-8512. DOI: 10.1039/D0CP00502A
   
   for sTDA-xTB:
   * S. Grimme and C. Bannwarth, J. Chem. Phys., 2016, 145, 054103.
     DOI: 10.1063/1.4959605
   
   in the mass-spec context:
   * V. Asgeirsson, C. Bauer and S. Grimme, Chem. Sci., 2017, 8, 4879.
     DOI: 10.1039/c7sc00601b
   * J. Koopman and S. Grimme, ACS Omega 2019, 4, 12, 15120-15133.
     DOI: 10.1021/acsomega.9b02011
   
   for metadynamics refer to:
   * S. Grimme, J. Chem. Theory Comput., 2019, 155, 2847-2862
     DOI: 10.1021/acs.jctc.9b00143
   
   for SPH calculations refer to:
   * S. Spicher and S. Grimme, J. Chem. Theory Comput., 2021, 17, 1701-1714
     DOI: 10.1021/acs.jctc.0c01306
   
   with help from (in alphabetical order)
   P. Atkinson, C. Bannwarth, F. Bohle, G. Brandenburg, E. Caldeweyher
   M. Checinski, S. Dohm, S. Ehlert, S. Ehrlich, I. Gerasimov, J. Koopman
   C. Lavigne, S. Lehtola, F. März, M. Müller, F. Musil, H. Neugebauer
   J. Pisarek, C. Plett, P. Pracht, J. Seibert, P. Shushkov, S. Spicher
   M. Stahn, M. Steiner, T. Strunk, J. Stückrath, T. Rose, and J. Unsleber
   
 * started run on 2022/01/17 at 15:01:38.264     

           -------------------------------------------------
          |                Calculation Setup                |
           -------------------------------------------------

          program call               : /ihome/ghutchison/oda6/xtb/xtb-641/bin//xtb 360.mol -opt
          hostname                   : smp-n43
          coordinate file            : 360.mol
          omp threads                :                     1
          number of atoms            :                    24
          number of electrons        :                    72
          charge                     :                     0
          spin                       :                   0.0
          first test random number   :      0.68165205369723

   ID    Z sym.   atoms
    1    6 C      1-3, 6-8, 10, 11, 13, 14
    2    8 O      4, 9
    3    7 N      5, 12
    4    1 H      15-24
########################################################################
[WARNING] Please study the warnings concerning your input carefully
-1- prog_main_parseArguments: the use of '-opt' is discouraged, please use '--opt' next time
########################################################################

           -------------------------------------------------
          |                 G F N 2 - x T B                 |
           -------------------------------------------------

        Reference                      10.1021/acs.jctc.8b01176
      * Hamiltonian:
        H0-scaling (s, p, d)           1.850000    2.230000    2.230000
        zeta-weighting                 0.500000
      * Dispersion:
        s8                             2.700000
        a1                             0.520000
        a2                             5.000000
        s9                             5.000000
      * Repulsion:
        kExp                           1.500000    1.000000
        rExp                           1.000000
      * Coulomb:
        alpha                          2.000000
        third order                    shell-resolved
        anisotropic                    true
        a3                             3.000000
        a5                             4.000000
        cn-shift                       1.200000
        cn-exp                         4.000000
        max-rad                        5.000000


          ...................................................
          :                      SETUP                      :
          :.................................................:
          :  # basis functions                  66          :
          :  # atomic orbitals                  66          :
          :  # shells                           38          :
          :  # electrons                        72          :
          :  max. iterations                   250          :
          :  Hamiltonian                  GFN2-xTB          :
          :  restarted?                      false          :
          :  GBSA solvation                  false          :
          :  PC potential                    false          :
          :  electronic temp.          300.0000000     K    :
          :  accuracy                    1.0000000          :
          :  -> integral cutoff          0.2500000E+02      :
          :  -> integral neglect         0.1000000E-07      :
          :  -> SCF convergence          0.1000000E-05 Eh   :
          :  -> wf. convergence          0.1000000E-03 e    :
          :  Broyden damping             0.4000000          :
          ...................................................

 iter      E             dE          RMSdq      gap      omega  full diag
   1    -40.8284593 -0.408285E+02  0.544E+00    2.48       0.0  T
   2    -40.8880596 -0.596002E-01  0.327E+00    1.96       1.0  T
   3    -40.8857158  0.234378E-02  0.236E+00    2.62       1.0  T
   4    -40.9367698 -0.510540E-01  0.803E-01    2.21       1.0  T
   5    -40.9492012 -0.124314E-01  0.202E-01    2.28       1.0  T
   6    -40.9496249 -0.423649E-03  0.963E-02    2.29       1.0  T
   7    -40.9497186 -0.936736E-04  0.513E-02    2.31       1.0  T
   8    -40.9497497 -0.311368E-04  0.182E-02    2.30       1.1  T
   9    -40.9497498 -0.935035E-07  0.902E-03    2.30       2.3  T
  10    -40.9497509 -0.114750E-05  0.383E-03    2.30       5.3  T
  11    -40.9497511 -0.175269E-06  0.127E-03    2.30      16.0  T
  12    -40.9497511 -0.658191E-08  0.530E-04    2.30      38.5  T
  13    -40.9497511 -0.149652E-08  0.222E-04    2.30      91.8  T

   *** convergence criteria satisfied after 13 iterations ***

         #    Occupation            Energy/Eh            Energy/eV
      -------------------------------------------------------------
         1        2.0000           -0.7210115             -19.6197
       ...           ...                  ...                  ...
        30        2.0000           -0.4736339             -12.8882
        31        2.0000           -0.4516128             -12.2890
        32        2.0000           -0.4427013             -12.0465
        33        2.0000           -0.4382225             -11.9246
        34        2.0000           -0.4331215             -11.7858
        35        2.0000           -0.4299165             -11.6986
        36        2.0000           -0.4254449             -11.5769 (HOMO)
        37                         -0.3408945              -9.2762 (LUMO)
        38                         -0.2853558              -7.7649
        39                         -0.2551883              -6.9440
        40                         -0.2309561              -6.2846
        41                         -0.1974724              -5.3735
       ...                                ...                  ...
        66                          1.0664792              29.0204
      -------------------------------------------------------------
                  HL-Gap            0.0845504 Eh            2.3007 eV
             Fermi-level           -0.3831697 Eh          -10.4266 eV

 SCC (total)                   0 d,  0 h,  0 min,  0.032 sec
 SCC setup                      ...        0 min,  0.000 sec (  0.983%)
 Dispersion                     ...        0 min,  0.000 sec (  0.847%)
 classical contributions        ...        0 min,  0.000 sec (  0.208%)
 integral evaluation            ...        0 min,  0.004 sec ( 11.743%)
 iterations                     ...        0 min,  0.017 sec ( 53.736%)
 molecular gradient             ...        0 min,  0.010 sec ( 31.716%)
 printout                       ...        0 min,  0.000 sec (  0.620%)

         :::::::::::::::::::::::::::::::::::::::::::::::::::::
         ::                     SUMMARY                     ::
         :::::::::::::::::::::::::::::::::::::::::::::::::::::
         :: total energy             -40.430792132650 Eh    ::
         :: gradient norm              0.148957899800 Eh/a0 ::
         :: HOMO-LUMO gap              2.300734035615 eV    ::
         ::.................................................::
         :: SCC energy               -40.949751128436 Eh    ::
         :: -> isotropic ES            0.072552321156 Eh    ::
         :: -> anisotropic ES          0.001972295201 Eh    ::
         :: -> anisotropic XC          0.030708121801 Eh    ::
         :: -> dispersion             -0.022555066313 Eh    ::
         :: repulsion energy           0.518833226518 Eh    ::
         :: add. restraining           0.000000000000 Eh    ::
         :: total charge              -0.000000000000 e     ::
         :::::::::::::::::::::::::::::::::::::::::::::::::::::

      ----------------------------------------------------------- 
     |                   =====================                   |
     |                        A N C O P T                        |
     |                   =====================                   |
     |               Approximate Normal Coordinate               |
     |                Rational Function Optimizer                |
      ----------------------------------------------------------- 

          ...................................................
          :                      SETUP                      :
          :.................................................:
          :   optimization level            normal          :
          :   max. optcycles                   200          :
          :   ANC micro-cycles                  20          :
          :   degrees of freedom                66          :
          :.................................................:
          :   RF solver                   davidson          :
          :   write xtbopt.log                true          :
          :   linear?                        false          :
          :   energy convergence         0.5000000E-05 Eh   :
          :   grad. convergence          0.1000000E-02 Eh/α :
          :   maximium RF displ.         1.0000000          :
          :   Hlow (freq-cutoff)         0.1000000E-01      :
          :   Hmax (freq-cutoff)         5.0000000          :
          :   S6 in model hess.         20.0000000          :
          ...................................................

generating ANC from model Hessian ...
Using Lindh-Hessian (1995)
 Shifting diagonal of input Hessian by   9.744748783308175E-003
 Lowest  eigenvalues of input Hessian
    0.000000    0.000000    0.000000    0.000000    0.000000    0.000000
    0.010000    0.010953    0.011816    0.013811    0.015765    0.016831
    0.017852    0.019631    0.019685    0.021605    0.024490    0.025768
 Highest eigenvalues
    1.682203    1.736160    1.902755    2.011318    2.093357    2.514672
 

........................................................................
.............................. CYCLE    1 ..............................
........................................................................
   1    -40.9497511 -0.409498E+02  0.526E-05    2.30       0.0  T
   2    -40.9497511 -0.187370E-10  0.299E-05    2.30     683.3  T
   3    -40.9497511 -0.733991E-11  0.189E-05    2.30    1080.5  T
     SCC iter.                  ...        0 min,  0.004 sec
     gradient                   ...        0 min,  0.010 sec
 * total energy  :   -40.4307921 Eh     change       -0.2941789E-09 Eh
   gradient norm :     0.1489630 Eh/α   predicted     0.0000000E+00 (-100.00%)
   displ. norm   :     0.3641240 α      lambda       -0.2698039E-01
   maximum displ.:     0.1821842 α      in ANC's #14, #26, #20, ...

........................................................................
.............................. CYCLE    2 ..............................
........................................................................
   1    -41.0261881 -0.410262E+02  0.322E-01    2.31       0.0  T
   2    -41.0265754 -0.387319E-03  0.208E-01    2.38       1.0  T
   3    -41.0265171  0.582686E-04  0.124E-01    2.37       1.0  T
   4    -41.0266504 -0.133248E-03  0.652E-02    2.40       1.0  T
   5    -41.0267233 -0.729788E-04  0.120E-02    2.38       1.7  T
   6    -41.0267245 -0.119016E-05  0.754E-03    2.39       2.7  T
   7    -41.0267253 -0.731089E-06  0.344E-03    2.39       5.9  T
   8    -41.0267253 -0.872338E-07  0.132E-03    2.38      15.5  T
   9    -41.0267253 -0.720961E-08  0.504E-04    2.39      40.5  T
  10    -41.0267253 -0.205242E-08  0.271E-04    2.39      75.2  T
     SCC iter.                  ...        0 min,  0.011 sec
     gradient                   ...        0 min,  0.010 sec
 * total energy  :   -40.4492267 Eh     change       -0.1843454E-01 Eh
   gradient norm :     0.0559919 Eh/α   predicted    -0.1529625E-01 ( -17.02%)
   displ. norm   :     0.3352727 α      lambda       -0.7529614E-02
   maximum displ.:     0.2002334 α      in ANC's #14, #10, #1, ...

........................................................................
.............................. CYCLE    3 ..............................
........................................................................
   1    -41.0568621 -0.410569E+02  0.391E-01    2.37       0.0  T
   2    -41.0570500 -0.187975E-03  0.226E-01    2.40       1.0  T
   3    -41.0568928  0.157216E-03  0.979E-02    2.40       1.0  T
   4    -41.0570807 -0.187875E-03  0.367E-02    2.41       1.0  T
   5    -41.0571047 -0.240237E-04  0.101E-02    2.40       2.0  T
   6    -41.0571053 -0.569157E-06  0.560E-03    2.40       3.6  T
   7    -41.0571058 -0.517380E-06  0.224E-03    2.40       9.1  T
   8    -41.0571059 -0.540275E-07  0.669E-04    2.40      30.5  T
   9    -41.0571059 -0.230281E-08  0.202E-04    2.40     101.1  T
     SCC iter.                  ...        0 min,  0.010 sec
     gradient                   ...        0 min,  0.010 sec
 * total energy  :   -40.4524444 Eh     change       -0.3217726E-02 Eh
   gradient norm :     0.0212871 Eh/α   predicted    -0.4188004E-02 (  30.15%)
   displ. norm   :     0.3859351 α      lambda       -0.3901001E-02
   maximum displ.:     0.2120444 α      in ANC's #1, #7, #4, ...

........................................................................
.............................. CYCLE    4 ..............................
........................................................................
   1    -41.0549192 -0.410549E+02  0.769E-01    2.35       0.0  T
   2    -41.0551242 -0.204979E-03  0.426E-01    2.36       1.0  T
   3    -41.0551361 -0.119172E-04  0.588E-02    2.36       1.0  T
   4    -41.0551951 -0.590668E-04  0.243E-02    2.36       1.0  T
   5    -41.0552008 -0.569111E-05  0.107E-02    2.36       1.9  T
   6    -41.0552017 -0.874158E-06  0.326E-03    2.36       6.3  T
   7    -41.0552018 -0.112491E-06  0.185E-03    2.36      11.0  T
   8    -41.0552019 -0.502188E-07  0.709E-04    2.36      28.8  T
   9    -41.0552019 -0.255590E-08  0.216E-04    2.36      94.5  T
     SCC iter.                  ...        0 min,  0.010 sec
     gradient                   ...        0 min,  0.010 sec
 * total energy  :   -40.4503601 Eh     change        0.2084266E-02 Eh
   gradient norm :     0.0553137 Eh/α   predicted    -0.2241034E-02 (-207.52%)
   displ. norm   :     0.2415647 α      lambda       -0.6676814E-02
   maximum displ.:     0.1751011 α      in ANC's #1, #4, #7, ...

........................................................................
.............................. CYCLE    5 ..............................
........................................................................
   1    -41.0606626 -0.410607E+02  0.515E-01    2.39       0.0  T
   2    -41.0607729 -0.110213E-03  0.286E-01    2.39       1.0  T
   3    -41.0607573  0.156016E-04  0.477E-02    2.39       1.0  T
   4    -41.0608075 -0.502698E-04  0.168E-02    2.38       1.2  T
   5    -41.0608107 -0.321213E-05  0.776E-03    2.39       2.6  T
   6    -41.0608113 -0.547948E-06  0.311E-03    2.39       6.6  T
   7    -41.0608114 -0.133053E-06  0.131E-03    2.39      15.6  T
   8    -41.0608115 -0.276123E-07  0.391E-04    2.39      52.2  T
   9    -41.0608115 -0.702322E-09  0.178E-04    2.39     114.4  T
     SCC iter.                  ...        0 min,  0.010 sec
     gradient                   ...        0 min,  0.010 sec
 * total energy  :   -40.4532556 Eh     change       -0.2895503E-02 Eh
   gradient norm :     0.0229699 Eh/α   predicted    -0.3533217E-02 (  22.02%)
   displ. norm   :     0.0609164 α      lambda       -0.3790858E-03
   maximum displ.:     0.0323597 α      in ANC's #1, #6, #12, ...

........................................................................
.............................. CYCLE    6 ..............................
........................................................................
   1    -41.0545316 -0.410545E+02  0.772E-02    2.39       0.0  T
   2    -41.0545339 -0.227612E-05  0.442E-02    2.39       1.0  T
   3    -41.0545233  0.105346E-04  0.254E-02    2.39       1.0  T
   4    -41.0545360 -0.126255E-04  0.302E-03    2.39       6.8  T
   5    -41.0545360 -0.770700E-07  0.160E-03    2.39      12.8  T
   6    -41.0545360 -0.519163E-08  0.113E-03    2.39      18.0  T
   7    -41.0545361 -0.217560E-07  0.237E-04    2.39      86.1  T
   8    -41.0545361 -0.435953E-09  0.106E-04    2.39     193.3  T
     SCC iter.                  ...        0 min,  0.009 sec
     gradient                   ...        0 min,  0.010 sec
 * total energy  :   -40.4534079 Eh     change       -0.1522684E-03 Eh
   gradient norm :     0.0058259 Eh/α   predicted    -0.1902500E-03 (  24.94%)
   displ. norm   :     0.0531897 α      lambda       -0.7539939E-04
   maximum displ.:     0.0235652 α      in ANC's #6, #1, #13, ...

........................................................................
.............................. CYCLE    7 ..............................
........................................................................
   1    -41.0557217 -0.410557E+02  0.255E-02    2.38       0.0  T
   2    -41.0557220 -0.250048E-06  0.152E-02    2.39       1.3  T
   3    -41.0557214  0.546999E-06  0.550E-03    2.39       3.7  T
   4    -41.0557220 -0.587869E-06  0.142E-03    2.39      14.4  T
   5    -41.0557221 -0.386508E-07  0.328E-04    2.39      62.3  T
   6    -41.0557221 -0.273062E-09  0.228E-04    2.39      89.6  T
     SCC iter.                  ...        0 min,  0.007 sec
     gradient                   ...        0 min,  0.010 sec
 * total energy  :   -40.4534645 Eh     change       -0.5656246E-04 Eh
   gradient norm :     0.0024443 Eh/α   predicted    -0.3780719E-04 ( -33.16%)
   displ. norm   :     0.1185499 α      lambda       -0.8453524E-04
   maximum displ.:     0.0634897 α      in ANC's #6, #1, #13, ...

........................................................................
.............................. CYCLE    8 ..............................
........................................................................
   1    -41.0564004 -0.410564E+02  0.503E-02    2.38       0.0  T
   2    -41.0564010 -0.599627E-06  0.294E-02    2.38       1.0  T
   3    -41.0564002  0.848985E-06  0.655E-03    2.38       3.1  T
   4    -41.0564012 -0.100472E-05  0.195E-03    2.38      10.5  T
   5    -41.0564012 -0.534068E-07  0.777E-04    2.38      26.3  T
   6    -41.0564012  0.161279E-08  0.496E-04    2.38      41.2  T
     SCC iter.                  ...        0 min,  0.007 sec
     gradient                   ...        0 min,  0.010 sec
 * total energy  :   -40.4535214 Eh     change       -0.5697395E-04 Eh
   gradient norm :     0.0022079 Eh/α   predicted    -0.4286551E-04 ( -24.76%)
   displ. norm   :     0.1266948 α      lambda       -0.5553819E-04
   maximum displ.:     0.0735912 α      in ANC's #6, #1, #2, ...

........................................................................
.............................. CYCLE    9 ..............................
........................................................................
   1    -41.0561344 -0.410561E+02  0.620E-02    2.38       0.0  T
   2    -41.0561351 -0.770597E-06  0.357E-02    2.38       1.0  T
   3    -41.0561341  0.103378E-05  0.777E-03    2.38       2.6  T
   4    -41.0561355 -0.136757E-05  0.201E-03    2.38      10.1  T
   5    -41.0561355 -0.109572E-07  0.111E-03    2.38      18.3  T
   6    -41.0561355 -0.103805E-07  0.552E-04    2.38      37.0  T
   7    -41.0561355 -0.598482E-08  0.863E-05    2.38     236.4  T
     SCC iter.                  ...        0 min,  0.008 sec
     gradient                   ...        0 min,  0.010 sec
 * total energy  :   -40.4535603 Eh     change       -0.3885789E-04 Eh
   gradient norm :     0.0028118 Eh/α   predicted    -0.2821993E-04 ( -27.38%)
   displ. norm   :     0.1575224 α      lambda       -0.6035535E-04
   maximum displ.:     0.0984208 α      in ANC's #6, #1, #2, ...

........................................................................
.............................. CYCLE   10 ..............................
........................................................................
   1    -41.0559879 -0.410560E+02  0.837E-02    2.38       0.0  T
   2    -41.0559894 -0.142897E-05  0.477E-02    2.38       1.0  T
   3    -41.0559885  0.889681E-06  0.854E-03    2.38       2.4  T
   4    -41.0559900 -0.151792E-05  0.249E-03    2.38       8.2  T
   5    -41.0559900  0.771617E-08  0.130E-03    2.38      15.7  T
   6    -41.0559900 -0.300843E-07  0.389E-04    2.38      52.4  T
   7    -41.0559900 -0.289020E-08  0.118E-04    2.38     173.1  T
     SCC iter.                  ...        0 min,  0.008 sec
     gradient                   ...        0 min,  0.010 sec
 * total energy  :   -40.4536011 Eh     change       -0.4084872E-04 Eh
   gradient norm :     0.0028452 Eh/α   predicted    -0.3092947E-04 ( -24.28%)
   displ. norm   :     0.1310380 α      lambda       -0.5338982E-04
   maximum displ.:     0.0804502 α      in ANC's #6, #1, #2, ...

........................................................................
.............................. CYCLE   11 ..............................
........................................................................
   1    -41.0559709 -0.410560E+02  0.752E-02    2.38       0.0  T
   2    -41.0559720 -0.114021E-05  0.427E-02    2.38       1.0  T
   3    -41.0559716  0.415001E-06  0.703E-03    2.38       2.9  T
   4    -41.0559725 -0.879430E-06  0.220E-03    2.38       9.3  T
   5    -41.0559725 -0.917868E-08  0.101E-03    2.38      20.1  T
   6    -41.0559725 -0.104872E-07  0.470E-04    2.38      43.5  T
   7    -41.0559725 -0.458502E-08  0.116E-04    2.38     176.6  T
     SCC iter.                  ...        0 min,  0.008 sec
     gradient                   ...        0 min,  0.010 sec
 * total energy  :   -40.4536387 Eh     change       -0.3752963E-04 Eh
   gradient norm :     0.0020065 Eh/α   predicted    -0.2715493E-04 ( -27.64%)
   displ. norm   :     0.1154596 α      lambda       -0.3985126E-04
   maximum displ.:     0.0736626 α      in ANC's #6, #2, #1, ...

........................................................................
.............................. CYCLE   12 ..............................
........................................................................
   1    -41.0563038 -0.410563E+02  0.571E-02    2.38       0.0  T
   2    -41.0563044 -0.579151E-06  0.327E-02    2.38       1.0  T
   3    -41.0563044 -0.577298E-07  0.329E-03    2.38       6.2  T
   4    -41.0563045 -0.121397E-06  0.181E-03    2.38      11.3  T
   5    -41.0563046 -0.333850E-07  0.782E-04    2.38      26.1  T
   6    -41.0563046 -0.405398E-08  0.358E-04    2.38      57.0  T
     SCC iter.                  ...        0 min,  0.007 sec
     gradient                   ...        0 min,  0.010 sec
 * total energy  :   -40.4536664 Eh     change       -0.2775933E-04 Eh
   gradient norm :     0.0015158 Eh/α   predicted    -0.2019196E-04 ( -27.26%)
   displ. norm   :     0.1575097 α      lambda       -0.2367897E-04
   maximum displ.:     0.1019868 α      in ANC's #6, #2, #4, ...

........................................................................
.............................. CYCLE   13 ..............................
........................................................................
   1    -41.0562246 -0.410562E+02  0.671E-02    2.38       0.0  T
   2    -41.0562251 -0.480438E-06  0.389E-02    2.38       1.0  T
   3    -41.0562240  0.108487E-05  0.812E-03    2.38       2.5  T
   4    -41.0562253 -0.134544E-05  0.180E-03    2.38      11.3  T
   5    -41.0562253 -0.874930E-08  0.969E-04    2.38      21.1  T
   6    -41.0562253 -0.616939E-08  0.411E-04    2.38      49.7  T
     SCC iter.                  ...        0 min,  0.007 sec
     gradient                   ...        0 min,  0.010 sec
 * total energy  :   -40.4536848 Eh     change       -0.1831837E-04 Eh
   gradient norm :     0.0020620 Eh/α   predicted    -0.1197345E-04 ( -34.64%)
   displ. norm   :     0.0327953 α      lambda       -0.1363485E-04
   maximum displ.:     0.0192596 α      in ANC's #1, #7, #2, ...

........................................................................
.............................. CYCLE   14 ..............................
........................................................................
   1    -41.0570991 -0.410571E+02  0.281E-02    2.38       0.0  T
   2    -41.0570994 -0.310801E-06  0.158E-02    2.38       1.3  T
   3    -41.0570992  0.159520E-06  0.383E-03    2.38       5.3  T
   4    -41.0570995 -0.232318E-06  0.133E-03    2.38      15.3  T
   5    -41.0570995 -0.221108E-07  0.532E-04    2.38      38.4  T
   6    -41.0570995  0.888633E-09  0.346E-04    2.38      59.0  T
     SCC iter.                  ...        0 min,  0.007 sec
     gradient                   ...        0 min,  0.010 sec
 * total energy  :   -40.4536914 Eh     change       -0.6685688E-05 Eh
   gradient norm :     0.0022154 Eh/α   predicted    -0.6825099E-05 (   2.09%)
   displ. norm   :     0.0721843 α      lambda       -0.1661214E-04
   maximum displ.:     0.0450470 α      in ANC's #6, #2, #4, ...

........................................................................
.............................. CYCLE   15 ..............................
........................................................................
   1    -41.0567214 -0.410567E+02  0.340E-02    2.37       0.0  T
   2    -41.0567216 -0.163212E-06  0.197E-02    2.37       1.0  T
   3    -41.0567212  0.355090E-06  0.475E-03    2.38       4.3  T
   4    -41.0567217 -0.430378E-06  0.110E-03    2.37      18.5  T
   5    -41.0567217 -0.103966E-07  0.572E-04    2.37      35.7  T
   6    -41.0567217 -0.381462E-09  0.352E-04    2.37      58.1  T
     SCC iter.                  ...        0 min,  0.007 sec
     gradient                   ...        0 min,  0.010 sec
 * total energy  :   -40.4537035 Eh     change       -0.1209409E-04 Eh
   gradient norm :     0.0012447 Eh/α   predicted    -0.8351537E-05 ( -30.95%)
   displ. norm   :     0.1639830 α      lambda       -0.1882223E-04
   maximum displ.:     0.0868475 α      in ANC's #6, #2, #7, ...

........................................................................
.............................. CYCLE   16 ..............................
........................................................................
   1    -41.0559285 -0.410559E+02  0.950E-02    2.37       0.0  T
   2    -41.0559300 -0.152735E-05  0.544E-02    2.37       1.0  T
   3    -41.0559286  0.136975E-05  0.107E-02    2.37       1.9  T
   4    -41.0559307 -0.209865E-05  0.281E-03    2.37       7.3  T
   5    -41.0559307 -0.806136E-08  0.145E-03    2.37      14.1  T
   6    -41.0559308 -0.202906E-07  0.719E-04    2.37      28.4  T
   7    -41.0559308 -0.925807E-08  0.258E-04    2.37      79.2  T
     SCC iter.                  ...        0 min,  0.008 sec
     gradient                   ...        0 min,  0.010 sec
 * total energy  :   -40.4537139 Eh     change       -0.1040031E-04 Eh
   gradient norm :     0.0024003 Eh/α   predicted    -0.9530632E-05 (  -8.36%)
   displ. norm   :     0.0155440 α      lambda       -0.8024833E-05
   maximum displ.:     0.0089512 α      in ANC's #7, #1, #3, ...

........................................................................
.............................. CYCLE   17 ..............................
........................................................................
   1    -41.0561472 -0.410561E+02  0.112E-02    2.37       0.0  T
   2    -41.0561473 -0.308921E-07  0.651E-03    2.37       3.1  T
   3    -41.0561472  0.489665E-07  0.172E-03    2.37      11.9  T
   4    -41.0561473 -0.570305E-07  0.491E-04    2.37      41.6  T
   5    -41.0561473 -0.287928E-08  0.216E-04    2.37      94.4  T
     SCC iter.                  ...        0 min,  0.006 sec
     gradient                   ...        0 min,  0.010 sec
 * total energy  :   -40.4537200 Eh     change       -0.6034484E-05 Eh
   gradient norm :     0.0015543 Eh/α   predicted    -0.4016738E-05 ( -33.44%)
   displ. norm   :     0.0516339 α      lambda       -0.7335615E-05
   maximum displ.:     0.0277130 α      in ANC's #7, #3, #2, ...

........................................................................
.............................. CYCLE   18 ..............................
........................................................................
   1    -41.0565616 -0.410566E+02  0.317E-02    2.37       0.0  T
   2    -41.0565617 -0.103538E-06  0.185E-02    2.38       1.1  T
   3    -41.0565614  0.254430E-06  0.399E-03    2.37       5.1  T
   4    -41.0565617 -0.308929E-06  0.830E-04    2.37      24.6  T
   5    -41.0565617 -0.401290E-08  0.445E-04    2.37      45.9  T
     SCC iter.                  ...        0 min,  0.006 sec
     gradient                   ...        0 min,  0.010 sec
 * total energy  :   -40.4537243 Eh     change       -0.4307623E-05 Eh
   gradient norm :     0.0008991 Eh/α   predicted    -0.3674511E-05 ( -14.70%)
   displ. norm   :     0.0105459 α      lambda        0.2131498E-05
   maximum displ.:     0.0067244 α      in ANC's #3, #8, #10, ...

   *** GEOMETRY OPTIMIZATION CONVERGED AFTER 18 ITERATIONS ***

------------------------------------------------------------------------
 total energy gain   :        -0.0229321 Eh      -14.3901 kcal/mol
 total RMSD          :         0.2796419 a0        0.1480 Å
 total power (kW/mol):        -3.3449072 (step) -148.4766 (real)
------------------------------------------------------------------------

 ANCopt (total)                0 d,  0 h,  0 min,  0.406 sec
 optimizer setup                ...        0 min,  0.000 sec (  0.049%)
 model hessian                  ...        0 min,  0.005 sec (  1.201%)
 ANC generation                 ...        0 min,  0.001 sec (  0.173%)
 coordinate transformation      ...        0 min,  0.000 sec (  0.072%)
 single point calculation       ...        0 min,  0.393 sec ( 96.953%)
 optimization log               ...        0 min,  0.002 sec (  0.583%)
 hessian update                 ...        0 min,  0.000 sec (  0.073%)
 rational function              ...        0 min,  0.002 sec (  0.596%)

================
 final structure:
================

  xtb     01172215013D
 xtb: 6.4.1 (unknown)
 24 24  0     0  0            999 V2000
    2.7523   -1.1538    2.2733 C   0  0  0  0  0  0  0  0  0  0  0  0
    1.7507   -0.5270    1.6376 C   0  0  0  0  0  0  0  0  0  0  0  0
    0.4879   -1.3002    1.4468 C   0  0  0  0  0  0  0  0  0  0  0  0
    0.3846   -2.4533    1.8037 O   0  0  0  0  0  0  0  0  0  0  0  0
   -0.5659   -0.6398    0.8557 N   0  0  0  0  0  0  0  0  0  0  0  0
   -1.8106   -1.3823    0.6700 C   0  0  0  0  0  0  0  0  0  0  0  0
   -1.8483   -2.0589   -0.6936 C   0  0  0  0  0  0  0  0  0  0  0  0
   -0.5371    0.6613    0.3778 C   0  0  0  0  0  0  0  0  0  0  0  0
   -1.5093    1.1585   -0.1429 O   0  0  0  0  0  0  0  0  0  0  0  0
    0.7416    1.3795    0.5490 C   0  0  0  0  0  0  0  0  0  0  0  0
    0.7595    2.7026    0.0479 C   0  0  0  0  0  0  0  0  0  0  0  0
    0.7868    3.7743   -0.3569 N   0  0  0  0  0  0  0  0  0  0  0  0
    1.8310    0.8325    1.1422 C   0  0  0  0  0  0  0  0  0  0  0  0
    3.1063    1.5927    1.2957 C   0  0  0  0  0  0  0  0  0  0  0  0
    2.6046   -2.1666    2.6107 H   0  0  0  0  0  0  0  0  0  0  0  0
    3.7041   -0.6959    2.4724 H   0  0  0  0  0  0  0  0  0  0  0  0
   -2.6318   -0.6691    0.7622 H   0  0  0  0  0  0  0  0  0  0  0  0
   -1.8656   -2.1257    1.4669 H   0  0  0  0  0  0  0  0  0  0  0  0
   -2.7803   -2.6061   -0.8017 H   0  0  0  0  0  0  0  0  0  0  0  0
   -1.7869   -1.3154   -1.4849 H   0  0  0  0  0  0  0  0  0  0  0  0
   -1.0198   -2.7567   -0.7920 H   0  0  0  0  0  0  0  0  0  0  0  0
    3.3628    1.6874    2.3498 H   0  0  0  0  0  0  0  0  0  0  0  0
    3.0165    2.5871    0.8674 H   0  0  0  0  0  0  0  0  0  0  0  0
    3.9192    1.0669    0.7969 H   0  0  0  0  0  0  0  0  0  0  0  0
  1  2  2  0  0  0  0
  2  3  1  0  0  0  0
  3  4  2  0  0  0  0
  3  5  1  0  0  0  0
  5  6  1  0  0  0  0
  6  7  1  0  0  0  0
  5  8  1  0  0  0  0
  8  9  2  0  0  0  0
  8 10  1  0  0  0  0
 10 11  1  0  0  0  0
 11 12  3  0  0  0  0
 10 13  2  0  0  0  0
 13 14  1  0  0  0  0
 13  2  1  0  0  0  0
  1 15  1  0  0  0  0
  1 16  1  0  0  0  0
  6 17  1  0  0  0  0
  6 18  1  0  0  0  0
  7 19  1  0  0  0  0
  7 20  1  0  0  0  0
  7 21  1  0  0  0  0
 14 22  1  0  0  0  0
 14 23  1  0  0  0  0
 14 24  1  0  0  0  0
M  END
 
 Bond Distances (Angstroems)
 ---------------------------
C1-C2=1.3417         C1-H15=1.0777        C1-H16=1.0747        C2-C1=1.3417         C2-C3=1.4929         C2-C13=1.4491        
C3-C2=1.4929         C3-O4=1.2115         C3-N5=1.3769         O4-C3=1.2115         N5-C3=1.3769         N5-C6=1.4611         
N5-C8=1.3864         C6-N5=1.4611         C6-C7=1.5227         C6-H17=1.0915        C6-H18=1.0912        C7-C6=1.5227         
C7-H19=1.0862        C7-H20=1.0875        C7-H21=1.0876        C8-N5=1.3864         C8-O9=1.2097         C8-C10=1.4766        
O9-C8=1.2097         C10-C8=1.4766        C10-C11=1.4149       C10-C13=1.3558       C11-C10=1.4149       C11-N12=1.1459       
N12-C11=1.1459       C13-C2=1.4491        C13-C10=1.3558       C13-C14=1.4926       C14-C13=1.4926       C14-H22=1.0890       
C14-H23=1.0864       C14-H24=1.0891       H15-C1=1.0777        H16-C1=1.0747        H17-C6=1.0915        H18-C6=1.0912        
H19-C7=1.0862        H20-C7=1.0875        H21-C7=1.0876        H22-C14=1.0890       H23-C14=1.0864       H24-C14=1.0891       
 C  H  Rav=1.0861 sigma=0.0053  Rmin=1.0747  Rmax=1.0915    10
 C  C  Rav=1.4433 sigma=0.0624  Rmin=1.3417  Rmax=1.5227     8
 N  C  Rav=1.3426 sigma=0.1182  Rmin=1.1459  Rmax=1.4611     4
 O  C  Rav=1.2106 sigma=0.0009  Rmin=1.2097  Rmax=1.2115     2
 
 selected bond angles (degree)
 --------------------
H15-C1-C2=119.01               H16-C1-C2=123.36               H16-C1-H15=117.63              C3-C2-C1=116.75                
C13-C2-C1=123.97               C13-C2-C3=119.28               O4-C3-C2=121.83                N5-C3-C2=116.99                
N5-C3-O4=121.18                C6-N5-C3=117.57                C8-N5-C3=125.60                C8-N5-C6=116.79                
C7-C6-N5=111.15                H17-C6-N5=107.35               H17-C6-C7=110.32               H18-C6-N5=107.24               
H18-C6-C7=110.49               H18-C6-H17=110.21              H19-C7-C6=109.53               H20-C7-C6=110.26               
H20-C7-H19=108.69              H21-C7-C6=110.31               H21-C7-H19=108.75              H21-C7-H20=109.26              
O9-C8-N5=121.16                C10-C8-N5=115.75               C10-C8-O9=123.09               C11-C10-C8=115.13              
C13-C10-C8=123.39              C13-C10-C11=121.47             
 
 selected dihedral angles (degree)
 ---------------------------------
C3-C2-C1-H15=  0.02           C3-C2-C1-H16=180.37           C13-C2-C1-H15=179.85          C13-C2-C1-H16=  0.19          
O4-C3-C2-C1=357.41            O4-C3-C2-C13=177.58           N5-C3-C2-C1=176.81            N5-C3-C2-C13=356.97           
C6-N5-C3-C2=180.35            C6-N5-C3-O4=359.75            C8-N5-C3-C2=  2.65            C8-N5-C3-O4=182.04            
C7-C6-N5-C3=268.38            C7-C6-N5-C8= 86.30            H17-C6-N5-C3=147.66           H17-C6-N5-C8=325.57           
H18-C6-N5-C3= 29.24           H18-C6-N5-C8=207.16           H19-C7-C6-N5=179.72           H19-C7-C6-H17=298.68          
H19-C7-C6-H18= 60.79          H20-C7-C6-N5=299.28           H20-C7-C6-H17= 58.24          H20-C7-C6-H18=180.36          
H21-C7-C6-N5= 60.05           H21-C7-C6-H17=179.01          H21-C7-C6-H18=301.12          O9-C8-N5-C3=179.14            
O9-C8-N5-C6=  1.42            C10-C8-N5-C3=359.10           C10-C8-N5-C6=181.38           C11-C10-C8-N5=179.55          
C11-C10-C8-O9=359.51          C13-C10-C8-N5=359.43          C13-C10-C8-O9=179.39          
           -------------------------------------------------
          |                Final Singlepoint                |
           -------------------------------------------------

          ...................................................
          :                      SETUP                      :
          :.................................................:
          :  # basis functions                  66          :
          :  # atomic orbitals                  66          :
          :  # shells                           38          :
          :  # electrons                        72          :
          :  max. iterations                   250          :
          :  Hamiltonian                  GFN2-xTB          :
          :  restarted?                      false          :
          :  GBSA solvation                  false          :
          :  PC potential                    false          :
          :  electronic temp.          300.0000000     K    :
          :  accuracy                    1.0000000          :
          :  -> integral cutoff          0.2500000E+02      :
          :  -> integral neglect         0.1000000E-07      :
          :  -> SCF convergence          0.1000000E-05 Eh   :
          :  -> wf. convergence          0.1000000E-03 e    :
          :  Broyden damping             0.4000000          :
          ...................................................

 iter      E             dE          RMSdq      gap      omega  full diag
   1    -41.0565617 -0.410566E+02  0.285E-04    2.37       0.0  T
   2    -41.0565617  0.690292E-09  0.322E-04    2.37      63.4  T
   3    -41.0565617 -0.246631E-08  0.745E-05    2.37     273.8  T

   *** convergence criteria satisfied after 3 iterations ***

         #    Occupation            Energy/Eh            Energy/eV
      -------------------------------------------------------------
         1        2.0000           -0.7351022             -20.0031
       ...           ...                  ...                  ...
        30        2.0000           -0.4755013             -12.9390
        31        2.0000           -0.4535841             -12.3427
        32        2.0000           -0.4407839             -11.9943
        33        2.0000           -0.4382701             -11.9259
        34        2.0000           -0.4328431             -11.7783
        35        2.0000           -0.4288744             -11.6703
        36        2.0000           -0.4253083             -11.5732 (HOMO)
        37                         -0.3380324              -9.1983 (LUMO)
        38                         -0.2721204              -7.4048
        39                         -0.2389653              -6.5026
        40                         -0.2209447              -6.0122
        41                         -0.1832770              -4.9872
       ...                                ...                  ...
        66                          1.1572155              31.4894
      -------------------------------------------------------------
                  HL-Gap            0.0872759 Eh            2.3749 eV
             Fermi-level           -0.3816703 Eh          -10.3858 eV

 SCC (total)                   0 d,  0 h,  0 min,  0.018 sec
 SCC setup                      ...        0 min,  0.000 sec (  0.727%)
 Dispersion                     ...        0 min,  0.000 sec (  0.551%)
 classical contributions        ...        0 min,  0.000 sec (  0.176%)
 integral evaluation            ...        0 min,  0.003 sec ( 18.721%)
 iterations                     ...        0 min,  0.004 sec ( 23.526%)
 molecular gradient             ...        0 min,  0.010 sec ( 55.305%)
 printout                       ...        0 min,  0.000 sec (  0.781%)

         :::::::::::::::::::::::::::::::::::::::::::::::::::::
         ::                     SUMMARY                     ::
         :::::::::::::::::::::::::::::::::::::::::::::::::::::
         :: total energy             -40.453724275854 Eh    ::
         :: gradient norm              0.000898395866 Eh/a0 ::
         :: HOMO-LUMO gap              2.374898780922 eV    ::
         ::.................................................::
         :: SCC energy               -41.056561745500 Eh    ::
         :: -> isotropic ES            0.069572371109 Eh    ::
         :: -> anisotropic ES          0.002267340449 Eh    ::
         :: -> anisotropic XC          0.027423317546 Eh    ::
         :: -> dispersion             -0.023068475867 Eh    ::
         :: repulsion energy           0.602709385002 Eh    ::
         :: add. restraining           0.000000000000 Eh    ::
         :: total charge              -0.000000000000 e     ::
         :::::::::::::::::::::::::::::::::::::::::::::::::::::

           -------------------------------------------------
          |                Property Printout                |
           -------------------------------------------------

    * Orbital Energies and Occupations

         #    Occupation            Energy/Eh            Energy/eV
      -------------------------------------------------------------
         1        2.0000           -0.7351022             -20.0031
       ...           ...                  ...                  ...
        24        2.0000           -0.5072785             -13.8038
        25        2.0000           -0.5010891             -13.6353
        26        2.0000           -0.4956364             -13.4870
        27        2.0000           -0.4877196             -13.2715
        28        2.0000           -0.4844635             -13.1829
        29        2.0000           -0.4781084             -13.0100
        30        2.0000           -0.4755013             -12.9390
        31        2.0000           -0.4535841             -12.3427
        32        2.0000           -0.4407839             -11.9943
        33        2.0000           -0.4382701             -11.9259
        34        2.0000           -0.4328431             -11.7783
        35        2.0000           -0.4288744             -11.6703
        36        2.0000           -0.4253083             -11.5732 (HOMO)
        37                         -0.3380324              -9.1983 (LUMO)
        38                         -0.2721204              -7.4048
        39                         -0.2389653              -6.5026
        40                         -0.2209447              -6.0122
        41                         -0.1832770              -4.9872
        42                         -0.1143287              -3.1110
        43                         -0.0253937              -0.6910
        44                          0.0563945               1.5346
        45                          0.0611815               1.6648
        46                          0.0786168               2.1393
        47                          0.1084920               2.9522
       ...                                ...                  ...
        66                          1.1572155              31.4894
      -------------------------------------------------------------
                  HL-Gap            0.0872759 Eh            2.3749 eV
             Fermi-level           -0.3816703 Eh          -10.3858 eV

     #   Z          covCN         q      C6AA      α(0)
     1   6 C        2.853    -0.055    29.366     8.882
     2   6 C        2.956    -0.016    28.398     8.741
     3   6 C        2.777     0.272    22.406     7.753
     4   8 O        0.859    -0.394    21.560     6.225
     5   7 N        2.740    -0.099    23.180     7.151
     6   6 C        3.754     0.008    20.502     6.456
     7   6 C        3.752    -0.108    22.627     6.783
     8   6 C        2.776     0.281    22.239     7.724
     9   8 O        0.859    -0.384    21.361     6.197
    10   6 C        2.962    -0.025    28.637     8.777
    11   6 C        1.913     0.129    27.945     8.537
    12   7 N        0.911    -0.209    25.554     7.311
    13   6 C        2.963     0.039    27.115     8.541
    14   6 C        3.758    -0.117    22.785     6.805
    15   1 H        0.926     0.093     1.848     2.126
    16   1 H        0.926     0.074     2.041     2.234
    17   1 H        0.924     0.072     2.064     2.247
    18   1 H        0.924     0.073     2.057     2.243
    19   1 H        0.925     0.054     2.271     2.357
    20   1 H        0.925     0.053     2.283     2.363
    21   1 H        0.925     0.050     2.323     2.384
    22   1 H        0.925     0.071     2.075     2.253
    23   1 H        0.925     0.068     2.113     2.273
    24   1 H        0.925     0.071     2.077     2.254

 Mol. C6AA /au·bohr⁶  :       6985.796772
 Mol. C8AA /au·bohr⁸  :     165707.818644
 Mol. α(0) /au        :        128.615579


Wiberg/Mayer (AO) data.
largest (>0.10) Wiberg bond orders for each atom

 ---------------------------------------------------------------------------
     #   Z sym  total        # sym  WBO       # sym  WBO       # sym  WBO
 ---------------------------------------------------------------------------
     1   6 C    3.913 --     2 C    1.773    16 H    0.972    15 H    0.968
     2   6 C    3.989 --     1 C    1.773    13 C    1.112     3 C    0.992
     3   6 C    3.949 --     4 O    1.713     5 N    1.148     2 C    0.992
     4   8 O    2.046 --     3 C    1.713     5 N    0.143
     5   7 N    3.578 --     3 C    1.148     8 C    1.113     6 C    0.959
                             4 O    0.143     9 O    0.134
     6   6 C    3.949 --     7 C    1.010    18 H    0.967    17 H    0.967
                             5 N    0.959
     7   6 C    3.992 --     6 C    1.010    21 H    0.987    20 H    0.986
                            19 H    0.983
     8   6 C    3.951 --     9 O    1.719     5 N    1.113    10 C    1.010
     9   8 O    2.023 --     8 C    1.719     5 N    0.134
    10   6 C    3.987 --    13 C    1.611    11 C    1.098     8 C    1.010
    11   6 C    3.949 --    12 N    2.803    10 C    1.098
    12   7 N    2.986 --    11 C    2.803
    13   6 C    3.982 --    10 C    1.611     2 C    1.112    14 C    1.038
    14   6 C    3.991 --    13 C    1.038    23 H    0.977    24 H    0.959
                            22 H    0.958
    15   1 H    0.990 --     1 C    0.968
    16   1 H    0.994 --     1 C    0.972
    17   1 H    0.994 --     6 C    0.967
    18   1 H    0.994 --     6 C    0.967
    19   1 H    0.996 --     7 C    0.983
    20   1 H    0.997 --     7 C    0.986
    21   1 H    0.998 --     7 C    0.987
    22   1 H    0.993 --    14 C    0.958
    23   1 H    0.995 --    14 C    0.977
    24   1 H    0.993 --    14 C    0.959
 ---------------------------------------------------------------------------


molecular dipole:
                 x           y           z       tot (Debye)
 q only:        1.347      -0.682       0.675
   full:        1.512      -1.014       0.894       5.155
molecular quadrupole (traceless):
                xx          xy          yy          xz          yz          zz
 q only:       14.048       6.492     -16.305       6.336       7.460       2.256
  q+dip:       17.057       5.237     -21.696       7.035       8.723       4.640
   full:       16.856       5.275     -24.071       5.670      11.213       7.214

           -------------------------------------------------
          |                Geometry Summary                 |
           -------------------------------------------------

      molecular mass/u    :      190.1989828
   center of mass at/Å    :        0.4129956       0.1319777       0.7724856
  moments of inertia/u·Å² :        0.5361658E+03   0.7472663E+03   0.1230657E+04
rotational constants/cm⁻¹ :        0.3144108E-01   0.2255907E-01   0.1369807E-01

 * 19 selected distances

     #   Z          #   Z                                           value/Å
     1   6 C        2   6 C                                       1.3417177
     3   6 C        4   8 O                                       1.2115328
     3   6 C        5   7 N                                       1.3769425
     5   7 N        6   6 C                                       1.4611150
     6   6 C        7   6 C                                       1.5227402 (max)
     5   7 N        8   6 C                                       1.3863828
     8   6 C        9   8 O                                       1.2097052
    11   6 C       12   7 N                                       1.1458598
    10   6 C       13   6 C                                       1.3557510
     1   6 C       15   1 H                                       1.0777377
     1   6 C       16   1 H                                       1.0747473 (min)
     6   6 C       17   1 H                                       1.0915372
     6   6 C       18   1 H                                       1.0912271
     7   6 C       19   1 H                                       1.0861784
     7   6 C       20   1 H                                       1.0874989
     7   6 C       21   1 H                                       1.0876299
    14   6 C       22   1 H                                       1.0890392
    14   6 C       23   1 H                                       1.0864359
    14   6 C       24   1 H                                       1.0890655

 * 4 distinct bonds (by element types)

   Z      Z             #   av. dist./Å        max./Å        min./Å
   1 H    6 C          10     1.0861097     1.0915372     1.0747473
   6 C    6 C           3     1.4067363     1.5227402     1.3417177
   6 C    7 N           4     1.3425750     1.4611150     1.1458598
   6 C    8 O           2     1.2106190     1.2115328     1.2097052


optimized geometry written to: xtbopt.mol


           -------------------------------------------------
          | TOTAL ENERGY              -40.453724275854 Eh   |
          | GRADIENT NORM               0.000898395866 Eh/α |
          | HOMO-LUMO GAP               2.374898780922 eV   |
           -------------------------------------------------

------------------------------------------------------------------------
 * finished run on 2022/01/17 at 15:01:38.734     
------------------------------------------------------------------------
 total:
 * wall-time:     0 d,  0 h,  0 min,  0.470 sec
 *  cpu-time:     0 d,  0 h,  0 min,  0.469 sec
 * ratio c/w:     0.998 speedup
 SCF:
 * wall-time:     0 d,  0 h,  0 min,  0.033 sec
 *  cpu-time:     0 d,  0 h,  0 min,  0.032 sec
 * ratio c/w:     0.974 speedup
 ANC optimizer:
 * wall-time:     0 d,  0 h,  0 min,  0.425 sec
 *  cpu-time:     0 d,  0 h,  0 min,  0.425 sec
 * ratio c/w:     1.000 speedup

