      -----------------------------------------------------------      
     |                   =====================                   |     
     |                           x T B                           |     
     |                   =====================                   |     
     |                         S. Grimme                         |     
     |          Mulliken Center for Theoretical Chemistry        |     
     |                    University of Bonn                     |     
      -----------------------------------------------------------      

   * xtb version 6.4.1 (unknown) compiled by 'oda6@login1.crc.pitt.edu' on 2021-06-25

   xtb is free software: you can redistribute it and/or modify it under
   the terms of the GNU Lesser General Public License as published by
   the Free Software Foundation, either version 3 of the License, or
   (at your option) any later version.
   
   xtb is distributed in the hope that it will be useful,
   but WITHOUT ANY WARRANTY; without even the implied warranty of
   MERCHANTABILITY or FITNESS FOR A PARTICULAR PURPOSE.  See the
   GNU Lesser General Public License for more details.
   
   Cite this work as:
   * C. Bannwarth, E. Caldeweyher, S. Ehlert, A. Hansen, P. Pracht,
     J. Seibert, S. Spicher, S. Grimme, WIREs Comput. Mol. Sci., 2020, 11,
     e01493. DOI: 10.1002/wcms.1493
   
   for GFN2-xTB:
   * C. Bannwarth, S. Ehlert and S. Grimme., J. Chem. Theory Comput., 2019,
     15, 1652-1671. DOI: 10.1021/acs.jctc.8b01176
   for GFN1-xTB:
   * S. Grimme, C. Bannwarth, P. Shushkov, J. Chem. Theory Comput., 2017,
     13, 1989-2009. DOI: 10.1021/acs.jctc.7b00118
   for GFN0-xTB:
   * P. Pracht, E. Caldeweyher, S. Ehlert, S. Grimme, ChemRxiv, 2019, preprint.
     DOI: 10.26434/chemrxiv.8326202.v1
   for GFN-FF:
   * S. Spicher and S. Grimme, Angew. Chem. Int. Ed., 2020, 59, 15665-15673.
     DOI: 10.1002/anie.202004239
   
   for DFT-D4:
   * E. Caldeweyher, C. Bannwarth and S. Grimme, J. Chem. Phys., 2017,
     147, 034112. DOI: 10.1063/1.4993215
   * E. Caldeweyher, S. Ehlert, A. Hansen, H. Neugebauer, S. Spicher,
     C. Bannwarth and S. Grimme, J. Chem. Phys., 2019, 150, 154122.
     DOI: 10.1063/1.5090222
   * E. Caldeweyher, J.-M. Mewes, S. Ehlert and S. Grimme, Phys. Chem. Chem. Phys.
     2020, 22, 8499-8512. DOI: 10.1039/D0CP00502A
   
   for sTDA-xTB:
   * S. Grimme and C. Bannwarth, J. Chem. Phys., 2016, 145, 054103.
     DOI: 10.1063/1.4959605
   
   in the mass-spec context:
   * V. Asgeirsson, C. Bauer and S. Grimme, Chem. Sci., 2017, 8, 4879.
     DOI: 10.1039/c7sc00601b
   * J. Koopman and S. Grimme, ACS Omega 2019, 4, 12, 15120-15133.
     DOI: 10.1021/acsomega.9b02011
   
   for metadynamics refer to:
   * S. Grimme, J. Chem. Theory Comput., 2019, 155, 2847-2862
     DOI: 10.1021/acs.jctc.9b00143
   
   for SPH calculations refer to:
   * S. Spicher and S. Grimme, J. Chem. Theory Comput., 2021, 17, 1701-1714
     DOI: 10.1021/acs.jctc.0c01306
   
   with help from (in alphabetical order)
   P. Atkinson, C. Bannwarth, F. Bohle, G. Brandenburg, E. Caldeweyher
   M. Checinski, S. Dohm, S. Ehlert, S. Ehrlich, I. Gerasimov, J. Koopman
   C. Lavigne, S. Lehtola, F. März, M. Müller, F. Musil, H. Neugebauer
   J. Pisarek, C. Plett, P. Pracht, J. Seibert, P. Shushkov, S. Spicher
   M. Stahn, M. Steiner, T. Strunk, J. Stückrath, T. Rose, and J. Unsleber
   
 * started run on 2022/01/17 at 15:01:39.997     

           -------------------------------------------------
          |                Calculation Setup                |
           -------------------------------------------------

          program call               : /ihome/ghutchison/oda6/xtb/xtb-641/bin//xtb 364.mol -opt
          hostname                   : smp-n43
          coordinate file            : 364.mol
          omp threads                :                     1
          number of atoms            :                    28
          number of electrons        :                    84
          charge                     :                     0
          spin                       :                   0.0
          first test random number   :      0.90278247312480

   ID    Z sym.   atoms
    1    6 C      1-3, 5-7, 9, 11, 12, 14-16
    2    7 N      4, 13
    3    9 F      8, 10
    4    1 H      17-28
########################################################################
[WARNING] Please study the warnings concerning your input carefully
-1- prog_main_parseArguments: the use of '-opt' is discouraged, please use '--opt' next time
########################################################################

           -------------------------------------------------
          |                 G F N 2 - x T B                 |
           -------------------------------------------------

        Reference                      10.1021/acs.jctc.8b01176
      * Hamiltonian:
        H0-scaling (s, p, d)           1.850000    2.230000    2.230000
        zeta-weighting                 0.500000
      * Dispersion:
        s8                             2.700000
        a1                             0.520000
        a2                             5.000000
        s9                             5.000000
      * Repulsion:
        kExp                           1.500000    1.000000
        rExp                           1.000000
      * Coulomb:
        alpha                          2.000000
        third order                    shell-resolved
        anisotropic                    true
        a3                             3.000000
        a5                             4.000000
        cn-shift                       1.200000
        cn-exp                         4.000000
        max-rad                        5.000000


          ...................................................
          :                      SETUP                      :
          :.................................................:
          :  # basis functions                  76          :
          :  # atomic orbitals                  76          :
          :  # shells                           44          :
          :  # electrons                        84          :
          :  max. iterations                   250          :
          :  Hamiltonian                  GFN2-xTB          :
          :  restarted?                      false          :
          :  GBSA solvation                  false          :
          :  PC potential                    false          :
          :  electronic temp.          300.0000000     K    :
          :  accuracy                    1.0000000          :
          :  -> integral cutoff          0.2500000E+02      :
          :  -> integral neglect         0.1000000E-07      :
          :  -> SCF convergence          0.1000000E-05 Eh   :
          :  -> wf. convergence          0.1000000E-03 e    :
          :  Broyden damping             0.4000000          :
          ...................................................

 iter      E             dE          RMSdq      gap      omega  full diag
   1    -47.6164849 -0.476165E+02  0.376E+00    1.94       0.0  T
   2    -47.6586098 -0.421249E-01  0.238E+00    1.57       1.0  T
   3    -47.6525044  0.610538E-02  0.132E+00    1.59       1.0  T
   4    -47.6820275 -0.295230E-01  0.334E-01    1.34       1.0  T
   5    -47.6836692 -0.164175E-02  0.107E-01    1.32       1.0  T
   6    -47.6838338 -0.164596E-03  0.568E-02    1.34       1.0  T
   7    -47.6838885 -0.546214E-04  0.233E-02    1.34       1.0  T
   8    -47.6838961 -0.767497E-05  0.917E-03    1.34       2.1  T
   9    -47.6838964 -0.291589E-06  0.277E-03    1.34       6.8  T
  10    -47.6838965 -0.445933E-07  0.708E-04    1.34      26.7  T
  11    -47.6838965 -0.165365E-09  0.459E-04    1.34      41.2  T

   *** convergence criteria satisfied after 11 iterations ***

         #    Occupation            Energy/Eh            Energy/eV
      -------------------------------------------------------------
         1        2.0000           -0.8308243             -22.6079
       ...           ...                  ...                  ...
        36        2.0000           -0.4531628             -12.3312
        37        2.0000           -0.4526253             -12.3166
        38        2.0000           -0.4458165             -12.1313
        39        2.0000           -0.4215272             -11.4703
        40        2.0000           -0.4174657             -11.3598
        41        2.0000           -0.4162381             -11.3264
        42        2.0000           -0.3651646              -9.9366 (HOMO)
        43                         -0.3159634              -8.5978 (LUMO)
        44                         -0.2603752              -7.0852
        45                         -0.2391504              -6.5076
        46                         -0.1954039              -5.3172
        47                         -0.1009650              -2.7474
       ...                                ...                  ...
        76                          0.6298120              17.1381
      -------------------------------------------------------------
                  HL-Gap            0.0492012 Eh            1.3388 eV
             Fermi-level           -0.3405640 Eh           -9.2672 eV

 SCC (total)                   0 d,  0 h,  0 min,  0.037 sec
 SCC setup                      ...        0 min,  0.000 sec (  0.771%)
 Dispersion                     ...        0 min,  0.000 sec (  0.896%)
 classical contributions        ...        0 min,  0.000 sec (  0.171%)
 integral evaluation            ...        0 min,  0.005 sec ( 12.475%)
 iterations                     ...        0 min,  0.019 sec ( 49.724%)
 molecular gradient             ...        0 min,  0.013 sec ( 35.224%)
 printout                       ...        0 min,  0.000 sec (  0.613%)

         :::::::::::::::::::::::::::::::::::::::::::::::::::::
         ::                     SUMMARY                     ::
         :::::::::::::::::::::::::::::::::::::::::::::::::::::
         :: total energy             -47.122175103949 Eh    ::
         :: gradient norm              0.107520858149 Eh/a0 ::
         :: HOMO-LUMO gap              1.338833379448 eV    ::
         ::.................................................::
         :: SCC energy               -47.683896467345 Eh    ::
         :: -> isotropic ES            0.039348729646 Eh    ::
         :: -> anisotropic ES          0.004940568720 Eh    ::
         :: -> anisotropic XC          0.022906155469 Eh    ::
         :: -> dispersion             -0.026639749435 Eh    ::
         :: repulsion energy           0.561643645604 Eh    ::
         :: add. restraining           0.000000000000 Eh    ::
         :: total charge               0.000000000000 e     ::
         :::::::::::::::::::::::::::::::::::::::::::::::::::::

      ----------------------------------------------------------- 
     |                   =====================                   |
     |                        A N C O P T                        |
     |                   =====================                   |
     |               Approximate Normal Coordinate               |
     |                Rational Function Optimizer                |
      ----------------------------------------------------------- 

          ...................................................
          :                      SETUP                      :
          :.................................................:
          :   optimization level            normal          :
          :   max. optcycles                   200          :
          :   ANC micro-cycles                  20          :
          :   degrees of freedom                78          :
          :.................................................:
          :   RF solver                   davidson          :
          :   write xtbopt.log                true          :
          :   linear?                        false          :
          :   energy convergence         0.5000000E-05 Eh   :
          :   grad. convergence          0.1000000E-02 Eh/α :
          :   maximium RF displ.         1.0000000          :
          :   Hlow (freq-cutoff)         0.1000000E-01      :
          :   Hmax (freq-cutoff)         5.0000000          :
          :   S6 in model hess.         20.0000000          :
          ...................................................

generating ANC from model Hessian ...
Using Lindh-Hessian (1995)
 Shifting diagonal of input Hessian by   8.742844901811084E-003
 Lowest  eigenvalues of input Hessian
    0.000000    0.000000    0.000000    0.000000    0.000000    0.000000
    0.010000    0.010531    0.010724    0.011385    0.013759    0.014529
    0.016571    0.016605    0.021915    0.023890    0.027185    0.028086
 Highest eigenvalues
    1.778923    1.869015    1.932374    1.933269    2.071347    2.188811
 

........................................................................
.............................. CYCLE    1 ..............................
........................................................................
   1    -47.6838965 -0.476839E+02  0.187E-04    1.34       0.0  T
   2    -47.6838965 -0.125908E-09  0.143E-04    1.34     131.8  T
   3    -47.6838965 -0.382208E-09  0.757E-05    1.34     249.5  T
     SCC iter.                  ...        0 min,  0.005 sec
     gradient                   ...        0 min,  0.012 sec
 * total energy  :   -47.1221751 Eh     change       -0.3092481E-08 Eh
   gradient norm :     0.1075203 Eh/α   predicted     0.0000000E+00 (-100.00%)
   displ. norm   :     0.3283253 α      lambda       -0.1762153E-01
   maximum displ.:     0.1714580 α      in ANC's #17, #13, #44, ...

........................................................................
.............................. CYCLE    2 ..............................
........................................................................
   1    -47.7348984 -0.477349E+02  0.269E-01    1.49       0.0  T
   2    -47.7350695 -0.171185E-03  0.163E-01    1.50       1.0  T
   3    -47.7350031  0.664568E-04  0.644E-02    1.50       1.0  T
   4    -47.7350920 -0.889325E-04  0.227E-02    1.50       1.0  T
   5    -47.7351063 -0.143120E-04  0.567E-03    1.50       3.3  T
   6    -47.7351063  0.362410E-07  0.330E-03    1.50       5.7  T
   7    -47.7351064 -0.151464E-06  0.704E-04    1.50      26.8  T
   8    -47.7351065 -0.136160E-07  0.307E-04    1.50      61.6  T
     SCC iter.                  ...        0 min,  0.011 sec
     gradient                   ...        0 min,  0.013 sec
 * total energy  :   -47.1340102 Eh     change       -0.1183511E-01 Eh
   gradient norm :     0.0414040 Eh/α   predicted    -0.9764327E-02 ( -17.50%)
   displ. norm   :     0.2162071 α      lambda       -0.3553350E-02
   maximum displ.:     0.1186037 α      in ANC's #17, #13, #5, ...

........................................................................
.............................. CYCLE    3 ..............................
........................................................................
   1    -47.7594033 -0.477594E+02  0.141E-01    1.60       0.0  T
   2    -47.7594510 -0.476926E-04  0.850E-02    1.60       1.0  T
   3    -47.7594287  0.222316E-04  0.385E-02    1.61       1.0  T
   4    -47.7594629 -0.341838E-04  0.107E-02    1.60       1.8  T
   5    -47.7594657 -0.278230E-05  0.291E-03    1.60       6.5  T
   6    -47.7594657  0.105877E-07  0.167E-03    1.60      11.3  T
   7    -47.7594657 -0.443016E-07  0.335E-04    1.60      56.4  T
   8    -47.7594657 -0.216511E-08  0.171E-04    1.60     110.5  T
     SCC iter.                  ...        0 min,  0.011 sec
     gradient                   ...        0 min,  0.013 sec
 * total energy  :   -47.1357908 Eh     change       -0.1780572E-02 Eh
   gradient norm :     0.0074023 Eh/α   predicted    -0.1859916E-02 (   4.46%)
   displ. norm   :     0.0549897 α      lambda       -0.1192511E-03
   maximum displ.:     0.0305566 α      in ANC's #5, #8, #2, ...

........................................................................
.............................. CYCLE    4 ..............................
........................................................................
   1    -47.7583697 -0.477584E+02  0.220E-02    1.61       0.0  T
   2    -47.7583701 -0.388286E-06  0.128E-02    1.61       1.5  T
   3    -47.7583698  0.273411E-06  0.364E-03    1.61       5.2  T
   4    -47.7583701 -0.344722E-06  0.773E-04    1.61      24.4  T
   5    -47.7583702 -0.103198E-07  0.344E-04    1.61      55.0  T
     SCC iter.                  ...        0 min,  0.008 sec
     gradient                   ...        0 min,  0.013 sec
 * total energy  :   -47.1358827 Eh     change       -0.9186438E-04 Eh
   gradient norm :     0.0037857 Eh/α   predicted    -0.6071778E-04 ( -33.90%)
   displ. norm   :     0.0911742 α      lambda       -0.9690822E-04
   maximum displ.:     0.0532463 α      in ANC's #5, #2, #8, ...

........................................................................
.............................. CYCLE    5 ..............................
........................................................................
   1    -47.7576732 -0.477577E+02  0.273E-02    1.62       0.0  T
   2    -47.7576737 -0.462017E-06  0.159E-02    1.62       1.2  T
   3    -47.7576730  0.695324E-06  0.546E-03    1.62       3.5  T
   4    -47.7576739 -0.856187E-06  0.809E-04    1.62      23.4  T
   5    -47.7576739 -0.523164E-08  0.391E-04    1.62      48.3  T
     SCC iter.                  ...        0 min,  0.008 sec
     gradient                   ...        0 min,  0.013 sec
 * total energy  :   -47.1359380 Eh     change       -0.5534381E-04 Eh
   gradient norm :     0.0017386 Eh/α   predicted    -0.4889012E-04 ( -11.66%)
   displ. norm   :     0.0528611 α      lambda       -0.1225269E-04
   maximum displ.:     0.0286883 α      in ANC's #5, #2, #6, ...

........................................................................
.............................. CYCLE    6 ..............................
........................................................................
   1    -47.7578894 -0.477579E+02  0.129E-02    1.62       0.0  T
   2    -47.7578895 -0.498584E-07  0.760E-03    1.62       2.5  T
   3    -47.7578893  0.163120E-06  0.249E-03    1.62       7.6  T
   4    -47.7578895 -0.196092E-06  0.350E-04    1.62      54.0  T
   5    -47.7578895 -0.177394E-09  0.155E-04    1.62     121.7  T
     SCC iter.                  ...        0 min,  0.008 sec
     gradient                   ...        0 min,  0.013 sec
 * total energy  :   -47.1359500 Eh     change       -0.1200004E-04 Eh
   gradient norm :     0.0012630 Eh/α   predicted    -0.6136491E-05 ( -48.86%)
   displ. norm   :     0.0451811 α      lambda       -0.7698105E-05
   maximum displ.:     0.0205315 α      in ANC's #6, #5, #3, ...

........................................................................
.............................. CYCLE    7 ..............................
........................................................................
   1    -47.7581198 -0.477581E+02  0.125E-02    1.62       0.0  T
   2    -47.7581199 -0.315610E-07  0.738E-03    1.62       2.6  T
   3    -47.7581199  0.143766E-07  0.988E-04    1.62      19.1  T
   4    -47.7581199 -0.223217E-07  0.344E-04    1.62      55.0  T
     SCC iter.                  ...        0 min,  0.006 sec
     gradient                   ...        0 min,  0.013 sec
 * total energy  :   -47.1359576 Eh     change       -0.7567295E-05 Eh
   gradient norm :     0.0007866 Eh/α   predicted    -0.3856233E-05 ( -49.04%)
   displ. norm   :     0.0402545 α      lambda       -0.3420223E-05
   maximum displ.:     0.0206982 α      in ANC's #5, #6, #7, ...

........................................................................
.............................. CYCLE    8 ..............................
........................................................................
   1    -47.7580875 -0.477581E+02  0.102E-02    1.62       0.0  T
   2    -47.7580875 -0.155595E-07  0.600E-03    1.62       3.2  T
   3    -47.7580874  0.874753E-07  0.165E-03    1.62      11.5  T
   4    -47.7580876 -0.101918E-06  0.247E-04    1.62      76.7  T
   5    -47.7580876  0.125553E-10  0.117E-04    1.62     160.8  T
     SCC iter.                  ...        0 min,  0.008 sec
     gradient                   ...        0 min,  0.013 sec
 * total energy  :   -47.1359609 Eh     change       -0.3331303E-05 Eh
   gradient norm :     0.0006243 Eh/α   predicted    -0.1719223E-05 ( -48.39%)
   displ. norm   :     0.0196744 α      lambda       -0.1197843E-05
   maximum displ.:     0.0113599 α      in ANC's #5, #7, #6, ...

   *** GEOMETRY OPTIMIZATION CONVERGED AFTER 8 ITERATIONS ***

------------------------------------------------------------------------
 total energy gain   :        -0.0137858 Eh       -8.6507 kcal/mol
 total RMSD          :         0.1201133 a0        0.0636 Å
 total power (kW/mol):        -4.5243248 (step) -168.0671 (real)
------------------------------------------------------------------------

 ANCopt (total)                0 d,  0 h,  0 min,  0.215 sec
 optimizer setup                ...        0 min,  0.000 sec (  0.097%)
 model hessian                  ...        0 min,  0.007 sec (  3.346%)
 ANC generation                 ...        0 min,  0.001 sec (  0.410%)
 coordinate transformation      ...        0 min,  0.000 sec (  0.070%)
 single point calculation       ...        0 min,  0.204 sec ( 94.728%)
 optimization log               ...        0 min,  0.001 sec (  0.572%)
 hessian update                 ...        0 min,  0.000 sec (  0.066%)
 rational function              ...        0 min,  0.001 sec (  0.414%)

================
 final structure:
================

  xtb     01172215013D
 xtb: 6.4.1 (unknown)
 28 29  0     0  0            999 V2000
   -1.1041   -1.8899    3.2905 C   0  0  0  0  0  0  0  0  0  0  0  0
   -1.6577   -0.9438    2.2229 C   0  0  0  0  0  0  0  0  0  0  0  0
   -0.5583   -0.4955    1.3053 C   0  0  0  0  0  0  0  0  0  0  0  0
    0.3512    0.2716    1.8539 N   0  0  0  0  0  0  0  0  0  0  0  0
    1.3890    0.6925    1.1083 C   0  0  0  0  0  0  0  0  0  0  0  0
    2.3810    1.5127    1.6809 C   0  0  0  0  0  0  0  0  0  0  0  0
    3.4260    1.9258    0.9056 C   0  0  0  0  0  0  0  0  0  0  0  0
    4.3848    2.7067    1.4282 F   0  0  0  0  0  0  0  0  0  0  0  0
    3.5243    1.5455   -0.4506 C   0  0  0  0  0  0  0  0  0  0  0  0
    4.5730    1.9786   -1.1680 F   0  0  0  0  0  0  0  0  0  0  0  0
    2.5768    0.7530   -1.0320 C   0  0  0  0  0  0  0  0  0  0  0  0
    1.4866    0.3122   -0.2566 C   0  0  0  0  0  0  0  0  0  0  0  0
    0.5343   -0.4610   -0.8114 N   0  0  0  0  0  0  0  0  0  0  0  0
   -0.4677   -0.8662   -0.0714 C   0  0  0  0  0  0  0  0  0  0  0  0
   -1.4741   -1.7343   -0.7660 C   0  0  0  0  0  0  0  0  0  0  0  0
   -1.2564   -3.2119   -0.4342 C   0  0  0  0  0  0  0  0  0  0  0  0
   -0.3247   -1.3876    3.8567 H   0  0  0  0  0  0  0  0  0  0  0  0
   -0.6777   -2.7813    2.8347 H   0  0  0  0  0  0  0  0  0  0  0  0
   -1.8962   -2.1931    3.9709 H   0  0  0  0  0  0  0  0  0  0  0  0
   -2.0630   -0.0602    2.7201 H   0  0  0  0  0  0  0  0  0  0  0  0
   -2.4591   -1.4309    1.6701 H   0  0  0  0  0  0  0  0  0  0  0  0
    2.3056    1.8013    2.7164 H   0  0  0  0  0  0  0  0  0  0  0  0
    2.6500    0.4621   -2.0670 H   0  0  0  0  0  0  0  0  0  0  0  0
   -1.3447   -1.5880   -1.8390 H   0  0  0  0  0  0  0  0  0  0  0  0
   -2.4877   -1.4350   -0.4933 H   0  0  0  0  0  0  0  0  0  0  0  0
   -1.9631   -3.8244   -0.9887 H   0  0  0  0  0  0  0  0  0  0  0  0
   -1.3943   -3.4017    0.6270 H   0  0  0  0  0  0  0  0  0  0  0  0
   -0.2481   -3.5101   -0.7109 H   0  0  0  0  0  0  0  0  0  0  0  0
  1  2  1  0  0  0  0
  2  3  1  0  0  0  0
  3  4  2  0  0  0  0
  4  5  1  0  0  0  0
  5  6  2  0  0  0  0
  6  7  1  0  0  0  0
  7  8  1  0  0  0  0
  7  9  2  0  0  0  0
  9 10  1  0  0  0  0
  9 11  1  0  0  0  0
 11 12  2  0  0  0  0
 12 13  1  0  0  0  0
 13 14  2  0  0  0  0
 14 15  1  0  0  0  0
 15 16  1  0  0  0  0
 14  3  1  0  0  0  0
 12  5  1  0  0  0  0
  1 17  1  0  0  0  0
  1 18  1  0  0  0  0
  1 19  1  0  0  0  0
  2 20  1  0  0  0  0
  2 21  1  0  0  0  0
  6 22  1  0  0  0  0
 11 23  1  0  0  0  0
 15 24  1  0  0  0  0
 15 25  1  0  0  0  0
 16 26  1  0  0  0  0
 16 27  1  0  0  0  0
 16 28  1  0  0  0  0
M  END
 
 Bond Distances (Angstroems)
 ---------------------------
C1-C2=1.5302         C1-H17=1.0865        C1-H18=1.0882        C1-H19=1.0872        C2-C1=1.5302         C2-C3=1.5006         
C2-H20=1.0919        C2-H21=1.0886        C3-C2=1.5006         C3-N4=1.3102         C3-C14=1.4286        N4-C3=1.3102         
N4-C5=1.3454         C5-N4=1.3454         C5-C6=1.4088         C5-C12=1.4203        C6-C5=1.4088         C6-C7=1.3652         
C6-H22=1.0776        C7-C6=1.3652         C7-F8=1.3425         C7-C9=1.4119         F8-C7=1.3425         C9-C7=1.4119         
C9-F10=1.3424        C9-C11=1.3653        F10-C9=1.3424        C11-C9=1.3653        C11-C12=1.4086       C11-H23=1.0775       
C12-C5=1.4203        C12-C11=1.4086       C12-N13=1.3463       N13-C12=1.3463       N13-C14=1.3099       C14-C3=1.4286        
C14-N13=1.3099       C14-C15=1.4996       C15-C14=1.4996       C15-C16=1.5300       C15-H24=1.0906       C15-H25=1.0914       
C16-C15=1.5300       C16-H26=1.0872       C16-H27=1.0868       C16-H28=1.0872       H17-C1=1.0865        H18-C1=1.0882        
H19-C1=1.0872        H20-C2=1.0919        H21-C2=1.0886        H22-C6=1.0776        H23-C11=1.0775       H24-C15=1.0906       
H25-C15=1.0914       H26-C16=1.0872       H27-C16=1.0868       H28-C16=1.0872       
 C  H  Rav=1.0867 sigma=0.0045  Rmin=1.0775  Rmax=1.0919    12
 C  C  Rav=1.4426 sigma=0.0586  Rmin=1.3652  Rmax=1.5302    11
 N  C  Rav=1.3279 sigma=0.0179  Rmin=1.3099  Rmax=1.3463     4
 F  C  Rav=1.3425 sigma=0.0000  Rmin=1.3424  Rmax=1.3425     2
 
 selected bond angles (degree)
 --------------------
H17-C1-C2=109.71               H18-C1-C2=110.85               H18-C1-H17=108.41              H19-C1-C2=110.21               
H19-C1-H17=108.99              H19-C1-H18=108.62              C3-C2-C1=110.26                H20-C2-C1=108.48               
H20-C2-C3=107.98               H21-C2-C1=110.12               H21-C2-C3=111.26               H21-C2-H20=108.67              
N4-C3-C2=115.30                C14-C3-C2=123.93               C14-C3-N4=120.76               C5-N4-C3=119.11                
C6-C5-N4=120.00                C12-C5-N4=120.12               C12-C5-C6=119.87               C7-C6-C5=118.97                
H22-C6-C5=119.82               H22-C6-C7=121.21               F8-C7-C6=120.11                C9-C7-C6=121.15                
C9-C7-F8=118.74                F10-C9-C7=118.74               C11-C9-C7=121.14               C11-C9-F10=120.13              
 
 selected dihedral angles (degree)
 ---------------------------------
C3-C2-C1-H17= 58.47           C3-C2-C1-H18=298.76           C3-C2-C1-H19=178.48           H20-C2-C1-H17=300.42          
H20-C2-C1-H18=180.72          H20-C2-C1-H19= 60.43          H21-C2-C1-H17=181.61          H21-C2-C1-H18= 61.91          
H21-C2-C1-H19=301.63          N4-C3-C2-C1=292.85            N4-C3-C2-H20= 51.21           N4-C3-C2-H21=170.37           
C14-C3-C2-C1=112.33           C14-C3-C2-H20=230.68          C14-C3-C2-H21=349.84          C5-N4-C3-C2=178.47            
C5-N4-C3-C14=358.98           C6-C5-N4-C3=180.30            C12-C5-N4-C3=  0.34           C7-C6-C5-N4=179.89            
C7-C6-C5-C12=359.85           H22-C6-C5-N4=  0.00           H22-C6-C5-C12=179.96          F8-C7-C6-C5=180.07            
F8-C7-C6-H22=359.96           C9-C7-C6-C5=  0.03            C9-C7-C6-H22=179.92           F10-C9-C7-C6=180.05           
F10-C9-C7-F8=  0.00           C11-C9-C7-C6=  0.06           C11-C9-C7-F8=180.02           
           -------------------------------------------------
          |                Final Singlepoint                |
           -------------------------------------------------

          ...................................................
          :                      SETUP                      :
          :.................................................:
          :  # basis functions                  76          :
          :  # atomic orbitals                  76          :
          :  # shells                           44          :
          :  # electrons                        84          :
          :  max. iterations                   250          :
          :  Hamiltonian                  GFN2-xTB          :
          :  restarted?                      false          :
          :  GBSA solvation                  false          :
          :  PC potential                    false          :
          :  electronic temp.          300.0000000     K    :
          :  accuracy                    1.0000000          :
          :  -> integral cutoff          0.2500000E+02      :
          :  -> integral neglect         0.1000000E-07      :
          :  -> SCF convergence          0.1000000E-05 Eh   :
          :  -> wf. convergence          0.1000000E-03 e    :
          :  Broyden damping             0.4000000          :
          ...................................................

 iter      E             dE          RMSdq      gap      omega  full diag
   1    -47.7580876 -0.477581E+02  0.383E-05    1.62       0.0  T
   2    -47.7580876 -0.134577E-10  0.247E-05    1.62     764.6  T
   3    -47.7580876 -0.131521E-10  0.130E-05    1.62    1449.6  T

   *** convergence criteria satisfied after 3 iterations ***

         #    Occupation            Energy/Eh            Energy/eV
      -------------------------------------------------------------
         1        2.0000           -0.8335594             -22.6823
       ...           ...                  ...                  ...
        36        2.0000           -0.4542887             -12.3618
        37        2.0000           -0.4526628             -12.3176
        38        2.0000           -0.4454810             -12.1222
        39        2.0000           -0.4242894             -11.5455
        40        2.0000           -0.4216327             -11.4732
        41        2.0000           -0.4181741             -11.3791
        42        2.0000           -0.3649158              -9.9299 (HOMO)
        43                         -0.3053132              -8.3080 (LUMO)
        44                         -0.2606955              -7.0939
        45                         -0.2332445              -6.3469
        46                         -0.1843195              -5.0156
        47                         -0.0960270              -2.6130
       ...                                ...                  ...
        76                          0.6719695              18.2852
      -------------------------------------------------------------
                  HL-Gap            0.0596026 Eh            1.6219 eV
             Fermi-level           -0.3351145 Eh           -9.1189 eV

 SCC (total)                   0 d,  0 h,  0 min,  0.023 sec
 SCC setup                      ...        0 min,  0.000 sec (  0.672%)
 Dispersion                     ...        0 min,  0.000 sec (  0.596%)
 classical contributions        ...        0 min,  0.000 sec (  0.177%)
 integral evaluation            ...        0 min,  0.004 sec ( 18.336%)
 iterations                     ...        0 min,  0.005 sec ( 22.677%)
 molecular gradient             ...        0 min,  0.013 sec ( 56.517%)
 printout                       ...        0 min,  0.000 sec (  0.848%)

         :::::::::::::::::::::::::::::::::::::::::::::::::::::
         ::                     SUMMARY                     ::
         :::::::::::::::::::::::::::::::::::::::::::::::::::::
         :: total energy             -47.135960898648 Eh    ::
         :: gradient norm              0.000624310642 Eh/a0 ::
         :: HOMO-LUMO gap              1.621868713846 eV    ::
         ::.................................................::
         :: SCC energy               -47.758087551093 Eh    ::
         :: -> isotropic ES            0.038066211097 Eh    ::
         :: -> anisotropic ES          0.004314830660 Eh    ::
         :: -> anisotropic XC          0.019788526114 Eh    ::
         :: -> dispersion             -0.027036008483 Eh    ::
         :: repulsion energy           0.622034860190 Eh    ::
         :: add. restraining           0.000000000000 Eh    ::
         :: total charge              -0.000000000000 e     ::
         :::::::::::::::::::::::::::::::::::::::::::::::::::::

           -------------------------------------------------
          |                Property Printout                |
           -------------------------------------------------

    * Orbital Energies and Occupations

         #    Occupation            Energy/Eh            Energy/eV
      -------------------------------------------------------------
         1        2.0000           -0.8335594             -22.6823
       ...           ...                  ...                  ...
        30        2.0000           -0.4919535             -13.3867
        31        2.0000           -0.4834548             -13.1555
        32        2.0000           -0.4730888             -12.8734
        33        2.0000           -0.4656100             -12.6699
        34        2.0000           -0.4635390             -12.6135
        35        2.0000           -0.4619193             -12.5695
        36        2.0000           -0.4542887             -12.3618
        37        2.0000           -0.4526628             -12.3176
        38        2.0000           -0.4454810             -12.1222
        39        2.0000           -0.4242894             -11.5455
        40        2.0000           -0.4216327             -11.4732
        41        2.0000           -0.4181741             -11.3791
        42        2.0000           -0.3649158              -9.9299 (HOMO)
        43                         -0.3053132              -8.3080 (LUMO)
        44                         -0.2606955              -7.0939
        45                         -0.2332445              -6.3469
        46                         -0.1843195              -5.0156
        47                         -0.0960270              -2.6130
        48                          0.0237205               0.6455
        49                          0.0417049               1.1348
        50                          0.0818524               2.2273
        51                          0.0875898               2.3834
        52                          0.1063171               2.8930
        53                          0.1096864               2.9847
       ...                                ...                  ...
        76                          0.6719695              18.2852
      -------------------------------------------------------------
                  HL-Gap            0.0596026 Eh            1.6219 eV
             Fermi-level           -0.3351145 Eh           -9.1189 eV

     #   Z          covCN         q      C6AA      α(0)
     1   6 C        3.754    -0.099    22.448     6.756
     2   6 C        3.810    -0.064    21.713     6.633
     3   6 C        2.942     0.092    25.963     8.357
     4   7 N        1.851    -0.224    26.736     7.663
     5   6 C        2.965     0.074    26.341     8.418
     6   6 C        2.917    -0.063    29.555     8.915
     7   6 C        2.777     0.157    24.591     8.122
     8   9 F        0.787    -0.196    11.190     3.951
     9   6 C        2.777     0.157    24.592     8.122
    10   9 F        0.787    -0.196    11.190     3.951
    11   6 C        2.917    -0.062    29.549     8.914
    12   6 C        2.965     0.074    26.343     8.419
    13   7 N        1.851    -0.226    26.775     7.669
    14   6 C        2.941     0.090    25.997     8.362
    15   6 C        3.810    -0.064    21.728     6.635
    16   6 C        3.753    -0.100    22.462     6.758
    17   1 H        0.925     0.054     2.273     2.358
    18   1 H        0.925     0.035     2.518     2.482
    19   1 H        0.925     0.043     2.409     2.427
    20   1 H        0.924     0.060     2.201     2.320
    21   1 H        0.925     0.044     2.391     2.418
    22   1 H        0.926     0.088     1.898     2.154
    23   1 H        0.926     0.088     1.894     2.152
    24   1 H        0.924     0.063     2.164     2.301
    25   1 H        0.924     0.044     2.398     2.422
    26   1 H        0.925     0.044     2.390     2.418
    27   1 H        0.925     0.041     2.433     2.439
    28   1 H        0.925     0.044     2.398     2.422

 Mol. C6AA /au·bohr⁶  :       9002.398572
 Mol. C8AA /au·bohr⁸  :     212337.835276
 Mol. α(0) /au        :        145.959766


Wiberg/Mayer (AO) data.
largest (>0.10) Wiberg bond orders for each atom

 ---------------------------------------------------------------------------
     #   Z sym  total        # sym  WBO       # sym  WBO       # sym  WBO
 ---------------------------------------------------------------------------
     1   6 C    3.992 --     2 C    0.997    18 H    0.986    17 H    0.986
                            19 H    0.986
     2   6 C    3.994 --     3 C    1.012     1 C    0.997    21 H    0.972
                            20 H    0.961
     3   6 C    3.965 --     4 N    1.529    14 C    1.215     2 C    1.012
     4   7 N    3.067 --     3 C    1.529     5 C    1.293
     5   6 C    3.984 --     4 N    1.293     6 C    1.265    12 C    1.224
     6   6 C    3.983 --     7 C    1.508     5 C    1.265    22 H    0.960
                            11 C    0.110
     7   6 C    3.892 --     6 C    1.508     9 C    1.239     8 F    0.980
     8   9 F    1.115 --     7 C    0.980
     9   6 C    3.892 --    11 C    1.507     7 C    1.239    10 F    0.980
    10   9 F    1.115 --     9 C    0.980
    11   6 C    3.981 --     9 C    1.507    12 C    1.266    23 H    0.960
                             6 C    0.110
    12   6 C    3.983 --    13 N    1.291    11 C    1.266     5 C    1.224
    13   7 N    3.066 --    14 C    1.530    12 C    1.291
    14   6 C    3.966 --    13 N    1.530     3 C    1.215    15 C    1.012
    15   6 C    3.994 --    14 C    1.012    16 C    0.996    24 H    0.972
                            25 H    0.964
    16   6 C    3.990 --    15 C    0.996    28 H    0.988    26 H    0.985
                            27 H    0.985
    17   1 H    0.997 --     1 C    0.986
    18   1 H    0.999 --     1 C    0.986
    19   1 H    0.997 --     1 C    0.986
    20   1 H    0.995 --     2 C    0.961
    21   1 H    0.998 --     2 C    0.972
    22   1 H    0.992 --     6 C    0.960
    23   1 H    0.992 --    11 C    0.960
    24   1 H    0.996 --    15 C    0.972
    25   1 H    0.996 --    15 C    0.964
    26   1 H    0.997 --    16 C    0.985
    27   1 H    0.998 --    16 C    0.985
    28   1 H    0.998 --    16 C    0.988
 ---------------------------------------------------------------------------

Topologies differ in bond orders
Writing corrected topology to xtbtopo.mol

molecular dipole:
                 x           y           z       tot (Debye)
 q only:       -1.669      -1.135       0.251
   full:       -1.683      -1.126       0.244       5.185
molecular quadrupole (traceless):
                xx          xy          yy          xz          yz          zz
 q only:      -11.023      -7.795       3.116      -1.220      -1.220       7.907
  q+dip:      -10.338      -8.015       2.683      -1.428      -0.607       7.655
   full:      -10.182      -9.924       4.972      -0.564      -2.395       5.209

           -------------------------------------------------
          |                Geometry Summary                 |
           -------------------------------------------------

      molecular mass/u    :      222.2343325
   center of mass at/Å    :        1.2233770       0.1711442       0.5492127
  moments of inertia/u·Å² :        0.4593024E+03   0.1677946E+04   0.2049729E+04
rotational constants/cm⁻¹ :        0.3670269E-01   0.1004659E-01   0.8224321E-02

 * 25 selected distances

     #   Z          #   Z                                           value/Å
     1   6 C        2   6 C                                       1.5301872 (max)
     3   6 C        4   7 N                                       1.3102077
     4   7 N        5   6 C                                       1.3453568
     5   6 C        6   6 C                                       1.4087649
     6   6 C        7   6 C                                       1.3651972
     7   6 C        9   6 C                                       1.4119229
     9   6 C       11   6 C                                       1.3652568
     5   6 C       12   6 C                                       1.4202733
    11   6 C       12   6 C                                       1.4085845
    12   6 C       13   7 N                                       1.3462587
     3   6 C       14   6 C                                       1.4285936
    13   7 N       14   6 C                                       1.3099001
    15   6 C       16   6 C                                       1.5299762
     1   6 C       17   1 H                                       1.0864896
     1   6 C       18   1 H                                       1.0882417
     1   6 C       19   1 H                                       1.0872227
     2   6 C       20   1 H                                       1.0919180
     2   6 C       21   1 H                                       1.0885733
     6   6 C       22   1 H                                       1.0775547
    11   6 C       23   1 H                                       1.0775363 (min)
    15   6 C       24   1 H                                       1.0906436
    15   6 C       25   1 H                                       1.0914444
    16   6 C       26   1 H                                       1.0871878
    16   6 C       27   1 H                                       1.0868139
    16   6 C       28   1 H                                       1.0872478

 * 3 distinct bonds (by element types)

   Z      Z             #   av. dist./Å        max./Å        min./Å
   1 H    6 C          12     1.0867395     1.0919180     1.0775363
   6 C    6 C           9     1.4298618     1.5301872     1.3651972
   6 C    7 N           4     1.3279308     1.3462587     1.3099001


optimized geometry written to: xtbopt.mol


           -------------------------------------------------
          | TOTAL ENERGY              -47.135960898648 Eh   |
          | GRADIENT NORM               0.000624310642 Eh/α |
          | HOMO-LUMO GAP               1.621868713846 eV   |
           -------------------------------------------------

------------------------------------------------------------------------
 * finished run on 2022/01/17 at 15:01:40.286     
------------------------------------------------------------------------
 total:
 * wall-time:     0 d,  0 h,  0 min,  0.290 sec
 *  cpu-time:     0 d,  0 h,  0 min,  0.289 sec
 * ratio c/w:     0.997 speedup
 SCF:
 * wall-time:     0 d,  0 h,  0 min,  0.038 sec
 *  cpu-time:     0 d,  0 h,  0 min,  0.037 sec
 * ratio c/w:     0.981 speedup
 ANC optimizer:
 * wall-time:     0 d,  0 h,  0 min,  0.239 sec
 *  cpu-time:     0 d,  0 h,  0 min,  0.239 sec
 * ratio c/w:     1.000 speedup

