      -----------------------------------------------------------      
     |                   =====================                   |     
     |                           x T B                           |     
     |                   =====================                   |     
     |                         S. Grimme                         |     
     |          Mulliken Center for Theoretical Chemistry        |     
     |                    University of Bonn                     |     
      -----------------------------------------------------------      

   * xtb version 6.4.1 (unknown) compiled by 'oda6@login1.crc.pitt.edu' on 2021-06-25

   xtb is free software: you can redistribute it and/or modify it under
   the terms of the GNU Lesser General Public License as published by
   the Free Software Foundation, either version 3 of the License, or
   (at your option) any later version.
   
   xtb is distributed in the hope that it will be useful,
   but WITHOUT ANY WARRANTY; without even the implied warranty of
   MERCHANTABILITY or FITNESS FOR A PARTICULAR PURPOSE.  See the
   GNU Lesser General Public License for more details.
   
   Cite this work as:
   * C. Bannwarth, E. Caldeweyher, S. Ehlert, A. Hansen, P. Pracht,
     J. Seibert, S. Spicher, S. Grimme, WIREs Comput. Mol. Sci., 2020, 11,
     e01493. DOI: 10.1002/wcms.1493
   
   for GFN2-xTB:
   * C. Bannwarth, S. Ehlert and S. Grimme., J. Chem. Theory Comput., 2019,
     15, 1652-1671. DOI: 10.1021/acs.jctc.8b01176
   for GFN1-xTB:
   * S. Grimme, C. Bannwarth, P. Shushkov, J. Chem. Theory Comput., 2017,
     13, 1989-2009. DOI: 10.1021/acs.jctc.7b00118
   for GFN0-xTB:
   * P. Pracht, E. Caldeweyher, S. Ehlert, S. Grimme, ChemRxiv, 2019, preprint.
     DOI: 10.26434/chemrxiv.8326202.v1
   for GFN-FF:
   * S. Spicher and S. Grimme, Angew. Chem. Int. Ed., 2020, 59, 15665-15673.
     DOI: 10.1002/anie.202004239
   
   for DFT-D4:
   * E. Caldeweyher, C. Bannwarth and S. Grimme, J. Chem. Phys., 2017,
     147, 034112. DOI: 10.1063/1.4993215
   * E. Caldeweyher, S. Ehlert, A. Hansen, H. Neugebauer, S. Spicher,
     C. Bannwarth and S. Grimme, J. Chem. Phys., 2019, 150, 154122.
     DOI: 10.1063/1.5090222
   * E. Caldeweyher, J.-M. Mewes, S. Ehlert and S. Grimme, Phys. Chem. Chem. Phys.
     2020, 22, 8499-8512. DOI: 10.1039/D0CP00502A
   
   for sTDA-xTB:
   * S. Grimme and C. Bannwarth, J. Chem. Phys., 2016, 145, 054103.
     DOI: 10.1063/1.4959605
   
   in the mass-spec context:
   * V. Asgeirsson, C. Bauer and S. Grimme, Chem. Sci., 2017, 8, 4879.
     DOI: 10.1039/c7sc00601b
   * J. Koopman and S. Grimme, ACS Omega 2019, 4, 12, 15120-15133.
     DOI: 10.1021/acsomega.9b02011
   
   for metadynamics refer to:
   * S. Grimme, J. Chem. Theory Comput., 2019, 155, 2847-2862
     DOI: 10.1021/acs.jctc.9b00143
   
   for SPH calculations refer to:
   * S. Spicher and S. Grimme, J. Chem. Theory Comput., 2021, 17, 1701-1714
     DOI: 10.1021/acs.jctc.0c01306
   
   with help from (in alphabetical order)
   P. Atkinson, C. Bannwarth, F. Bohle, G. Brandenburg, E. Caldeweyher
   M. Checinski, S. Dohm, S. Ehlert, S. Ehrlich, I. Gerasimov, J. Koopman
   C. Lavigne, S. Lehtola, F. März, M. Müller, F. Musil, H. Neugebauer
   J. Pisarek, C. Plett, P. Pracht, J. Seibert, P. Shushkov, S. Spicher
   M. Stahn, M. Steiner, T. Strunk, J. Stückrath, T. Rose, and J. Unsleber
   
 * started run on 2022/01/17 at 15:04:23.206     

           -------------------------------------------------
          |                Calculation Setup                |
           -------------------------------------------------

          program call               : /ihome/ghutchison/oda6/xtb/xtb-641/bin//xtb 380.mol -opt
          hostname                   : smp-n43
          coordinate file            : 380.mol
          omp threads                :                     1
          number of atoms            :                    48
          number of electrons        :                   128
          charge                     :                     0
          spin                       :                   0.0
          first test random number   :      0.16817125924609

   ID    Z sym.   atoms
    1    6 C      1-7, 9-14, 16-26
    2    7 N      8, 15
    3    1 H      27-48
########################################################################
[WARNING] Please study the warnings concerning your input carefully
-1- prog_main_parseArguments: the use of '-opt' is discouraged, please use '--opt' next time
########################################################################

           -------------------------------------------------
          |                 G F N 2 - x T B                 |
           -------------------------------------------------

        Reference                      10.1021/acs.jctc.8b01176
      * Hamiltonian:
        H0-scaling (s, p, d)           1.850000    2.230000    2.230000
        zeta-weighting                 0.500000
      * Dispersion:
        s8                             2.700000
        a1                             0.520000
        a2                             5.000000
        s9                             5.000000
      * Repulsion:
        kExp                           1.500000    1.000000
        rExp                           1.000000
      * Coulomb:
        alpha                          2.000000
        third order                    shell-resolved
        anisotropic                    true
        a3                             3.000000
        a5                             4.000000
        cn-shift                       1.200000
        cn-exp                         4.000000
        max-rad                        5.000000


          ...................................................
          :                      SETUP                      :
          :.................................................:
          :  # basis functions                 126          :
          :  # atomic orbitals                 126          :
          :  # shells                           74          :
          :  # electrons                       128          :
          :  max. iterations                   250          :
          :  Hamiltonian                  GFN2-xTB          :
          :  restarted?                      false          :
          :  GBSA solvation                  false          :
          :  PC potential                    false          :
          :  electronic temp.          300.0000000     K    :
          :  accuracy                    1.0000000          :
          :  -> integral cutoff          0.2500000E+02      :
          :  -> integral neglect         0.1000000E-07      :
          :  -> SCF convergence          0.1000000E-05 Eh   :
          :  -> wf. convergence          0.1000000E-03 e    :
          :  Broyden damping             0.4000000          :
          ...................................................

 iter      E             dE          RMSdq      gap      omega  full diag
   1    -69.5037171 -0.695037E+02  0.396E+00    1.77       0.0  T
   2    -69.5596504 -0.559333E-01  0.235E+00    1.54       1.0  T
   3    -69.5156612  0.439892E-01  0.119E+00    1.50       1.0  T
   4    -69.5677445 -0.520833E-01  0.405E-01    1.31       1.0  T
   5    -69.5770684 -0.932385E-02  0.117E-01    1.31       1.0  T
   6    -69.5777247 -0.656290E-03  0.461E-02    1.33       1.0  T
   7    -69.5777810 -0.563175E-04  0.223E-02    1.32       1.0  T
   8    -69.5777873 -0.628368E-05  0.962E-03    1.32       1.5  T
   9    -69.5777884 -0.112832E-05  0.166E-03    1.32       8.7  T
  10    -69.5777885 -0.102269E-06  0.636E-04    1.32      22.7  T
  11    -69.5777885 -0.603963E-08  0.343E-04    1.32      42.0  T

   *** convergence criteria satisfied after 11 iterations ***

         #    Occupation            Energy/Eh            Energy/eV
      -------------------------------------------------------------
         1        2.0000           -0.6620084             -18.0142
       ...           ...                  ...                  ...
        58        2.0000           -0.4039745             -10.9927
        59        2.0000           -0.4008183             -10.9068
        60        2.0000           -0.3993917             -10.8680
        61        2.0000           -0.3957810             -10.7697
        62        2.0000           -0.3885933             -10.5742
        63        2.0000           -0.3822307             -10.4010
        64        2.0000           -0.3428752              -9.3301 (HOMO)
        65                         -0.2942648              -8.0074 (LUMO)
        66                         -0.2529739              -6.8838
        67                         -0.2274908              -6.1903
        68                         -0.2248880              -6.1195
        69                         -0.2220766              -6.0430
       ...                                ...                  ...
       126                          0.6636391              18.0585
      -------------------------------------------------------------
                  HL-Gap            0.0486104 Eh            1.3228 eV
             Fermi-level           -0.3185700 Eh           -8.6687 eV

 SCC (total)                   0 d,  0 h,  0 min,  0.084 sec
 SCC setup                      ...        0 min,  0.001 sec (  0.612%)
 Dispersion                     ...        0 min,  0.001 sec (  1.024%)
 classical contributions        ...        0 min,  0.000 sec (  0.141%)
 integral evaluation            ...        0 min,  0.010 sec ( 12.134%)
 iterations                     ...        0 min,  0.040 sec ( 47.009%)
 molecular gradient             ...        0 min,  0.033 sec ( 38.544%)
 printout                       ...        0 min,  0.000 sec (  0.473%)

         :::::::::::::::::::::::::::::::::::::::::::::::::::::
         ::                     SUMMARY                     ::
         :::::::::::::::::::::::::::::::::::::::::::::::::::::
         :: total energy             -68.446094994440 Eh    ::
         :: gradient norm              0.114325123188 Eh/a0 ::
         :: HOMO-LUMO gap              1.322757112611 eV    ::
         ::.................................................::
         :: SCC energy               -69.577788525098 Eh    ::
         :: -> isotropic ES            0.020833292600 Eh    ::
         :: -> anisotropic ES          0.010330618691 Eh    ::
         :: -> anisotropic XC          0.054239484870 Eh    ::
         :: -> dispersion             -0.054673336437 Eh    ::
         :: repulsion energy           1.131348837198 Eh    ::
         :: add. restraining           0.000000000000 Eh    ::
         :: total charge              -0.000000000000 e     ::
         :::::::::::::::::::::::::::::::::::::::::::::::::::::

      ----------------------------------------------------------- 
     |                   =====================                   |
     |                        A N C O P T                        |
     |                   =====================                   |
     |               Approximate Normal Coordinate               |
     |                Rational Function Optimizer                |
      ----------------------------------------------------------- 

          ...................................................
          :                      SETUP                      :
          :.................................................:
          :   optimization level            normal          :
          :   max. optcycles                   200          :
          :   ANC micro-cycles                  20          :
          :   degrees of freedom               138          :
          :.................................................:
          :   RF solver                   davidson          :
          :   write xtbopt.log                true          :
          :   linear?                        false          :
          :   energy convergence         0.5000000E-05 Eh   :
          :   grad. convergence          0.1000000E-02 Eh/α :
          :   maximium RF displ.         1.0000000          :
          :   Hlow (freq-cutoff)         0.1000000E-01      :
          :   Hmax (freq-cutoff)         5.0000000          :
          :   S6 in model hess.         20.0000000          :
          ...................................................

generating ANC from model Hessian ...
Using Lindh-Hessian (1995)
 Shifting diagonal of input Hessian by   9.805572261743077E-003
 Lowest  eigenvalues of input Hessian
    0.000000    0.000000    0.000000    0.000000    0.000000    0.000000
    0.010000    0.010291    0.010315    0.010658    0.011056    0.011562
    0.012093    0.012476    0.012936    0.012952    0.015337    0.015927
 Highest eigenvalues
    1.900212    1.936399    1.959363    1.962147    2.049448    2.164954
 

........................................................................
.............................. CYCLE    1 ..............................
........................................................................
   1    -69.5777885 -0.695778E+02  0.734E-05    1.32       0.0  T
   2    -69.5777885 -0.359819E-10  0.448E-05    1.32     322.2  T
   3    -69.5777885 -0.829914E-11  0.308E-05    1.32     468.7  T
     SCC iter.                  ...        0 min,  0.012 sec
     gradient                   ...        0 min,  0.032 sec
 * total energy  :   -68.4460950 Eh     change       -0.2102780E-08 Eh
   gradient norm :     0.1143256 Eh/α   predicted     0.0000000E+00 (-100.00%)
   displ. norm   :     0.3204360 α      lambda       -0.1881855E-01
   maximum displ.:     0.1501282 α      in ANC's #23, #22, #73, ...

........................................................................
.............................. CYCLE    2 ..............................
........................................................................
   1    -69.6515274 -0.696515E+02  0.186E-01    1.45       0.0  T
   2    -69.6516727 -0.145291E-03  0.112E-01    1.46       1.0  T
   3    -69.6515605  0.112245E-03  0.536E-02    1.46       1.0  T
   4    -69.6516920 -0.131569E-03  0.200E-02    1.46       1.0  T
   5    -69.6517163 -0.242382E-04  0.510E-03    1.46       2.8  T
   6    -69.6517166 -0.340043E-06  0.270E-03    1.46       5.3  T
   7    -69.6517168 -0.138454E-06  0.795E-04    1.46      18.2  T
   8    -69.6517168 -0.133069E-07  0.273E-04    1.46      52.8  T
     SCC iter.                  ...        0 min,  0.029 sec
     gradient                   ...        0 min,  0.033 sec
 * total energy  :   -68.4588005 Eh     change       -0.1270548E-01 Eh
   gradient norm :     0.0440279 Eh/α   predicted    -0.1038206E-01 ( -18.29%)
   displ. norm   :     0.2766475 α      lambda       -0.4404990E-02
   maximum displ.:     0.1581366 α      in ANC's #23, #22, #13, ...

........................................................................
.............................. CYCLE    3 ..............................
........................................................................
   1    -69.6885760 -0.696886E+02  0.101E-01    1.54       0.0  T
   2    -69.6886215 -0.455320E-04  0.630E-02    1.55       1.0  T
   3    -69.6885770  0.445242E-04  0.344E-02    1.55       1.0  T
   4    -69.6886404 -0.634715E-04  0.994E-03    1.55       1.5  T
   5    -69.6886453 -0.485759E-05  0.278E-03    1.55       5.2  T
   6    -69.6886454 -0.133637E-06  0.143E-03    1.55      10.1  T
   7    -69.6886455 -0.447099E-07  0.413E-04    1.55      35.0  T
   8    -69.6886455 -0.238148E-08  0.144E-04    1.55     100.2  T
     SCC iter.                  ...        0 min,  0.029 sec
     gradient                   ...        0 min,  0.033 sec
 * total energy  :   -68.4612174 Eh     change       -0.2416941E-02 Eh
   gradient norm :     0.0091511 Eh/α   predicted    -0.2371860E-02 (  -1.87%)
   displ. norm   :     0.1377024 α      lambda       -0.4401187E-03
   maximum displ.:     0.0653626 α      in ANC's #22, #23, #6, ...

........................................................................
.............................. CYCLE    4 ..............................
........................................................................
   1    -69.6909915 -0.696910E+02  0.470E-02    1.57       0.0  T
   2    -69.6909925 -0.106666E-05  0.279E-02    1.57       1.0  T
   3    -69.6909868  0.569709E-05  0.926E-03    1.57       1.6  T
   4    -69.6909932 -0.641020E-05  0.144E-03    1.57      10.0  T
   5    -69.6909933 -0.795228E-07  0.614E-04    1.57      23.5  T
   6    -69.6909933 -0.365306E-08  0.288E-04    1.57      50.2  T
     SCC iter.                  ...        0 min,  0.022 sec
     gradient                   ...        0 min,  0.032 sec
 * total energy  :   -68.4615496 Eh     change       -0.3322233E-03 Eh
   gradient norm :     0.0061972 Eh/α   predicted    -0.2242423E-03 ( -32.50%)
   displ. norm   :     0.1928983 α      lambda       -0.3384982E-03
   maximum displ.:     0.1140344 α      in ANC's #6, #10, #13, ...

........................................................................
.............................. CYCLE    5 ..............................
........................................................................
   1    -69.6909346 -0.696909E+02  0.697E-02    1.58       0.0  T
   2    -69.6909363 -0.166853E-05  0.409E-02    1.58       1.0  T
   3    -69.6909341  0.216239E-05  0.735E-03    1.58       2.0  T
   4    -69.6909368 -0.267878E-05  0.159E-03    1.58       9.1  T
   5    -69.6909368 -0.350601E-07  0.847E-04    1.58      17.0  T
   6    -69.6909369 -0.217548E-07  0.379E-04    1.58      38.1  T
     SCC iter.                  ...        0 min,  0.022 sec
     gradient                   ...        0 min,  0.033 sec
 * total energy  :   -68.4617537 Eh     change       -0.2040170E-03 Eh
   gradient norm :     0.0021809 Eh/α   predicted    -0.1755571E-03 ( -13.95%)
   displ. norm   :     0.1142294 α      lambda       -0.8012642E-04
   maximum displ.:     0.0852673 α      in ANC's #6, #10, #2, ...

........................................................................
.............................. CYCLE    6 ..............................
........................................................................
   1    -69.6907793 -0.696908E+02  0.430E-02    1.58       0.0  T
   2    -69.6907796 -0.320738E-06  0.251E-02    1.58       1.0  T
   3    -69.6907794  0.242386E-06  0.291E-03    1.58       5.0  T
   4    -69.6907797 -0.365544E-06  0.821E-04    1.58      17.6  T
   5    -69.6907797 -0.124390E-08  0.385E-04    1.58      37.5  T
     SCC iter.                  ...        0 min,  0.019 sec
     gradient                   ...        0 min,  0.032 sec
 * total energy  :   -68.4618216 Eh     change       -0.6790641E-04 Eh
   gradient norm :     0.0022603 Eh/α   predicted    -0.4059382E-04 ( -40.22%)
   displ. norm   :     0.1630687 α      lambda       -0.1154889E-03
   maximum displ.:     0.1135446 α      in ANC's #6, #10, #2, ...

........................................................................
.............................. CYCLE    7 ..............................
........................................................................
   1    -69.6903600 -0.696904E+02  0.610E-02    1.58       0.0  T
   2    -69.6903605 -0.465997E-06  0.356E-02    1.58       1.0  T
   3    -69.6903593  0.118974E-05  0.482E-03    1.58       3.0  T
   4    -69.6903608 -0.145276E-05  0.112E-03    1.58      12.9  T
   5    -69.6903608 -0.934840E-08  0.574E-04    1.58      25.1  T
   6    -69.6903608 -0.122003E-07  0.109E-04    1.58     132.4  T
     SCC iter.                  ...        0 min,  0.022 sec
     gradient                   ...        0 min,  0.033 sec
 * total energy  :   -68.4619226 Eh     change       -0.1010683E-03 Eh
   gradient norm :     0.0025597 Eh/α   predicted    -0.5931365E-04 ( -41.31%)
   displ. norm   :     0.2308614 α      lambda       -0.1444380E-03
   maximum displ.:     0.1579383 α      in ANC's #6, #10, #2, ...

........................................................................
.............................. CYCLE    8 ..............................
........................................................................
   1    -69.6897653 -0.696898E+02  0.844E-02    1.57       0.0  T
   2    -69.6897660 -0.762093E-06  0.494E-02    1.57       1.0  T
   3    -69.6897643  0.173987E-05  0.594E-03    1.58       2.4  T
   4    -69.6897665 -0.216702E-05  0.141E-03    1.58      10.2  T
   5    -69.6897665 -0.125683E-07  0.747E-04    1.58      19.3  T
   6    -69.6897665 -0.231931E-07  0.125E-04    1.58     115.0  T
     SCC iter.                  ...        0 min,  0.022 sec
     gradient                   ...        0 min,  0.032 sec
 * total energy  :   -68.4620456 Eh     change       -0.1229425E-03 Eh
   gradient norm :     0.0027275 Eh/α   predicted    -0.7607088E-04 ( -38.12%)
   displ. norm   :     0.2872634 α      lambda       -0.1426276E-03
   maximum displ.:     0.1948048 α      in ANC's #6, #10, #2, ...

........................................................................
.............................. CYCLE    9 ..............................
........................................................................
   1    -69.6890528 -0.696891E+02  0.104E-01    1.57       0.0  T
   2    -69.6890539 -0.105210E-05  0.606E-02    1.57       1.0  T
   3    -69.6890523  0.151769E-05  0.628E-03    1.57       2.3  T
   4    -69.6890544 -0.205357E-05  0.155E-03    1.57       9.3  T
   5    -69.6890544  0.188916E-08  0.879E-04    1.57      16.4  T
   6    -69.6890544 -0.418907E-07  0.151E-04    1.57      95.5  T
     SCC iter.                  ...        0 min,  0.022 sec
     gradient                   ...        0 min,  0.032 sec
 * total energy  :   -68.4621600 Eh     change       -0.1144678E-03 Eh
   gradient norm :     0.0024434 Eh/α   predicted    -0.7720223E-04 ( -32.56%)
   displ. norm   :     0.2860064 α      lambda       -0.1006124E-03
   maximum displ.:     0.1938711 α      in ANC's #6, #10, #2, ...

........................................................................
.............................. CYCLE   10 ..............................
........................................................................
   1    -69.6888851 -0.696889E+02  0.102E-01    1.57       0.0  T
   2    -69.6888861 -0.974188E-06  0.599E-02    1.57       1.0  T
   3    -69.6888851  0.965123E-06  0.566E-03    1.57       2.6  T
   4    -69.6888865 -0.144244E-05  0.138E-03    1.57      10.5  T
   5    -69.6888865  0.120903E-07  0.754E-04    1.57      19.1  T
   6    -69.6888866 -0.347361E-07  0.160E-04    1.57      90.0  T
     SCC iter.                  ...        0 min,  0.022 sec
     gradient                   ...        0 min,  0.033 sec
 * total energy  :   -68.4622323 Eh     change       -0.7230349E-04 Eh
   gradient norm :     0.0020236 Eh/α   predicted    -0.5442210E-04 ( -24.73%)
   displ. norm   :     0.1758999 α      lambda       -0.4022777E-04
   maximum displ.:     0.1218436 α      in ANC's #6, #10, #7, ...

........................................................................
.............................. CYCLE   11 ..............................
........................................................................
   1    -69.6898344 -0.696898E+02  0.626E-02    1.57       0.0  T
   2    -69.6898347 -0.348130E-06  0.366E-02    1.57       1.0  T
   3    -69.6898345  0.201575E-06  0.301E-03    1.57       4.8  T
   4    -69.6898349 -0.362907E-06  0.760E-04    1.57      19.0  T
   5    -69.6898349  0.490800E-09  0.323E-04    1.57      44.7  T
     SCC iter.                  ...        0 min,  0.019 sec
     gradient                   ...        0 min,  0.032 sec
 * total energy  :   -68.4622602 Eh     change       -0.2787688E-04 Eh
   gradient norm :     0.0013453 Eh/α   predicted    -0.2073880E-04 ( -25.61%)
   displ. norm   :     0.1286437 α      lambda       -0.1476682E-04
   maximum displ.:     0.0937136 α      in ANC's #6, #10, #7, ...

........................................................................
.............................. CYCLE   12 ..............................
........................................................................
   1    -69.6912217 -0.696912E+02  0.459E-02    1.57       0.0  T
   2    -69.6912219 -0.191856E-06  0.269E-02    1.58       1.0  T
   3    -69.6912217  0.119512E-06  0.209E-03    1.58       6.9  T
   4    -69.6912219 -0.202531E-06  0.537E-04    1.58      26.9  T
   5    -69.6912220 -0.145462E-08  0.268E-04    1.58      53.9  T
     SCC iter.                  ...        0 min,  0.019 sec
     gradient                   ...        0 min,  0.032 sec
 * total energy  :   -68.4622728 Eh     change       -0.1260946E-04 Eh
   gradient norm :     0.0008149 Eh/α   predicted    -0.7438023E-05 ( -41.01%)
   displ. norm   :     0.0307276 α      lambda       -0.3904307E-05
   maximum displ.:     0.0237471 α      in ANC's #6, #7, #15, ...

........................................................................
.............................. CYCLE   13 ..............................
........................................................................
   1    -69.6909657 -0.696910E+02  0.111E-02    1.58       0.0  T
   2    -69.6909657 -0.164036E-07  0.648E-03    1.58       2.2  T
   3    -69.6909657  0.250540E-07  0.719E-04    1.58      20.1  T
   4    -69.6909657 -0.315240E-07  0.146E-04    1.58      98.7  T
     SCC iter.                  ...        0 min,  0.016 sec
     gradient                   ...        0 min,  0.032 sec
 * total energy  :   -68.4622777 Eh     change       -0.4831054E-05 Eh
   gradient norm :     0.0005590 Eh/α   predicted    -0.1954731E-05 ( -59.54%)
   displ. norm   :     0.0490438 α      lambda       -0.5580492E-05
   maximum displ.:     0.0272237 α      in ANC's #10, #6, #2, ...

   *** GEOMETRY OPTIMIZATION CONVERGED AFTER 13 ITERATIONS ***

------------------------------------------------------------------------
 total energy gain   :        -0.0161827 Eh      -10.1548 kcal/mol
 total RMSD          :         0.2650348 a0        0.1403 Å
 total power (kW/mol):        -3.2682763 (step)  -48.7661 (real)
------------------------------------------------------------------------

 ANCopt (total)                0 d,  0 h,  0 min,  0.871 sec
 optimizer setup                ...        0 min,  0.000 sec (  0.031%)
 model hessian                  ...        0 min,  0.014 sec (  1.587%)
 ANC generation                 ...        0 min,  0.002 sec (  0.264%)
 coordinate transformation      ...        0 min,  0.000 sec (  0.053%)
 single point calculation       ...        0 min,  0.848 sec ( 97.373%)
 optimization log               ...        0 min,  0.003 sec (  0.360%)
 hessian update                 ...        0 min,  0.000 sec (  0.046%)
 rational function              ...        0 min,  0.001 sec (  0.170%)

================
 final structure:
================

  xtb     01172215043D
 xtb: 6.4.1 (unknown)
 48 51  0     0  0            999 V2000
   -1.2785   -5.4343   -0.6085 C   0  0  0  0  0  0  0  0  0  0  0  0
   -0.5314   -4.7498   -1.7554 C   0  0  0  0  0  0  0  0  0  0  0  0
    0.0712   -3.4567   -1.2876 C   0  0  0  0  0  0  0  0  0  0  0  0
    1.3867   -3.4005   -0.8451 C   0  0  0  0  0  0  0  0  0  0  0  0
    1.9217   -2.2214   -0.3648 C   0  0  0  0  0  0  0  0  0  0  0  0
    1.1422   -1.0702   -0.2966 C   0  0  0  0  0  0  0  0  0  0  0  0
    1.7263    0.1679    0.2308 C   0  0  0  0  0  0  0  0  0  0  0  0
    2.9561    0.4423   -0.1304 N   0  0  0  0  0  0  0  0  0  0  0  0
    3.4949    1.6186    0.2451 C   0  0  0  0  0  0  0  0  0  0  0  0
    4.8164    1.9411   -0.1171 C   0  0  0  0  0  0  0  0  0  0  0  0
    5.3257    3.1685    0.2066 C   0  0  0  0  0  0  0  0  0  0  0  0
    4.5470    4.1128    0.8974 C   0  0  0  0  0  0  0  0  0  0  0  0
    3.2643    3.8235    1.2741 C   0  0  0  0  0  0  0  0  0  0  0  0
    2.7164    2.5637    0.9673 C   0  0  0  0  0  0  0  0  0  0  0  0
    1.4811    2.2385    1.3954 N   0  0  0  0  0  0  0  0  0  0  0  0
    0.9956    1.0611    1.0850 C   0  0  0  0  0  0  0  0  0  0  0  0
   -0.3028    0.7059    1.6682 C   0  0  0  0  0  0  0  0  0  0  0  0
   -1.3069    1.6670    1.7431 C   0  0  0  0  0  0  0  0  0  0  0  0
   -2.5407    1.3490    2.2757 C   0  0  0  0  0  0  0  0  0  0  0  0
   -2.7974    0.0744    2.7649 C   0  0  0  0  0  0  0  0  0  0  0  0
   -4.1551   -0.2917    3.2908 C   0  0  0  0  0  0  0  0  0  0  0  0
   -4.9924   -0.9485    2.1910 C   0  0  0  0  0  0  0  0  0  0  0  0
   -1.7799   -0.8723    2.7198 C   0  0  0  0  0  0  0  0  0  0  0  0
   -0.5472   -0.5669    2.1795 C   0  0  0  0  0  0  0  0  0  0  0  0
   -0.1703   -1.1153   -0.7616 C   0  0  0  0  0  0  0  0  0  0  0  0
   -0.6930   -2.2956   -1.2500 C   0  0  0  0  0  0  0  0  0  0  0  0
   -0.5973   -5.6469    0.2125 H   0  0  0  0  0  0  0  0  0  0  0  0
   -1.7196   -6.3696   -0.9453 H   0  0  0  0  0  0  0  0  0  0  0  0
   -2.0716   -4.7897   -0.2361 H   0  0  0  0  0  0  0  0  0  0  0  0
   -1.2285   -4.5589   -2.5741 H   0  0  0  0  0  0  0  0  0  0  0  0
    0.2532   -5.4146   -2.1218 H   0  0  0  0  0  0  0  0  0  0  0  0
    1.9991   -4.2904   -0.8807 H   0  0  0  0  0  0  0  0  0  0  0  0
    2.9457   -2.1777   -0.0264 H   0  0  0  0  0  0  0  0  0  0  0  0
    5.3940    1.2062   -0.6564 H   0  0  0  0  0  0  0  0  0  0  0  0
    6.3371    3.4254   -0.0727 H   0  0  0  0  0  0  0  0  0  0  0  0
    4.9764    5.0754    1.1339 H   0  0  0  0  0  0  0  0  0  0  0  0
    2.6537    4.5304    1.8144 H   0  0  0  0  0  0  0  0  0  0  0  0
   -1.1070    2.6593    1.3683 H   0  0  0  0  0  0  0  0  0  0  0  0
   -3.3159    2.1011    2.3161 H   0  0  0  0  0  0  0  0  0  0  0  0
   -4.6687    0.6025    3.6490 H   0  0  0  0  0  0  0  0  0  0  0  0
   -4.0534   -0.9864    4.1272 H   0  0  0  0  0  0  0  0  0  0  0  0
   -5.9754   -1.2186    2.5700 H   0  0  0  0  0  0  0  0  0  0  0  0
   -5.1182   -0.2659    1.3533 H   0  0  0  0  0  0  0  0  0  0  0  0
   -4.5002   -1.8480    1.8276 H   0  0  0  0  0  0  0  0  0  0  0  0
   -1.9567   -1.8621    3.1163 H   0  0  0  0  0  0  0  0  0  0  0  0
    0.2346   -1.3121    2.1681 H   0  0  0  0  0  0  0  0  0  0  0  0
   -0.7758   -0.2207   -0.7554 H   0  0  0  0  0  0  0  0  0  0  0  0
   -1.7115   -2.3174   -1.6110 H   0  0  0  0  0  0  0  0  0  0  0  0
  1  2  1  0  0  0  0
  2  3  1  0  0  0  0
  3  4  2  0  0  0  0
  4  5  1  0  0  0  0
  5  6  2  0  0  0  0
  6  7  1  0  0  0  0
  7  8  2  0  0  0  0
  8  9  1  0  0  0  0
  9 10  2  0  0  0  0
 10 11  1  0  0  0  0
 11 12  2  0  0  0  0
 12 13  1  0  0  0  0
 13 14  2  0  0  0  0
 14 15  1  0  0  0  0
 15 16  2  0  0  0  0
 16 17  1  0  0  0  0
 17 18  2  0  0  0  0
 18 19  1  0  0  0  0
 19 20  2  0  0  0  0
 20 21  1  0  0  0  0
 21 22  1  0  0  0  0
 20 23  1  0  0  0  0
 23 24  2  0  0  0  0
  6 25  1  0  0  0  0
 25 26  2  0  0  0  0
 26  3  1  0  0  0  0
 16  7  1  0  0  0  0
 24 17  1  0  0  0  0
 14  9  1  0  0  0  0
  1 27  1  0  0  0  0
  1 28  1  0  0  0  0
  1 29  1  0  0  0  0
  2 30  1  0  0  0  0
  2 31  1  0  0  0  0
  4 32  1  0  0  0  0
  5 33  1  0  0  0  0
 10 34  1  0  0  0  0
 11 35  1  0  0  0  0
 12 36  1  0  0  0  0
 13 37  1  0  0  0  0
 18 38  1  0  0  0  0
 19 39  1  0  0  0  0
 21 40  1  0  0  0  0
 21 41  1  0  0  0  0
 22 42  1  0  0  0  0
 22 43  1  0  0  0  0
 22 44  1  0  0  0  0
 23 45  1  0  0  0  0
 24 46  1  0  0  0  0
 25 47  1  0  0  0  0
 26 48  1  0  0  0  0
M  END
 
 Bond Distances (Angstroems)
 ---------------------------
C1-C2=1.5304         C1-H27=1.0878        C1-H28=1.0876        C1-H29=1.0878        C2-C1=1.5304         C2-C3=1.5013         
C2-H30=1.0921        C2-H31=1.0917        C3-C2=1.5013         C3-C4=1.3891         C3-C26=1.3905        C4-C3=1.3891         
C4-C5=1.3810         C4-H32=1.0809        C5-C4=1.3810         C5-C6=1.3920         C5-H33=1.0794        C6-C5=1.3920         
C6-C7=1.4671         C6-C25=1.3932        C7-C6=1.4671         C7-N8=1.3108         C7-C16=1.4358        N8-C7=1.3108         
N8-C9=1.3472         C9-N8=1.3472         C9-C10=1.4077        C9-C14=1.4215        C10-C9=1.4077        C10-C11=1.3678       
C10-H34=1.0791       C11-C10=1.3678       C11-C12=1.4054       C11-H35=1.0802       C12-C11=1.4054       C12-C13=1.3678       
C12-H36=1.0802       C13-C12=1.3678       C13-C14=1.4077       C13-H37=1.0791       C14-C9=1.4215        C14-C13=1.4077       
C14-N15=1.3472       N15-C14=1.3472       N15-C16=1.3108       C16-C7=1.4358        C16-N15=1.3108       C16-C17=1.4671       
C17-C16=1.4671       C17-C18=1.3920       C17-C24=1.3932       C18-C17=1.3920       C18-C19=1.3810       C18-H38=1.0794       
C19-C18=1.3810       C19-C20=1.3891       C19-H39=1.0809       C20-C19=1.3891       C20-C21=1.5013       C20-C23=1.3905       
C21-C20=1.5013       C21-C22=1.5304       C21-H40=1.0917       C21-H41=1.0921       C22-C21=1.5304       C22-H42=1.0876       
C22-H43=1.0878       C22-H44=1.0878       C23-C20=1.3905       C23-C24=1.3801       C23-H45=1.0808       C24-C17=1.3932       
C24-C23=1.3801       C24-H46=1.0802       C25-C6=1.3932        C25-C26=1.3801       C25-H47=1.0802       C26-C3=1.3905        
C26-C25=1.3801       C26-H48=1.0808       H27-C1=1.0878        H28-C1=1.0876        H29-C1=1.0878        H30-C2=1.0921        
H31-C2=1.0917        H32-C4=1.0809        H33-C5=1.0794        H34-C10=1.0791       H35-C11=1.0802       H36-C12=1.0802       
H37-C13=1.0791       H38-C18=1.0794       H39-C19=1.0809       H40-C21=1.0917       H41-C21=1.0921       H42-C22=1.0876       
H43-C22=1.0878       H44-C22=1.0878       H45-C23=1.0808       H46-C24=1.0802       H47-C25=1.0802       H48-C26=1.0808       
 C  H  Rav=1.0843 sigma=0.0049  Rmin=1.0791  Rmax=1.0921    22
 C  C  Rav=1.4185 sigma=0.0494  Rmin=1.3678  Rmax=1.5304    25
 N  C  Rav=1.3290 sigma=0.0182  Rmin=1.3108  Rmax=1.3472     4
 
 selected bond angles (degree)
 --------------------
H27-C1-C2=110.33               H28-C1-C2=110.52               H28-C1-H27=108.64              H29-C1-C2=110.33               
H29-C1-H27=108.30              H29-C1-H28=108.66              C3-C2-C1=110.34                H30-C2-C1=109.17               
H30-C2-C3=109.83               H31-C2-C1=109.27               H31-C2-C3=109.92               H31-C2-H30=108.27              
C4-C3-C2=120.94                C26-C3-C2=120.47               C26-C3-C4=118.56               C5-C4-C3=120.81                
H32-C4-C3=119.52               H32-C4-C5=119.66               C6-C5-C4=120.41                H33-C5-C4=120.74               
H33-C5-C6=118.85               C7-C6-C5=119.51                C25-C6-C5=118.98               C25-C6-C7=121.49               
N8-C7-C6=116.82                C16-C7-C6=122.43               C16-C7-N8=120.74               C9-N8-C7=118.76                
C10-C9-N8=120.25               C14-C9-N8=120.21               C14-C9-C10=119.51              C11-C10-C9=119.62              
H34-C10-C9=118.36              H34-C10-C11=122.01             
 
 selected dihedral angles (degree)
 ---------------------------------
C3-C2-C1-H27=299.95           C3-C2-C1-H28=179.77           C3-C2-C1-H29= 59.57           H30-C2-C1-H27=179.16          
H30-C2-C1-H28= 58.98          H30-C2-C1-H29=298.78          H31-C2-C1-H27= 60.91          H31-C2-C1-H28=300.74          
H31-C2-C1-H29=180.54          C4-C3-C2-C1= 94.48            C4-C3-C2-H30=214.88           C4-C3-C2-H31=333.91           
C26-C3-C2-C1=276.49           C26-C3-C2-H30= 36.89          C26-C3-C2-H31=155.92          C5-C4-C3-C2=182.63            
C5-C4-C3-C26=  0.66           H32-C4-C3-C2=  2.84           H32-C4-C3-C26=180.87          C6-C5-C4-C3=  1.01            
C6-C5-C4-H32=180.80           H33-C5-C4-C3=180.34           H33-C5-C4-H32=  0.13          C7-C6-C5-C4=179.33            
C7-C6-C5-H33=  0.00           C25-C6-C5-C4=357.86           C25-C6-C5-H33=178.51          N8-C7-C6-C5= 40.79            
N8-C7-C6-C25=222.29           C16-C7-C6-C5=219.78           C16-C7-C6-C25= 41.28          C9-N8-C7-C6=174.89            
C9-N8-C7-C16=355.88           C10-C9-N8-C7=179.52           C14-C9-N8-C7=357.18           C11-C10-C9-N8=176.38          
C11-C10-C9-C14=358.70         H34-C10-C9-N8=357.08          H34-C10-C9-C14=179.40         
           -------------------------------------------------
          |                Final Singlepoint                |
           -------------------------------------------------

          ...................................................
          :                      SETUP                      :
          :.................................................:
          :  # basis functions                 126          :
          :  # atomic orbitals                 126          :
          :  # shells                           74          :
          :  # electrons                       128          :
          :  max. iterations                   250          :
          :  Hamiltonian                  GFN2-xTB          :
          :  restarted?                      false          :
          :  GBSA solvation                  false          :
          :  PC potential                    false          :
          :  electronic temp.          300.0000000     K    :
          :  accuracy                    1.0000000          :
          :  -> integral cutoff          0.2500000E+02      :
          :  -> integral neglect         0.1000000E-07      :
          :  -> SCF convergence          0.1000000E-05 Eh   :
          :  -> wf. convergence          0.1000000E-03 e    :
          :  Broyden damping             0.4000000          :
          ...................................................

 iter      E             dE          RMSdq      gap      omega  full diag
   1    -69.6909657 -0.696910E+02  0.836E-05    1.58       0.0  T
   2    -69.6909657 -0.329408E-10  0.567E-05    1.58     254.6  T
   3    -69.6909657 -0.126761E-09  0.321E-05    1.58     450.2  T

   *** convergence criteria satisfied after 3 iterations ***

         #    Occupation            Energy/Eh            Energy/eV
      -------------------------------------------------------------
         1        2.0000           -0.6684020             -18.1881
       ...           ...                  ...                  ...
        58        2.0000           -0.4073439             -11.0844
        59        2.0000           -0.4062104             -11.0535
        60        2.0000           -0.4029004             -10.9635
        61        2.0000           -0.4010829             -10.9140
        62        2.0000           -0.3910602             -10.6413
        63        2.0000           -0.3799017             -10.3377
        64        2.0000           -0.3437695              -9.3544 (HOMO)
        65                         -0.2858370              -7.7780 (LUMO)
        66                         -0.2560696              -6.9680
        67                         -0.2243737              -6.1055
        68                         -0.2183868              -5.9426
        69                         -0.2172499              -5.9117
       ...                                ...                  ...
       126                          0.7020819              19.1046
      -------------------------------------------------------------
                  HL-Gap            0.0579324 Eh            1.5764 eV
             Fermi-level           -0.3148033 Eh           -8.5662 eV

 SCC (total)                   0 d,  0 h,  0 min,  0.056 sec
 SCC setup                      ...        0 min,  0.000 sec (  0.503%)
 Dispersion                     ...        0 min,  0.000 sec (  0.746%)
 classical contributions        ...        0 min,  0.000 sec (  0.175%)
 integral evaluation            ...        0 min,  0.010 sec ( 17.575%)
 iterations                     ...        0 min,  0.012 sec ( 21.844%)
 molecular gradient             ...        0 min,  0.033 sec ( 58.435%)
 printout                       ...        0 min,  0.000 sec (  0.639%)

         :::::::::::::::::::::::::::::::::::::::::::::::::::::
         ::                     SUMMARY                     ::
         :::::::::::::::::::::::::::::::::::::::::::::::::::::
         :: total energy             -68.462277664446 Eh    ::
         :: gradient norm              0.000558902753 Eh/a0 ::
         :: HOMO-LUMO gap              1.576421457637 eV    ::
         ::.................................................::
         :: SCC energy               -69.690965723907 Eh    ::
         :: -> isotropic ES            0.019788760258 Eh    ::
         :: -> anisotropic ES          0.009064527251 Eh    ::
         :: -> anisotropic XC          0.050144905312 Eh    ::
         :: -> dispersion             -0.055860371079 Eh    ::
         :: repulsion energy           1.228407150231 Eh    ::
         :: add. restraining           0.000000000000 Eh    ::
         :: total charge               0.000000000000 e     ::
         :::::::::::::::::::::::::::::::::::::::::::::::::::::

           -------------------------------------------------
          |                Property Printout                |
           -------------------------------------------------

    * Orbital Energies and Occupations

         #    Occupation            Energy/Eh            Energy/eV
      -------------------------------------------------------------
         1        2.0000           -0.6684020             -18.1881
       ...           ...                  ...                  ...
        52        2.0000           -0.4357331             -11.8569
        53        2.0000           -0.4240970             -11.5403
        54        2.0000           -0.4214679             -11.4687
        55        2.0000           -0.4196575             -11.4195
        56        2.0000           -0.4196014             -11.4179
        57        2.0000           -0.4119333             -11.2093
        58        2.0000           -0.4073439             -11.0844
        59        2.0000           -0.4062104             -11.0535
        60        2.0000           -0.4029004             -10.9635
        61        2.0000           -0.4010829             -10.9140
        62        2.0000           -0.3910602             -10.6413
        63        2.0000           -0.3799017             -10.3377
        64        2.0000           -0.3437695              -9.3544 (HOMO)
        65                         -0.2858370              -7.7780 (LUMO)
        66                         -0.2560696              -6.9680
        67                         -0.2243737              -6.1055
        68                         -0.2183868              -5.9426
        69                         -0.2172499              -5.9117
        70                         -0.2116400              -5.7590
        71                         -0.2017872              -5.4909
        72                         -0.1539138              -4.1882
        73                         -0.0918839              -2.5003
        74                         -0.0892224              -2.4279
        75                         -0.0624093              -1.6982
       ...                                ...                  ...
       126                          0.7020819              19.1046
      -------------------------------------------------------------
                  HL-Gap            0.0579324 Eh            1.5764 eV
             Fermi-level           -0.3148033 Eh           -8.5662 eV

     #   Z          covCN         q      C6AA      α(0)
     1   6 C        3.754    -0.097    22.413     6.751
     2   6 C        3.806    -0.058    21.612     6.618
     3   6 C        2.971     0.016    27.661     8.627
     4   6 C        2.924    -0.037    28.925     8.820
     5   6 C        2.924    -0.028    28.695     8.785
     6   6 C        2.982     0.003    27.941     8.671
     7   6 C        2.951     0.086    26.074     8.375
     8   7 N        1.851    -0.237    27.052     7.709
     9   6 C        2.964     0.079    26.238     8.402
    10   6 C        2.917    -0.040    28.986     8.829
    11   6 C        2.917    -0.029    28.713     8.787
    12   6 C        2.917    -0.029    28.713     8.787
    13   6 C        2.917    -0.040    28.986     8.829
    14   6 C        2.964     0.079    26.238     8.402
    15   7 N        1.851    -0.237    27.052     7.709
    16   6 C        2.951     0.086    26.074     8.375
    17   6 C        2.982     0.003    27.941     8.671
    18   6 C        2.924    -0.028    28.695     8.785
    19   6 C        2.924    -0.037    28.925     8.820
    20   6 C        2.971     0.016    27.661     8.627
    21   6 C        3.806    -0.058    21.612     6.618
    22   6 C        3.754    -0.097    22.413     6.751
    23   6 C        2.924    -0.037    28.919     8.819
    24   6 C        2.921    -0.031    28.769     8.796
    25   6 C        2.921    -0.031    28.769     8.796
    26   6 C        2.924    -0.037    28.919     8.819
    27   1 H        0.925     0.036     2.503     2.474
    28   1 H        0.925     0.037     2.493     2.469
    29   1 H        0.925     0.036     2.506     2.475
    30   1 H        0.924     0.037     2.483     2.464
    31   1 H        0.924     0.037     2.487     2.466
    32   1 H        0.926     0.033     2.540     2.492
    33   1 H        0.926     0.045     2.384     2.415
    34   1 H        0.926     0.050     2.317     2.380
    35   1 H        0.926     0.038     2.482     2.464
    36   1 H        0.926     0.038     2.482     2.464
    37   1 H        0.926     0.050     2.317     2.380
    38   1 H        0.926     0.045     2.384     2.415
    39   1 H        0.926     0.033     2.540     2.492
    40   1 H        0.924     0.037     2.487     2.466
    41   1 H        0.924     0.037     2.483     2.464
    42   1 H        0.925     0.037     2.493     2.469
    43   1 H        0.925     0.036     2.503     2.474
    44   1 H        0.925     0.036     2.506     2.475
    45   1 H        0.926     0.031     2.566     2.505
    46   1 H        0.926     0.028     2.608     2.526
    47   1 H        0.926     0.028     2.608     2.526
    48   1 H        0.926     0.031     2.566     2.505

 Mol. C6AA /au·bohr⁶  :      28797.734582
 Mol. C8AA /au·bohr⁸  :     705033.585567
 Mol. α(0) /au        :        270.235711


Wiberg/Mayer (AO) data.
largest (>0.10) Wiberg bond orders for each atom

 ---------------------------------------------------------------------------
     #   Z sym  total        # sym  WBO       # sym  WBO       # sym  WBO
 ---------------------------------------------------------------------------
     1   6 C    3.995 --     2 C    1.000    27 H    0.989    29 H    0.988
                            28 H    0.986
     2   6 C    3.997 --     3 C    1.014     1 C    1.000    31 H    0.975
                            30 H    0.973
     3   6 C    3.980 --     4 C    1.407    26 C    1.400     2 C    1.014
                             6 C    0.101
     4   6 C    3.990 --     5 C    1.455     3 C    1.407    32 H    0.968
                            25 C    0.105
     5   6 C    3.987 --     4 C    1.455     6 C    1.383    33 H    0.968
                            26 C    0.104
     6   6 C    3.987 --     5 C    1.383    25 C    1.377     7 C    1.046
                             3 C    0.101
     7   6 C    3.973 --     8 N    1.517    16 C    1.178     6 C    1.046
     8   7 N    3.070 --     7 C    1.517     9 C    1.287
     9   6 C    3.977 --     8 N    1.287    10 C    1.270    14 C    1.217
    10   6 C    3.985 --    11 C    1.554     9 C    1.270    34 H    0.967
                            13 C    0.116
    11   6 C    3.984 --    10 C    1.554    12 C    1.320    35 H    0.971
    12   6 C    3.984 --    13 C    1.554    11 C    1.320    36 H    0.971
    13   6 C    3.985 --    12 C    1.554    14 C    1.270    37 H    0.967
                            10 C    0.116
    14   6 C    3.977 --    15 N    1.287    13 C    1.270     9 C    1.217
    15   7 N    3.070 --    16 C    1.517    14 C    1.287
    16   6 C    3.973 --    15 N    1.517     7 C    1.178    17 C    1.046
    17   6 C    3.987 --    18 C    1.383    24 C    1.377    16 C    1.046
                            20 C    0.101
    18   6 C    3.987 --    19 C    1.455    17 C    1.383    38 H    0.968
                            23 C    0.104
    19   6 C    3.990 --    18 C    1.455    20 C    1.407    39 H    0.968
                            24 C    0.105
    20   6 C    3.980 --    19 C    1.407    23 C    1.400    21 C    1.014
                            17 C    0.101
    21   6 C    3.997 --    20 C    1.014    22 C    1.000    40 H    0.975
                            41 H    0.973
    22   6 C    3.995 --    21 C    1.000    43 H    0.989    44 H    0.988
                            42 H    0.986
    23   6 C    3.991 --    24 C    1.462    20 C    1.400    45 H    0.969
                            18 C    0.104
    24   6 C    3.987 --    23 C    1.462    17 C    1.377    46 H    0.968
                            19 C    0.105
    25   6 C    3.987 --    26 C    1.462     6 C    1.377    47 H    0.968
                             4 C    0.105
    26   6 C    3.991 --    25 C    1.462     3 C    1.400    48 H    0.969
                             5 C    0.104
    27   1 H    0.999 --     1 C    0.989
    28   1 H    0.998 --     1 C    0.986
    29   1 H    0.999 --     1 C    0.988
    30   1 H    0.998 --     2 C    0.973
    31   1 H    0.998 --     2 C    0.975
    32   1 H    0.998 --     4 C    0.968
    33   1 H    0.998 --     5 C    0.968
    34   1 H    0.997 --    10 C    0.967
    35   1 H    0.998 --    11 C    0.971
    36   1 H    0.998 --    12 C    0.971
    37   1 H    0.997 --    13 C    0.967
    38   1 H    0.998 --    18 C    0.968
    39   1 H    0.998 --    19 C    0.968
    40   1 H    0.998 --    21 C    0.975
    41   1 H    0.998 --    21 C    0.973
    42   1 H    0.998 --    22 C    0.986
    43   1 H    0.999 --    22 C    0.989
    44   1 H    0.999 --    22 C    0.988
    45   1 H    0.998 --    23 C    0.969
    46   1 H    0.999 --    24 C    0.968
    47   1 H    0.999 --    25 C    0.968
    48   1 H    0.998 --    26 C    0.969
 ---------------------------------------------------------------------------

Topologies differ in bond orders
Writing corrected topology to xtbtopo.mol

molecular dipole:
                 x           y           z       tot (Debye)
 q only:       -0.559      -0.474       0.017
   full:       -0.540      -0.457       0.016       1.797
molecular quadrupole (traceless):
                xx          xy          yy          xz          yz          zz
 q only:        3.250       4.333       3.645      -3.000       0.811      -6.895
  q+dip:        7.147       4.466       7.412      -2.849       0.303     -14.559
   full:        4.289       5.246       4.173      -1.002      -1.587      -8.462

           -------------------------------------------------
          |                Geometry Summary                 |
           -------------------------------------------------

      molecular mass/u    :      338.4457645
   center of mass at/Å    :        0.5079053      -0.1075368       0.6832077
  moments of inertia/u·Å² :        0.1889918E+04   0.3493231E+04   0.5162206E+04
rotational constants/cm⁻¹ :        0.8919771E-02   0.4825799E-02   0.3265587E-02

 * 47 selected distances

     #   Z          #   Z                                           value/Å
     1   6 C        2   6 C                                       1.5303761 (max)
     3   6 C        4   6 C                                       1.3891101
     4   6 C        5   6 C                                       1.3810016
     5   6 C        6   6 C                                       1.3919682
     7   6 C        8   7 N                                       1.3107880
     8   7 N        9   6 C                                       1.3471694
     9   6 C       10   6 C                                       1.4077192
    10   6 C       11   6 C                                       1.3677556
    11   6 C       12   6 C                                       1.4054293
    12   6 C       13   6 C                                       1.3677557
     9   6 C       14   6 C                                       1.4215259
    13   6 C       14   6 C                                       1.4077193
    14   6 C       15   7 N                                       1.3471701
     7   6 C       16   6 C                                       1.4357637
    15   7 N       16   6 C                                       1.3107875
    17   6 C       18   6 C                                       1.3919671
    18   6 C       19   6 C                                       1.3810027
    19   6 C       20   6 C                                       1.3891092
    21   6 C       22   6 C                                       1.5303759
    20   6 C       23   6 C                                       1.3905163
    17   6 C       24   6 C                                       1.3932006
    23   6 C       24   6 C                                       1.3801260
     6   6 C       25   6 C                                       1.3932004
     3   6 C       26   6 C                                       1.3905153
    25   6 C       26   6 C                                       1.3801269
     1   6 C       27   1 H                                       1.0878055
     1   6 C       28   1 H                                       1.0876167
     1   6 C       29   1 H                                       1.0877868
     2   6 C       30   1 H                                       1.0920631
     2   6 C       31   1 H                                       1.0916657
     4   6 C       32   1 H                                       1.0808634
     5   6 C       33   1 H                                       1.0793527
    10   6 C       34   1 H                                       1.0790916
    11   6 C       35   1 H                                       1.0802455
    12   6 C       36   1 H                                       1.0802455
    13   6 C       37   1 H                                       1.0790916 (min)
    18   6 C       38   1 H                                       1.0793530
    19   6 C       39   1 H                                       1.0808636
    21   6 C       40   1 H                                       1.0916655
    21   6 C       41   1 H                                       1.0920635
    22   6 C       42   1 H                                       1.0876167
    22   6 C       43   1 H                                       1.0878055
    22   6 C       44   1 H                                       1.0877868
    23   6 C       45   1 H                                       1.0808154
    24   6 C       46   1 H                                       1.0801993
    25   6 C       47   1 H                                       1.0801988
    26   6 C       48   1 H                                       1.0808153

 * 3 distinct bonds (by element types)

   Z      Z             #   av. dist./Å        max./Å        min./Å
   1 H    6 C          22     1.0843187     1.0920635     1.0790916
   6 C    6 C          21     1.4060126     1.5303761     1.3677556
   6 C    7 N           4     1.3289788     1.3471701     1.3107875


optimized geometry written to: xtbopt.mol


           -------------------------------------------------
          | TOTAL ENERGY              -68.462277664446 Eh   |
          | GRADIENT NORM               0.000558902753 Eh/α |
          | HOMO-LUMO GAP               1.576421457637 eV   |
           -------------------------------------------------

------------------------------------------------------------------------
 * finished run on 2022/01/17 at 15:04:24.240     
------------------------------------------------------------------------
 total:
 * wall-time:     0 d,  0 h,  0 min,  1.034 sec
 *  cpu-time:     0 d,  0 h,  0 min,  1.034 sec
 * ratio c/w:     1.000 speedup
 SCF:
 * wall-time:     0 d,  0 h,  0 min,  0.085 sec
 *  cpu-time:     0 d,  0 h,  0 min,  0.085 sec
 * ratio c/w:     1.000 speedup
 ANC optimizer:
 * wall-time:     0 d,  0 h,  0 min,  0.929 sec
 *  cpu-time:     0 d,  0 h,  0 min,  0.929 sec
 * ratio c/w:     1.000 speedup

