      -----------------------------------------------------------      
     |                   =====================                   |     
     |                           x T B                           |     
     |                   =====================                   |     
     |                         S. Grimme                         |     
     |          Mulliken Center for Theoretical Chemistry        |     
     |                    University of Bonn                     |     
      -----------------------------------------------------------      

   * xtb version 6.4.1 (unknown) compiled by 'oda6@login1.crc.pitt.edu' on 2021-06-25

   xtb is free software: you can redistribute it and/or modify it under
   the terms of the GNU Lesser General Public License as published by
   the Free Software Foundation, either version 3 of the License, or
   (at your option) any later version.
   
   xtb is distributed in the hope that it will be useful,
   but WITHOUT ANY WARRANTY; without even the implied warranty of
   MERCHANTABILITY or FITNESS FOR A PARTICULAR PURPOSE.  See the
   GNU Lesser General Public License for more details.
   
   Cite this work as:
   * C. Bannwarth, E. Caldeweyher, S. Ehlert, A. Hansen, P. Pracht,
     J. Seibert, S. Spicher, S. Grimme, WIREs Comput. Mol. Sci., 2020, 11,
     e01493. DOI: 10.1002/wcms.1493
   
   for GFN2-xTB:
   * C. Bannwarth, S. Ehlert and S. Grimme., J. Chem. Theory Comput., 2019,
     15, 1652-1671. DOI: 10.1021/acs.jctc.8b01176
   for GFN1-xTB:
   * S. Grimme, C. Bannwarth, P. Shushkov, J. Chem. Theory Comput., 2017,
     13, 1989-2009. DOI: 10.1021/acs.jctc.7b00118
   for GFN0-xTB:
   * P. Pracht, E. Caldeweyher, S. Ehlert, S. Grimme, ChemRxiv, 2019, preprint.
     DOI: 10.26434/chemrxiv.8326202.v1
   for GFN-FF:
   * S. Spicher and S. Grimme, Angew. Chem. Int. Ed., 2020, 59, 15665-15673.
     DOI: 10.1002/anie.202004239
   
   for DFT-D4:
   * E. Caldeweyher, C. Bannwarth and S. Grimme, J. Chem. Phys., 2017,
     147, 034112. DOI: 10.1063/1.4993215
   * E. Caldeweyher, S. Ehlert, A. Hansen, H. Neugebauer, S. Spicher,
     C. Bannwarth and S. Grimme, J. Chem. Phys., 2019, 150, 154122.
     DOI: 10.1063/1.5090222
   * E. Caldeweyher, J.-M. Mewes, S. Ehlert and S. Grimme, Phys. Chem. Chem. Phys.
     2020, 22, 8499-8512. DOI: 10.1039/D0CP00502A
   
   for sTDA-xTB:
   * S. Grimme and C. Bannwarth, J. Chem. Phys., 2016, 145, 054103.
     DOI: 10.1063/1.4959605
   
   in the mass-spec context:
   * V. Asgeirsson, C. Bauer and S. Grimme, Chem. Sci., 2017, 8, 4879.
     DOI: 10.1039/c7sc00601b
   * J. Koopman and S. Grimme, ACS Omega 2019, 4, 12, 15120-15133.
     DOI: 10.1021/acsomega.9b02011
   
   for metadynamics refer to:
   * S. Grimme, J. Chem. Theory Comput., 2019, 155, 2847-2862
     DOI: 10.1021/acs.jctc.9b00143
   
   for SPH calculations refer to:
   * S. Spicher and S. Grimme, J. Chem. Theory Comput., 2021, 17, 1701-1714
     DOI: 10.1021/acs.jctc.0c01306
   
   with help from (in alphabetical order)
   P. Atkinson, C. Bannwarth, F. Bohle, G. Brandenburg, E. Caldeweyher
   M. Checinski, S. Dohm, S. Ehlert, S. Ehrlich, I. Gerasimov, J. Koopman
   C. Lavigne, S. Lehtola, F. März, M. Müller, F. Musil, H. Neugebauer
   J. Pisarek, C. Plett, P. Pracht, J. Seibert, P. Shushkov, S. Spicher
   M. Stahn, M. Steiner, T. Strunk, J. Stückrath, T. Rose, and J. Unsleber
   
 * started run on 2022/03/07 at 13:27:10.904     

           -------------------------------------------------
          |                Calculation Setup                |
           -------------------------------------------------

          program call               : /ihome/ghutchison/oda6/xtb/xtb-641/bin/xtb ../../FF_optimized/100_600_111101.mol -opt
          hostname                   : smp-n44
          coordinate file            : ../../FF_optimized/100_600_111101.mol
          omp threads                :                     8
          number of atoms            :                   116
          number of electrons        :                   342
          charge                     :                     0
          spin                       :                   0.0
          first test random number   :      0.62795983039615

   ID    Z sym.   atoms
    1    6 C      1, 3-9, 11-17, 19-25, 27-40, 42, 43, 45-51, 53, 54, 56, 58,
                  59, 61, 63-68
    2   16 S      2, 10, 18, 26, 41, 52, 57, 60, 62
    3   34 Se     44, 55
    4    1 H      69-116

molecular fragmentation (1/2 indicates fragments):
111111111111111111111111111111111111111111111111111111111111111111111111
11111111111111111111112211111221111111111111
# atoms in fragment 1/2:   112     4
 fragment masses (1/2) :     1175.46        4.03
CMA distance (Bohr)    :  10.820
constraining FC (au)   :  0.0500
########################################################################
[WARNING] Please study the warnings concerning your input carefully
-1- prog_main_parseArguments: the use of '-opt' is discouraged, please use '--opt' next time
########################################################################

           -------------------------------------------------
          |                 G F N 2 - x T B                 |
           -------------------------------------------------

        Reference                      10.1021/acs.jctc.8b01176
      * Hamiltonian:
        H0-scaling (s, p, d)           1.850000    2.230000    2.230000
        zeta-weighting                 0.500000
      * Dispersion:
        s8                             2.700000
        a1                             0.520000
        a2                             5.000000
        s9                             5.000000
      * Repulsion:
        kExp                           1.500000    1.000000
        rExp                           1.000000
      * Coulomb:
        alpha                          2.000000
        third order                    shell-resolved
        anisotropic                    true
        a3                             3.000000
        a5                             4.000000
        cn-shift                       1.200000
        cn-exp                         4.000000
        max-rad                        5.000000


          ...................................................
          :                      SETUP                      :
          :.................................................:
          :  # basis functions                 386          :
          :  # atomic orbitals                 375          :
          :  # shells                          195          :
          :  # electrons                       342          :
          :  max. iterations                   250          :
          :  Hamiltonian                  GFN2-xTB          :
          :  restarted?                      false          :
          :  GBSA solvation                  false          :
          :  PC potential                    false          :
          :  electronic temp.          300.0000000     K    :
          :  accuracy                    1.0000000          :
          :  -> integral cutoff          0.2500000E+02      :
          :  -> integral neglect         0.1000000E-07      :
          :  -> SCF convergence          0.1000000E-05 Eh   :
          :  -> wf. convergence          0.1000000E-03 e    :
          :  Broyden damping             0.4000000          :
          ...................................................

 iter      E             dE          RMSdq      gap      omega  full diag
   1   -184.4318994 -0.184432E+03  0.398E+00    1.50       0.0  T
   2   -184.6209600 -0.189061E+00  0.219E+00    1.38       1.0  T
   3   -184.6015677  0.193923E-01  0.964E-01    1.39       1.0  T
   4   -184.6090971 -0.752944E-02  0.608E-01    1.41       1.0  T
   5   -184.6394921 -0.303950E-01  0.241E-01    1.40       1.0  T
   6   -184.6412026 -0.171053E-02  0.127E-01    1.41       1.0  T
   7   -184.6420428 -0.840147E-03  0.543E-02    1.40       1.0  T
   8   -184.6421216 -0.787994E-04  0.347E-02    1.41       1.0  T
   9   -184.6421537 -0.320622E-04  0.203E-02    1.41       1.0  T
  10   -184.6421656 -0.119725E-04  0.103E-02    1.41       1.0  T
  11   -184.6421677 -0.209186E-05  0.610E-03    1.41       1.5  T
  12   -184.6421696 -0.191320E-05  0.286E-03    1.41       3.2  T
  13   -184.6421698 -0.139504E-06  0.158E-03    1.41       5.9  T
  14   -184.6421699 -0.889232E-07  0.948E-04    1.41       9.8  T
  15   -184.6421699 -0.224007E-07  0.509E-04    1.41      18.2  T

   *** convergence criteria satisfied after 15 iterations ***

         #    Occupation            Energy/Eh            Energy/eV
      -------------------------------------------------------------
         1        2.0000           -0.7526730             -20.4813
       ...           ...                  ...                  ...
       165        2.0000           -0.3814253             -10.3791
       166        2.0000           -0.3803510             -10.3499
       167        2.0000           -0.3762190             -10.2374
       168        2.0000           -0.3648714              -9.9287
       169        2.0000           -0.3605086              -9.8099
       170        2.0000           -0.3542014              -9.6383
       171        2.0000           -0.3508762              -9.5478 (HOMO)
       172                         -0.2991939              -8.1415 (LUMO)
       173                         -0.2779825              -7.5643
       174                         -0.2697699              -7.3408
       175                         -0.2623153              -7.1380
       176                         -0.2484605              -6.7610
       ...                                ...                  ...
       375                          1.0670771              29.0366
      -------------------------------------------------------------
                  HL-Gap            0.0516822 Eh            1.4063 eV
             Fermi-level           -0.3250178 Eh           -8.8442 eV

 SCC (total)                   0 d,  0 h,  0 min,  0.303 sec
 SCC setup                      ...        0 min,  0.001 sec (  0.338%)
 Dispersion                     ...        0 min,  0.003 sec (  1.123%)
 classical contributions        ...        0 min,  0.000 sec (  0.046%)
 integral evaluation            ...        0 min,  0.014 sec (  4.748%)
 iterations                     ...        0 min,  0.242 sec ( 79.903%)
 molecular gradient             ...        0 min,  0.041 sec ( 13.435%)
 printout                       ...        0 min,  0.001 sec (  0.378%)

         :::::::::::::::::::::::::::::::::::::::::::::::::::::
         ::                     SUMMARY                     ::
         :::::::::::::::::::::::::::::::::::::::::::::::::::::
         :: total energy            -181.885866121136 Eh    ::
         :: gradient norm              0.508988875131 Eh/a0 ::
         :: HOMO-LUMO gap              1.406345059930 eV    ::
         ::.................................................::
         :: SCC energy              -184.642169885718 Eh    ::
         :: -> isotropic ES            0.011387784119 Eh    ::
         :: -> anisotropic ES          0.011726041664 Eh    ::
         :: -> anisotropic XC          0.076053296978 Eh    ::
         :: -> dispersion             -0.174586020158 Eh    ::
         :: repulsion energy           2.757967904392 Eh    ::
         :: add. restraining           0.000000000000 Eh    ::
         :: total charge               0.000000000000 e     ::
         :::::::::::::::::::::::::::::::::::::::::::::::::::::

      ----------------------------------------------------------- 
     |                   =====================                   |
     |                        A N C O P T                        |
     |                   =====================                   |
     |               Approximate Normal Coordinate               |
     |                Rational Function Optimizer                |
      ----------------------------------------------------------- 

          ...................................................
          :                      SETUP                      :
          :.................................................:
          :   optimization level            normal          :
          :   max. optcycles                   348          :
          :   ANC micro-cycles                  20          :
          :   degrees of freedom               342          :
          :.................................................:
          :   RF solver                   davidson          :
          :   write xtbopt.log                true          :
          :   linear?                        false          :
          :   energy convergence         0.5000000E-05 Eh   :
          :   grad. convergence          0.1000000E-02 Eh/α :
          :   maximium RF displ.         1.0000000          :
          :   Hlow (freq-cutoff)         0.1000000E-01      :
          :   Hmax (freq-cutoff)         5.0000000          :
          :   S6 in model hess.         20.0000000          :
          ...................................................

generating ANC from model Hessian ...
Using Lindh-Hessian (1995)
 Shifting diagonal of input Hessian by   9.989250080978996E-003
 Lowest  eigenvalues of input Hessian
    0.000000    0.000000    0.000000    0.000000    0.000000    0.000000
    0.010000    0.010012    0.010024    0.010049    0.010125    0.010149
    0.010172    0.010233    0.010291    0.010323    0.010437    0.010472
 Highest eigenvalues
    2.112988    2.155410    2.178023    2.191726    2.234114    2.359065
 

........................................................................
.............................. CYCLE    1 ..............................
........................................................................
   1   -184.6421699 -0.184642E+03  0.260E-04    1.41       0.0  T
   2   -184.6421699  0.700169E-09  0.208E-04    1.41      44.7  T
   3   -184.6421699 -0.341186E-08  0.136E-04    1.41      68.2  T
     SCC iter.                  ...        0 min,  0.051 sec
     gradient                   ...        0 min,  0.040 sec
 * total energy  :  -181.8858661 Eh     change       -0.1333822E-07 Eh
   gradient norm :     0.5089880 Eh/α   predicted     0.0000000E+00 (-100.00%)
   displ. norm   :     0.5263206 α      lambda       -0.2141881E+00
   maximum displ.:     0.1218583 α      in ANC's #308, #191, #194, ...

........................................................................
.............................. CYCLE    2 ..............................
........................................................................
   1   -184.6663499 -0.184666E+03  0.572E-01    1.39       0.0  T
   2   -184.6670536 -0.703661E-03  0.313E-01    1.40       1.0  T
   3   -184.6645292  0.252443E-02  0.168E-01    1.39       1.0  T
   4   -184.6673004 -0.277120E-02  0.639E-02    1.40       1.0  T
   5   -184.6674716 -0.171292E-03  0.332E-02    1.40       1.0  T
   6   -184.6675293 -0.576401E-04  0.152E-02    1.40       1.0  T
   7   -184.6675422 -0.129479E-04  0.743E-03    1.40       1.2  T
   8   -184.6675424 -0.202808E-06  0.513E-03    1.40       1.8  T
   9   -184.6675436 -0.116515E-05  0.196E-03    1.40       4.7  T
  10   -184.6675437 -0.131991E-06  0.956E-04    1.40       9.7  T
  11   -184.6675438 -0.172695E-07  0.674E-04    1.40      13.8  T
     SCC iter.                  ...        0 min,  0.175 sec
     gradient                   ...        0 min,  0.040 sec
 * total energy  :  -182.0462210 Eh     change       -0.1603549E+00 Eh
   gradient norm :     0.2493989 Eh/α   predicted    -0.1367861E+00 ( -14.70%)
   displ. norm   :     0.5230137 α      lambda       -0.9866232E-01
   maximum displ.:     0.0980912 α      in ANC's #134, #126, #308, ...

........................................................................
.............................. CYCLE    3 ..............................
........................................................................
   1   -184.6766802 -0.184677E+03  0.464E-01    1.41       0.0  T
   2   -184.6771012 -0.420965E-03  0.263E-01    1.42       1.0  T
   3   -184.6738067  0.329449E-02  0.189E-01    1.41       1.0  T
   4   -184.6777319 -0.392524E-02  0.516E-02    1.42       1.0  T
   5   -184.6778010 -0.691323E-04  0.283E-02    1.42       1.0  T
   6   -184.6778503 -0.492912E-04  0.122E-02    1.42       1.0  T
   7   -184.6778577 -0.733257E-05  0.667E-03    1.42       1.4  T
   8   -184.6778580 -0.367371E-06  0.453E-03    1.42       2.1  T
   9   -184.6778587 -0.688294E-06  0.235E-03    1.42       4.0  T
  10   -184.6778589 -0.167727E-06  0.121E-03    1.42       7.7  T
  11   -184.6778589 -0.435531E-07  0.830E-04    1.42      11.2  T
  12   -184.6778589 -0.213152E-07  0.454E-04    1.42      20.5  T
     SCC iter.                  ...        0 min,  0.193 sec
     gradient                   ...        0 min,  0.039 sec
 * total energy  :  -182.1119448 Eh     change       -0.6572379E-01 Eh
   gradient norm :     0.0809458 Eh/α   predicted    -0.6282538E-01 (  -4.41%)
   displ. norm   :     0.5720194 α      lambda       -0.2973990E-01
   maximum displ.:     0.1726535 α      in ANC's #30, #50, #47, ...

........................................................................
.............................. CYCLE    4 ..............................
........................................................................
   1   -184.6725785 -0.184673E+03  0.277E-01    1.44       0.0  T
   2   -184.6726128 -0.342784E-04  0.164E-01    1.44       1.0  T
   3   -184.6710408  0.157200E-02  0.128E-01    1.43       1.0  T
   4   -184.6728899 -0.184910E-02  0.264E-02    1.44       1.0  T
   5   -184.6728907 -0.771469E-06  0.148E-02    1.44       1.0  T
   6   -184.6729051 -0.144456E-04  0.653E-03    1.44       1.4  T
   7   -184.6729069 -0.180847E-05  0.414E-03    1.44       2.2  T
   8   -184.6729072 -0.226106E-06  0.253E-03    1.44       3.7  T
   9   -184.6729073 -0.153121E-06  0.144E-03    1.44       6.4  T
  10   -184.6729074 -0.744011E-07  0.710E-04    1.44      13.1  T
  11   -184.6729074 -0.150852E-07  0.466E-04    1.44      19.9  T
     SCC iter.                  ...        0 min,  0.182 sec
     gradient                   ...        0 min,  0.040 sec
 * total energy  :  -182.1333135 Eh     change       -0.2136865E-01 Eh
   gradient norm :     0.0316688 Eh/α   predicted    -0.1973549E-01 (  -7.64%)
   displ. norm   :     0.6338230 α      lambda       -0.1354364E-01
   maximum displ.:     0.2736570 α      in ANC's #30, #50, #47, ...

........................................................................
.............................. CYCLE    5 ..............................
........................................................................
   1   -184.6851340 -0.184685E+03  0.169E-01    1.46       0.0  T
   2   -184.6851491 -0.151362E-04  0.961E-02    1.46       1.0  T
   3   -184.6847151  0.434014E-03  0.676E-02    1.45       1.0  T
   4   -184.6852089 -0.493822E-03  0.139E-02    1.46       1.0  T
   5   -184.6852067  0.225465E-05  0.790E-03    1.46       1.2  T
   6   -184.6852122 -0.551407E-05  0.260E-03    1.46       3.6  T
   7   -184.6852125 -0.296840E-06  0.159E-03    1.46       5.9  T
   8   -184.6852125 -0.457051E-07  0.890E-04    1.46      10.4  T
   9   -184.6852125 -0.200377E-07  0.469E-04    1.46      19.8  T
     SCC iter.                  ...        0 min,  0.147 sec
     gradient                   ...        0 min,  0.040 sec
 * total energy  :  -182.1438265 Eh     change       -0.1051300E-01 Eh
   gradient norm :     0.0193606 Eh/α   predicted    -0.9492619E-02 (  -9.71%)
   displ. norm   :     0.6903177 α      lambda       -0.8841309E-02
   maximum displ.:     0.3399110 α      in ANC's #30, #27, #50, ...

........................................................................
.............................. CYCLE    6 ..............................
........................................................................
   1   -184.7100562 -0.184710E+03  0.123E-01    1.47       0.0  T
   2   -184.7100717 -0.154831E-04  0.672E-02    1.47       1.0  T
   3   -184.7099796  0.921046E-04  0.318E-02    1.46       1.0  T
   4   -184.7100850 -0.105472E-03  0.100E-02    1.47       1.0  T
   5   -184.7100849  0.140103E-06  0.630E-03    1.47       1.5  T
   6   -184.7100883 -0.338534E-05  0.174E-03    1.47       5.4  T
   7   -184.7100884 -0.880507E-07  0.120E-03    1.47       7.7  T
   8   -184.7100884 -0.256989E-07  0.677E-04    1.47      13.7  T
   9   -184.7100884 -0.138573E-07  0.333E-04    1.47      27.9  T
     SCC iter.                  ...        0 min,  0.143 sec
     gradient                   ...        0 min,  0.040 sec
 * total energy  :  -182.1510649 Eh     change       -0.7238383E-02 Eh
   gradient norm :     0.0202728 Eh/α   predicted    -0.6527270E-02 (  -9.82%)
   displ. norm   :     0.7230138 α      lambda       -0.6699283E-02
   maximum displ.:     0.3733158 α      in ANC's #30, #27, #25, ...

........................................................................
.............................. CYCLE    7 ..............................
........................................................................
   1   -184.7380910 -0.184738E+03  0.108E-01    1.47       0.0  T
   2   -184.7381095 -0.185118E-04  0.594E-02    1.47       1.0  T
   3   -184.7380456  0.639369E-04  0.270E-02    1.47       1.0  T
   4   -184.7381211 -0.754801E-04  0.882E-03    1.47       1.1  T
   5   -184.7381225 -0.145285E-05  0.488E-03    1.47       1.9  T
   6   -184.7381239 -0.136128E-05  0.219E-03    1.47       4.2  T
   7   -184.7381241 -0.233905E-06  0.125E-03    1.47       7.4  T
   8   -184.7381241 -0.281764E-08  0.806E-04    1.47      11.5  T
   9   -184.7381241 -0.240964E-07  0.381E-04    1.47      24.3  T
     SCC iter.                  ...        0 min,  0.146 sec
     gradient                   ...        0 min,  0.040 sec
 * total energy  :  -182.1566347 Eh     change       -0.5569822E-02 Eh
   gradient norm :     0.0176923 Eh/α   predicted    -0.5100664E-02 (  -8.42%)
   displ. norm   :     0.7339840 α      lambda       -0.5085995E-02
   maximum displ.:     0.3671679 α      in ANC's #30, #27, #25, ...

........................................................................
.............................. CYCLE    8 ..............................
........................................................................
   1   -184.7611559 -0.184761E+03  0.108E-01    1.47       0.0  T
   2   -184.7611776 -0.216778E-04  0.597E-02    1.47       1.0  T
   3   -184.7611175  0.601401E-04  0.267E-02    1.47       1.0  T
   4   -184.7611877 -0.702771E-04  0.921E-03    1.47       1.0  T
   5   -184.7611905 -0.272639E-05  0.476E-03    1.47       1.9  T
   6   -184.7611913 -0.880352E-06  0.261E-03    1.47       3.6  T
   7   -184.7611918 -0.404845E-06  0.123E-03    1.47       7.6  T
   8   -184.7611918  0.230412E-08  0.783E-04    1.47      11.9  T
   9   -184.7611918 -0.243477E-07  0.367E-04    1.47      25.3  T
     SCC iter.                  ...        0 min,  0.147 sec
     gradient                   ...        0 min,  0.040 sec
 * total energy  :  -182.1608646 Eh     change       -0.4229938E-02 Eh
   gradient norm :     0.0126444 Eh/α   predicted    -0.3912993E-02 (  -7.49%)
   displ. norm   :     0.7350660 α      lambda       -0.3796324E-02
   maximum displ.:     0.3260009 α      in ANC's #30, #27, #25, ...

........................................................................
.............................. CYCLE    9 ..............................
........................................................................
   1   -184.7759711 -0.184776E+03  0.112E-01    1.47       0.0  T
   2   -184.7759899 -0.188274E-04  0.616E-02    1.47       1.0  T
   3   -184.7759336  0.563471E-04  0.259E-02    1.47       1.0  T
   4   -184.7759974 -0.638323E-04  0.948E-03    1.47       1.0  T
   5   -184.7760004 -0.303245E-05  0.498E-03    1.47       1.9  T
   6   -184.7760013 -0.926444E-06  0.265E-03    1.47       3.5  T
   7   -184.7760018 -0.405190E-06  0.124E-03    1.47       7.5  T
   8   -184.7760018  0.314213E-08  0.749E-04    1.47      12.4  T
   9   -184.7760018 -0.227700E-07  0.372E-04    1.47      24.9  T
     SCC iter.                  ...        0 min,  0.146 sec
     gradient                   ...        0 min,  0.040 sec
 * total energy  :  -182.1640142 Eh     change       -0.3149581E-02 Eh
   gradient norm :     0.0106980 Eh/α   predicted    -0.2923789E-02 (  -7.17%)
   displ. norm   :     0.7228884 α      lambda       -0.2845918E-02
   maximum displ.:     0.2941802 α      in ANC's #27, #30, #15, ...

........................................................................
.............................. CYCLE   10 ..............................
........................................................................
   1   -184.7845489 -0.184785E+03  0.112E-01    1.48       0.0  T
   2   -184.7845616 -0.126381E-04  0.621E-02    1.48       1.0  T
   3   -184.7845092  0.523786E-04  0.254E-02    1.48       1.0  T
   4   -184.7845674 -0.581940E-04  0.940E-03    1.48       1.0  T
   5   -184.7845693 -0.193845E-05  0.519E-03    1.48       1.8  T
   6   -184.7845704 -0.111951E-05  0.256E-03    1.48       3.6  T
   7   -184.7845708 -0.339413E-06  0.130E-03    1.48       7.1  T
   8   -184.7845708  0.482586E-08  0.722E-04    1.48      12.9  T
   9   -184.7845708 -0.243723E-07  0.359E-04    1.48      25.8  T
     SCC iter.                  ...        0 min,  0.141 sec
     gradient                   ...        0 min,  0.040 sec
 * total energy  :  -182.1663603 Eh     change       -0.2346101E-02 Eh
   gradient norm :     0.0118746 Eh/α   predicted    -0.2166551E-02 (  -7.65%)
   displ. norm   :     0.6971123 α      lambda       -0.2203874E-02
   maximum displ.:     0.2710819 α      in ANC's #27, #15, #30, ...

........................................................................
.............................. CYCLE   11 ..............................
........................................................................
   1   -184.7901942 -0.184790E+03  0.103E-01    1.49       0.0  T
   2   -184.7902026 -0.841045E-05  0.577E-02    1.49       1.0  T
   3   -184.7901712  0.314497E-04  0.201E-02    1.49       1.0  T
   4   -184.7902066 -0.354624E-04  0.749E-03    1.49       1.2  T
   5   -184.7902073 -0.656228E-06  0.419E-03    1.49       2.2  T
   6   -184.7902083 -0.971275E-06  0.194E-03    1.49       4.8  T
   7   -184.7902084 -0.132763E-06  0.112E-03    1.49       8.3  T
   8   -184.7902084 -0.150590E-07  0.587E-04    1.49      15.8  T
   9   -184.7902084 -0.118891E-07  0.332E-04    1.49      28.0  T
     SCC iter.                  ...        0 min,  0.151 sec
     gradient                   ...        0 min,  0.040 sec
 * total energy  :  -182.1681551 Eh     change       -0.1794752E-02 Eh
   gradient norm :     0.0123319 Eh/α   predicted    -0.1637442E-02 (  -8.76%)
   displ. norm   :     0.6761428 α      lambda       -0.1824838E-02
   maximum displ.:     0.2659927 α      in ANC's #15, #27, #7, ...

........................................................................
.............................. CYCLE   12 ..............................
........................................................................
   1   -184.7943284 -0.184794E+03  0.103E-01    1.51       0.0  T
   2   -184.7943340 -0.561713E-05  0.571E-02    1.51       1.0  T
   3   -184.7942983  0.357517E-04  0.229E-02    1.51       1.0  T
   4   -184.7943385 -0.402732E-04  0.808E-03    1.51       1.1  T
   5   -184.7943383  0.282397E-06  0.425E-03    1.51       2.2  T
   6   -184.7943394 -0.113471E-05  0.207E-03    1.51       4.5  T
   7   -184.7943395 -0.116441E-06  0.118E-03    1.51       7.8  T
   8   -184.7943395 -0.242637E-07  0.565E-04    1.51      16.4  T
   9   -184.7943395 -0.944624E-08  0.325E-04    1.51      28.5  T
     SCC iter.                  ...        0 min,  0.148 sec
     gradient                   ...        0 min,  0.040 sec
 * total energy  :  -182.1695828 Eh     change       -0.1427713E-02 Eh
   gradient norm :     0.0115243 Eh/α   predicted    -0.1329551E-02 (  -6.88%)
   displ. norm   :     0.6535849 α      lambda       -0.1558418E-02
   maximum displ.:     0.2681829 α      in ANC's #15, #27, #7, ...

........................................................................
.............................. CYCLE   13 ..............................
........................................................................
   1   -184.7966148 -0.184797E+03  0.955E-02    1.52       0.0  T
   2   -184.7966236 -0.883664E-05  0.544E-02    1.52       1.0  T
   3   -184.7965892  0.344419E-04  0.189E-02    1.52       1.0  T
   4   -184.7966282 -0.389961E-04  0.626E-03    1.52       1.5  T
   5   -184.7966291 -0.929974E-06  0.320E-03    1.52       2.9  T
   6   -184.7966295 -0.455531E-06  0.194E-03    1.52       4.8  T
   7   -184.7966297 -0.135249E-06  0.100E-03    1.52       9.3  T
   8   -184.7966297 -0.904578E-08  0.710E-04    1.52      13.1  T
     SCC iter.                  ...        0 min,  0.131 sec
     gradient                   ...        0 min,  0.040 sec
 * total energy  :  -182.1707554 Eh     change       -0.1172668E-02 Eh
   gradient norm :     0.0097948 Eh/α   predicted    -0.1112070E-02 (  -5.17%)
   displ. norm   :     0.6073192 α      lambda       -0.1239847E-02
   maximum displ.:     0.2562855 α      in ANC's #15, #7, #27, ...

........................................................................
.............................. CYCLE   14 ..............................
........................................................................
   1   -184.7992509 -0.184799E+03  0.873E-02    1.53       0.0  T
   2   -184.7992566 -0.569777E-05  0.482E-02    1.53       1.0  T
   3   -184.7992340  0.226146E-04  0.179E-02    1.53       1.0  T
   4   -184.7992599 -0.259331E-04  0.666E-03    1.53       1.4  T
   5   -184.7992601 -0.139807E-06  0.402E-03    1.53       2.3  T
   6   -184.7992606 -0.540206E-06  0.198E-03    1.53       4.7  T
   7   -184.7992608 -0.203618E-06  0.107E-03    1.53       8.7  T
   8   -184.7992608 -0.343914E-08  0.589E-04    1.53      15.8  T
   9   -184.7992608 -0.165020E-07  0.283E-04    1.53      32.8  T
     SCC iter.                  ...        0 min,  0.149 sec
     gradient                   ...        0 min,  0.040 sec
 * total energy  :  -182.1717096 Eh     change       -0.9541619E-03 Eh
   gradient norm :     0.0096754 Eh/α   predicted    -0.8485760E-03 ( -11.07%)
   displ. norm   :     0.6081492 α      lambda       -0.1145241E-02
   maximum displ.:     0.2531964 α      in ANC's #15, #7, #5, ...

........................................................................
.............................. CYCLE   15 ..............................
........................................................................
   1   -184.7992580 -0.184799E+03  0.880E-02    1.54       0.0  T
   2   -184.7992644 -0.642195E-05  0.500E-02    1.54       1.0  T
   3   -184.7992358  0.285955E-04  0.178E-02    1.54       1.0  T
   4   -184.7992685 -0.326963E-04  0.571E-03    1.54       1.6  T
   5   -184.7992689 -0.435731E-06  0.314E-03    1.54       3.0  T
   6   -184.7992693 -0.395801E-06  0.136E-03    1.54       6.8  T
   7   -184.7992694 -0.692638E-07  0.805E-04    1.54      11.5  T
   8   -184.7992694 -0.885578E-08  0.394E-04    1.54      23.5  T
     SCC iter.                  ...        0 min,  0.131 sec
     gradient                   ...        0 min,  0.040 sec
 * total energy  :  -182.1725211 Eh     change       -0.8114790E-03 Eh
   gradient norm :     0.0109772 Eh/α   predicted    -0.7844075E-03 (  -3.34%)
   displ. norm   :     0.5629827 α      lambda       -0.1027249E-02
   maximum displ.:     0.2136991 α      in ANC's #15, #7, #5, ...

........................................................................
.............................. CYCLE   16 ..............................
........................................................................
   1   -184.8025026 -0.184803E+03  0.740E-02    1.54       0.0  T
   2   -184.8025071 -0.444435E-05  0.413E-02    1.54       1.0  T
   3   -184.8024802  0.269215E-04  0.162E-02    1.54       1.0  T
   4   -184.8025104 -0.302724E-04  0.485E-03    1.54       1.9  T
   5   -184.8025108 -0.323186E-06  0.244E-03    1.54       3.8  T
   6   -184.8025112 -0.434483E-06  0.117E-03    1.54       7.9  T
   7   -184.8025113 -0.802756E-07  0.525E-04    1.54      17.7  T
   8   -184.8025113 -0.436509E-08  0.348E-04    1.54      26.7  T
     SCC iter.                  ...        0 min,  0.127 sec
     gradient                   ...        0 min,  0.040 sec
 * total energy  :  -182.1732902 Eh     change       -0.7691488E-03 Eh
   gradient norm :     0.0105267 Eh/α   predicted    -0.6764241E-03 ( -12.06%)
   displ. norm   :     0.5835589 α      lambda       -0.8736023E-03
   maximum displ.:     0.2106609 α      in ANC's #7, #15, #5, ...

........................................................................
.............................. CYCLE   17 ..............................
........................................................................
   1   -184.7982922 -0.184798E+03  0.788E-02    1.54       0.0  T
   2   -184.7982957 -0.346747E-05  0.441E-02    1.54       1.0  T
   3   -184.7982842  0.115182E-04  0.127E-02    1.54       1.0  T
   4   -184.7982964 -0.122763E-04  0.601E-03    1.54       1.5  T
   5   -184.7982976 -0.111670E-05  0.279E-03    1.54       3.3  T
   6   -184.7982980 -0.418314E-06  0.140E-03    1.54       6.7  T
   7   -184.7982980 -0.353608E-07  0.949E-04    1.54       9.8  T
   8   -184.7982980 -0.250446E-07  0.380E-04    1.54      24.4  T
     SCC iter.                  ...        0 min,  0.137 sec
     gradient                   ...        0 min,  0.040 sec
 * total energy  :  -182.1739577 Eh     change       -0.6674941E-03 Eh
   gradient norm :     0.0119781 Eh/α   predicted    -0.5855517E-03 ( -12.28%)
   displ. norm   :     0.6227310 α      lambda       -0.1248302E-02
   maximum displ.:     0.2109695 α      in ANC's #5, #7, #6, ...

........................................................................
.............................. CYCLE   18 ..............................
........................................................................
   1   -184.8071937 -0.184807E+03  0.855E-02    1.54       0.0  T
   2   -184.8072050 -0.113297E-04  0.487E-02    1.54       1.0  T
   3   -184.8071607  0.443432E-04  0.225E-02    1.54       1.0  T
   4   -184.8072111 -0.504812E-04  0.801E-03    1.54       1.2  T
   5   -184.8072132 -0.201952E-05  0.448E-03    1.54       2.1  T
   6   -184.8072141 -0.976179E-06  0.210E-03    1.54       4.4  T
   7   -184.8072143 -0.182085E-06  0.115E-03    1.54       8.1  T
   8   -184.8072143 -0.610078E-08  0.669E-04    1.54      13.9  T
   9   -184.8072143 -0.131620E-07  0.270E-04    1.54      34.3  T
     SCC iter.                  ...        0 min,  0.145 sec
     gradient                   ...        0 min,  0.040 sec
 * total energy  :  -182.1746339 Eh     change       -0.6761438E-03 Eh
   gradient norm :     0.0138327 Eh/α   predicted    -0.8662013E-03 (  28.11%)
   displ. norm   :     0.5515075 α      lambda       -0.9022481E-03
   maximum displ.:     0.2041422 α      in ANC's #7, #5, #6, ...

........................................................................
.............................. CYCLE   19 ..............................
........................................................................
   1   -184.7991760 -0.184799E+03  0.700E-02    1.55       0.0  T
   2   -184.7991846 -0.864066E-05  0.390E-02    1.55       1.0  T
   3   -184.7991755  0.910723E-05  0.121E-02    1.55       1.0  T
   4   -184.7991850 -0.947356E-05  0.602E-03    1.55       1.5  T
   5   -184.7991868 -0.178253E-05  0.272E-03    1.55       3.4  T
   6   -184.7991869 -0.127225E-06  0.153E-03    1.55       6.1  T
   7   -184.7991871 -0.146653E-06  0.815E-04    1.55      11.4  T
   8   -184.7991871 -0.488097E-08  0.479E-04    1.55      19.4  T
     SCC iter.                  ...        0 min,  0.131 sec
     gradient                   ...        0 min,  0.040 sec
 * total energy  :  -182.1751568 Eh     change       -0.5229102E-03 Eh
   gradient norm :     0.0150361 Eh/α   predicted    -0.5883407E-03 (  12.51%)
   displ. norm   :     0.4037051 α      lambda       -0.1191582E-02
   maximum displ.:     0.1336160 α      in ANC's #7, #5, #6, ...

........................................................................
.............................. CYCLE   20 ..............................
........................................................................
   1   -184.7986536 -0.184799E+03  0.785E-02    1.55       0.0  T
   2   -184.7986675 -0.139293E-04  0.459E-02    1.55       1.0  T
   3   -184.7986263  0.412265E-04  0.226E-02    1.55       1.0  T
   4   -184.7986756 -0.493619E-04  0.751E-03    1.55       1.2  T
   5   -184.7986772 -0.150730E-05  0.431E-03    1.55       2.2  T
   6   -184.7986778 -0.639644E-06  0.236E-03    1.55       3.9  T
   7   -184.7986781 -0.275127E-06  0.125E-03    1.55       7.4  T
   8   -184.7986781 -0.150417E-07  0.789E-04    1.55      11.8  T
   9   -184.7986781 -0.208931E-07  0.292E-04    1.55      31.8  T
     SCC iter.                  ...        0 min,  0.141 sec
     gradient                   ...        0 min,  0.040 sec
 * total energy  :  -182.1754030 Eh     change       -0.2462106E-03 Eh
   gradient norm :     0.0181835 Eh/α   predicted    -0.6928925E-03 ( 181.42%)
   displ. norm   :     0.2619536 α      lambda       -0.1002043E-02
   maximum displ.:     0.0928943 α      in ANC's #7, #6, #5, ...
 * RMSD in coord.:     0.8021902 α      energy gain  -0.2895369E+00 Eh

generating ANC from model Hessian ...
Using Lindh-Hessian (1995)
 Shifting diagonal of input Hessian by   1.000126773529661E-002
 Lowest  eigenvalues of input Hessian
    0.010000    0.000000    0.000000    0.000000    0.000000    0.000000
    0.000000    0.010014    0.010030    0.010059    0.010100    0.010157
    0.010183    0.010237    0.010288    0.010352    0.010560    0.010594
 Highest eigenvalues
    1.985525    2.011516    2.021343    2.030446    2.034095    2.074288
 

........................................................................
.............................. CYCLE   21 ..............................
........................................................................
   1   -184.8015987 -0.184802E+03  0.473E-02    1.55       0.0  T
   2   -184.8016033 -0.453375E-05  0.278E-02    1.55       1.0  T
   3   -184.8015855  0.177379E-04  0.153E-02    1.55       1.0  T
   4   -184.8016069 -0.213908E-04  0.514E-03    1.55       1.8  T
   5   -184.8016070 -0.443958E-07  0.334E-03    1.55       2.8  T
   6   -184.8016076 -0.672198E-06  0.139E-03    1.55       6.7  T
   7   -184.8016077 -0.680211E-07  0.770E-04    1.55      12.1  T
   8   -184.8016077 -0.574354E-08  0.450E-04    1.55      20.6  T
     SCC iter.                  ...        0 min,  0.126 sec
     gradient                   ...        0 min,  0.040 sec
 * total energy  :  -182.1760417 Eh     change       -0.6387440E-03 Eh
   gradient norm :     0.0107916 Eh/α   predicted     0.0000000E+00 (-100.00%)
   displ. norm   :     0.1189956 α      lambda       -0.3985363E-03
   maximum displ.:     0.0418055 α      in ANC's #8, #39, #34, ...

........................................................................
.............................. CYCLE   22 ..............................
........................................................................
   1   -184.8060138 -0.184806E+03  0.266E-02    1.55       0.0  T
   2   -184.8060150 -0.123352E-05  0.152E-02    1.55       1.0  T
   3   -184.8060112  0.382652E-05  0.702E-03    1.55       1.3  T
   4   -184.8060156 -0.438001E-05  0.226E-03    1.55       4.1  T
   5   -184.8060157 -0.128386E-06  0.144E-03    1.55       6.5  T
   6   -184.8060158 -0.974966E-07  0.558E-04    1.55      16.6  T
   7   -184.8060158 -0.178090E-07  0.345E-04    1.55      26.9  T
     SCC iter.                  ...        0 min,  0.111 sec
     gradient                   ...        0 min,  0.040 sec
 * total energy  :  -182.1763516 Eh     change       -0.3098895E-03 Eh
   gradient norm :     0.0048252 Eh/α   predicted    -0.2021111E-03 ( -34.78%)
   displ. norm   :     0.2936662 α      lambda       -0.5334720E-03
   maximum displ.:     0.1104400 α      in ANC's #8, #39, #29, ...

........................................................................
.............................. CYCLE   23 ..............................
........................................................................
   1   -184.8099062 -0.184810E+03  0.407E-02    1.55       0.0  T
   2   -184.8099090 -0.279349E-05  0.233E-02    1.55       1.0  T
   3   -184.8098994  0.959509E-05  0.108E-02    1.55       1.0  T
   4   -184.8099105 -0.110370E-04  0.329E-03    1.55       2.8  T
   5   -184.8099109 -0.428773E-06  0.153E-03    1.55       6.1  T
   6   -184.8099109 -0.686703E-07  0.694E-04    1.55      13.4  T
   7   -184.8099110 -0.228683E-07  0.382E-04    1.55      24.3  T
     SCC iter.                  ...        0 min,  0.109 sec
     gradient                   ...        0 min,  0.040 sec
 * total energy  :  -182.1767296 Eh     change       -0.3780265E-03 Eh
   gradient norm :     0.0055990 Eh/α   predicted    -0.2897506E-03 ( -23.35%)
   displ. norm   :     0.3700135 α      lambda       -0.4323672E-03
   maximum displ.:     0.1408701 α      in ANC's #8, #29, #28, ...

........................................................................
.............................. CYCLE   24 ..............................
........................................................................
   1   -184.8091493 -0.184809E+03  0.441E-02    1.55       0.0  T
   2   -184.8091515 -0.222220E-05  0.253E-02    1.55       1.0  T
   3   -184.8091416  0.995743E-05  0.105E-02    1.55       1.0  T
   4   -184.8091527 -0.110978E-04  0.284E-03    1.55       3.3  T
   5   -184.8091530 -0.309206E-06  0.127E-03    1.55       7.3  T
   6   -184.8091530 -0.552463E-07  0.671E-04    1.55      13.8  T
   7   -184.8091531 -0.359170E-07  0.293E-04    1.55      31.7  T
     SCC iter.                  ...        0 min,  0.109 sec
     gradient                   ...        0 min,  0.040 sec
 * total energy  :  -182.1770429 Eh     change       -0.3132312E-03 Eh
   gradient norm :     0.0090381 Eh/α   predicted    -0.2457825E-03 ( -21.53%)
   displ. norm   :     0.4065789 α      lambda       -0.4111337E-03
   maximum displ.:     0.1684238 α      in ANC's #8, #7, #29, ...

........................................................................
.............................. CYCLE   25 ..............................
........................................................................
   1   -184.8063414 -0.184806E+03  0.456E-02    1.55       0.0  T
   2   -184.8063431 -0.168066E-05  0.258E-02    1.55       1.0  T
   3   -184.8063308  0.123141E-04  0.126E-02    1.55       1.0  T
   4   -184.8063447 -0.139169E-04  0.332E-03    1.55       2.8  T
   5   -184.8063446  0.674404E-07  0.194E-03    1.55       4.8  T
   6   -184.8063448 -0.232511E-06  0.702E-04    1.55      13.2  T
   7   -184.8063449 -0.345008E-07  0.389E-04    1.55      23.9  T
     SCC iter.                  ...        0 min,  0.109 sec
     gradient                   ...        0 min,  0.039 sec
 * total energy  :  -182.1773373 Eh     change       -0.2943935E-03 Eh
   gradient norm :     0.0101699 Eh/α   predicted    -0.2395829E-03 ( -18.62%)
   displ. norm   :     0.3409361 α      lambda       -0.4198263E-03
   maximum displ.:     0.1603383 α      in ANC's #8, #7, #15, ...

........................................................................
.............................. CYCLE   26 ..............................
........................................................................
   1   -184.8051577 -0.184805E+03  0.385E-02    1.55       0.0  T
   2   -184.8051593 -0.152926E-05  0.217E-02    1.55       1.0  T
   3   -184.8051537  0.553995E-05  0.835E-03    1.55       1.1  T
   4   -184.8051600 -0.625499E-05  0.287E-03    1.55       3.2  T
   5   -184.8051601 -0.800935E-07  0.179E-03    1.55       5.2  T
   6   -184.8051602 -0.187530E-06  0.605E-04    1.55      15.4  T
   7   -184.8051603 -0.157495E-07  0.426E-04    1.55      21.8  T
     SCC iter.                  ...        0 min,  0.109 sec
     gradient                   ...        0 min,  0.040 sec
 * total energy  :  -182.1776432 Eh     change       -0.3059348E-03 Eh
   gradient norm :     0.0066761 Eh/α   predicted    -0.2343336E-03 ( -23.40%)
   displ. norm   :     0.3752498 α      lambda       -0.3010759E-03
   maximum displ.:     0.1862839 α      in ANC's #8, #7, #15, ...

........................................................................
.............................. CYCLE   27 ..............................
........................................................................
   1   -184.8053275 -0.184805E+03  0.378E-02    1.55       0.0  T
   2   -184.8053289 -0.138338E-05  0.211E-02    1.55       1.0  T
   3   -184.8053233  0.564925E-05  0.829E-03    1.55       1.1  T
   4   -184.8053296 -0.629524E-05  0.297E-03    1.55       3.1  T
   5   -184.8053297 -0.160971E-06  0.165E-03    1.55       5.6  T
   6   -184.8053299 -0.179532E-06  0.556E-04    1.55      16.7  T
   7   -184.8053299 -0.175701E-07  0.331E-04    1.55      28.0  T
     SCC iter.                  ...        0 min,  0.115 sec
     gradient                   ...        0 min,  0.040 sec
 * total energy  :  -182.1778780 Eh     change       -0.2348219E-03 Eh
   gradient norm :     0.0056268 Eh/α   predicted    -0.1717413E-03 ( -26.86%)
   displ. norm   :     0.3872360 α      lambda       -0.2842954E-03
   maximum displ.:     0.2052894 α      in ANC's #8, #7, #2, ...

........................................................................
.............................. CYCLE   28 ..............................
........................................................................
   1   -184.8079881 -0.184808E+03  0.380E-02    1.55       0.0  T
   2   -184.8079903 -0.216411E-05  0.212E-02    1.55       1.0  T
   3   -184.8079837  0.653468E-05  0.890E-03    1.55       1.0  T
   4   -184.8079911 -0.733003E-05  0.314E-03    1.55       3.0  T
   5   -184.8079914 -0.352485E-06  0.150E-03    1.55       6.2  T
   6   -184.8079915 -0.115809E-06  0.653E-04    1.55      14.2  T
   7   -184.8079916 -0.344475E-07  0.253E-04    1.55      36.7  T
     SCC iter.                  ...        0 min,  0.113 sec
     gradient                   ...        0 min,  0.040 sec
 * total energy  :  -182.1780880 Eh     change       -0.2099932E-03 Eh
   gradient norm :     0.0047036 Eh/α   predicted    -0.1634793E-03 ( -22.15%)
   displ. norm   :     0.4791581 α      lambda       -0.2320549E-03
   maximum displ.:     0.2484367 α      in ANC's #8, #7, #2, ...

........................................................................
.............................. CYCLE   29 ..............................
........................................................................
   1   -184.8067646 -0.184807E+03  0.460E-02    1.55       0.0  T
   2   -184.8067671 -0.251507E-05  0.256E-02    1.55       1.0  T
   3   -184.8067641  0.299022E-05  0.675E-03    1.55       1.4  T
   4   -184.8067670 -0.288783E-05  0.372E-03    1.55       2.5  T
   5   -184.8067678 -0.754382E-06  0.143E-03    1.55       6.5  T
   6   -184.8067679 -0.101308E-06  0.655E-04    1.55      14.2  T
   7   -184.8067679 -0.329217E-07  0.251E-04    1.55      37.0  T
     SCC iter.                  ...        0 min,  0.111 sec
     gradient                   ...        0 min,  0.040 sec
 * total energy  :  -182.1782229 Eh     change       -0.1348454E-03 Eh
   gradient norm :     0.0062150 Eh/α   predicted    -0.1426672E-03 (   5.80%)
   displ. norm   :     0.2915968 α      lambda       -0.2241928E-03
   maximum displ.:     0.1638135 α      in ANC's #8, #7, #2, ...

........................................................................
.............................. CYCLE   30 ..............................
........................................................................
   1   -184.8114082 -0.184811E+03  0.316E-02    1.56       0.0  T
   2   -184.8114101 -0.189775E-05  0.174E-02    1.55       1.0  T
   3   -184.8114082  0.187543E-05  0.537E-03    1.56       1.7  T
   4   -184.8114101 -0.192883E-05  0.278E-03    1.56       3.3  T
   5   -184.8114105 -0.395275E-06  0.109E-03    1.56       8.5  T
   6   -184.8114106 -0.358772E-07  0.651E-04    1.56      14.3  T
   7   -184.8114106 -0.265627E-07  0.280E-04    1.56      33.2  T
     SCC iter.                  ...        0 min,  0.113 sec
     gradient                   ...        0 min,  0.040 sec
 * total energy  :  -182.1783634 Eh     change       -0.1405315E-03 Eh
   gradient norm :     0.0052567 Eh/α   predicted    -0.1216328E-03 ( -13.45%)
   displ. norm   :     0.2989496 α      lambda       -0.1247476E-03
   maximum displ.:     0.1663982 α      in ANC's #8, #7, #2, ...

........................................................................
.............................. CYCLE   31 ..............................
........................................................................
   1   -184.8114172 -0.184811E+03  0.279E-02    1.56       0.0  T
   2   -184.8114177 -0.558467E-06  0.153E-02    1.56       1.0  T
   3   -184.8114161  0.165186E-05  0.476E-03    1.56       1.9  T
   4   -184.8114178 -0.174991E-05  0.218E-03    1.56       4.3  T
   5   -184.8114180 -0.170588E-06  0.788E-04    1.56      11.8  T
   6   -184.8114181 -0.484673E-07  0.303E-04    1.56      30.6  T
     SCC iter.                  ...        0 min,  0.095 sec
     gradient                   ...        0 min,  0.040 sec
 * total energy  :  -182.1784736 Eh     change       -0.1101562E-03 Eh
   gradient norm :     0.0046252 Eh/α   predicted    -0.6795435E-04 ( -38.31%)
   displ. norm   :     0.4144315 α      lambda       -0.2104617E-03
   maximum displ.:     0.2262338 α      in ANC's #8, #7, #2, ...

........................................................................
.............................. CYCLE   32 ..............................
........................................................................
   1   -184.8108798 -0.184811E+03  0.401E-02    1.56       0.0  T
   2   -184.8108815 -0.167079E-05  0.218E-02    1.56       1.0  T
   3   -184.8108761  0.534858E-05  0.826E-03    1.56       1.1  T
   4   -184.8108820 -0.592193E-05  0.317E-03    1.56       2.9  T
   5   -184.8108824 -0.357743E-06  0.133E-03    1.56       7.0  T
   6   -184.8108825 -0.105485E-06  0.550E-04    1.56      16.9  T
   7   -184.8108825 -0.261250E-07  0.195E-04    1.56      47.6  T
     SCC iter.                  ...        0 min,  0.111 sec
     gradient                   ...        0 min,  0.040 sec
 * total energy  :  -182.1786440 Eh     change       -0.1704385E-03 Eh
   gradient norm :     0.0032728 Eh/α   predicted    -0.1233058E-03 ( -27.65%)
   displ. norm   :     0.4914526 α      lambda       -0.1873012E-03
   maximum displ.:     0.2657160 α      in ANC's #8, #7, #2, ...

........................................................................
.............................. CYCLE   33 ..............................
........................................................................
   1   -184.8090428 -0.184809E+03  0.465E-02    1.56       0.0  T
   2   -184.8090445 -0.169030E-05  0.251E-02    1.56       1.0  T
   3   -184.8090407  0.379854E-05  0.740E-03    1.56       1.3  T
   4   -184.8090446 -0.383367E-05  0.378E-03    1.56       2.5  T
   5   -184.8090452 -0.644714E-06  0.133E-03    1.56       7.0  T
   6   -184.8090453 -0.124240E-06  0.537E-04    1.56      17.3  T
   7   -184.8090453 -0.220846E-07  0.215E-04    1.56      43.1  T
     SCC iter.                  ...        0 min,  0.109 sec
     gradient                   ...        0 min,  0.040 sec
 * total energy  :  -182.1787959 Eh     change       -0.1518670E-03 Eh
   gradient norm :     0.0042984 Eh/α   predicted    -0.1162747E-03 ( -23.44%)
   displ. norm   :     0.4823997 α      lambda       -0.1638579E-03
   maximum displ.:     0.2564972 α      in ANC's #8, #7, #2, ...

........................................................................
.............................. CYCLE   34 ..............................
........................................................................
   1   -184.8086163 -0.184809E+03  0.447E-02    1.56       0.0  T
   2   -184.8086175 -0.125251E-05  0.241E-02    1.56       1.0  T
   3   -184.8086158  0.175066E-05  0.568E-03    1.56       1.6  T
   4   -184.8086171 -0.135849E-05  0.372E-03    1.56       2.5  T
   5   -184.8086180 -0.822790E-06  0.983E-04    1.56       9.4  T
   6   -184.8086180 -0.690651E-07  0.454E-04    1.56      20.5  T
     SCC iter.                  ...        0 min,  0.098 sec
     gradient                   ...        0 min,  0.040 sec
 * total energy  :  -182.1789342 Eh     change       -0.1383229E-03 Eh
   gradient norm :     0.0050051 Eh/α   predicted    -0.1009979E-03 ( -26.98%)
   displ. norm   :     0.5141123 α      lambda       -0.1769611E-03
   maximum displ.:     0.2700475 α      in ANC's #8, #7, #2, ...

........................................................................
.............................. CYCLE   35 ..............................
........................................................................
   1   -184.8084760 -0.184808E+03  0.469E-02    1.56       0.0  T
   2   -184.8084774 -0.140890E-05  0.254E-02    1.56       1.0  T
   3   -184.8084751  0.236489E-05  0.644E-03    1.56       1.4  T
   4   -184.8084774 -0.231521E-05  0.362E-03    1.56       2.6  T
   5   -184.8084780 -0.567173E-06  0.115E-03    1.56       8.1  T
   6   -184.8084781 -0.115701E-06  0.524E-04    1.56      17.7  T
   7   -184.8084781 -0.102654E-07  0.281E-04    1.56      33.0  T
     SCC iter.                  ...        0 min,  0.112 sec
     gradient                   ...        0 min,  0.040 sec
 * total energy  :  -182.1790834 Eh     change       -0.1491928E-03 Eh
   gradient norm :     0.0043355 Eh/α   predicted    -0.1118715E-03 ( -25.02%)
   displ. norm   :     0.5343934 α      lambda       -0.1803696E-03
   maximum displ.:     0.2761189 α      in ANC's #8, #2, #7, ...

........................................................................
.............................. CYCLE   36 ..............................
........................................................................
   1   -184.8099910 -0.184810E+03  0.479E-02    1.57       0.0  T
   2   -184.8099929 -0.184742E-05  0.260E-02    1.57       1.0  T
   3   -184.8099885  0.437071E-05  0.781E-03    1.57       1.2  T
   4   -184.8099934 -0.489597E-05  0.341E-03    1.57       2.7  T
   5   -184.8099938 -0.362197E-06  0.121E-03    1.57       7.7  T
   6   -184.8099939 -0.938799E-07  0.641E-04    1.57      14.5  T
   7   -184.8099939 -0.221313E-07  0.309E-04    1.57      30.0  T
     SCC iter.                  ...        0 min,  0.115 sec
     gradient                   ...        0 min,  0.040 sec
 * total energy  :  -182.1792284 Eh     change       -0.1449832E-03 Eh
   gradient norm :     0.0031158 Eh/α   predicted    -0.1159422E-03 ( -20.03%)
   displ. norm   :     0.5046344 α      lambda       -0.1423642E-03
   maximum displ.:     0.2606410 α      in ANC's #8, #2, #7, ...

........................................................................
.............................. CYCLE   37 ..............................
........................................................................
   1   -184.8110238 -0.184811E+03  0.440E-02    1.57       0.0  T
   2   -184.8110256 -0.184125E-05  0.238E-02    1.57       1.0  T
   3   -184.8110223  0.334310E-05  0.697E-03    1.57       1.3  T
   4   -184.8110260 -0.376367E-05  0.315E-03    1.57       2.9  T
   5   -184.8110264 -0.371046E-06  0.108E-03    1.57       8.6  T
   6   -184.8110265 -0.611986E-07  0.547E-04    1.57      17.0  T
   7   -184.8110265 -0.179411E-07  0.284E-04    1.57      32.8  T
     SCC iter.                  ...        0 min,  0.115 sec
     gradient                   ...        0 min,  0.042 sec
 * total energy  :  -182.1793414 Eh     change       -0.1129998E-03 Eh
   gradient norm :     0.0029669 Eh/α   predicted    -0.8931266E-04 ( -20.96%)
   displ. norm   :     0.4508717 α      lambda       -0.1140754E-03
   maximum displ.:     0.2303981 α      in ANC's #8, #2, #1, ...

........................................................................
.............................. CYCLE   38 ..............................
........................................................................
   1   -184.8130993 -0.184813E+03  0.383E-02    1.57       0.0  T
   2   -184.8131007 -0.134052E-05  0.207E-02    1.57       1.0  T
   3   -184.8130986  0.207259E-05  0.560E-03    1.57       1.7  T
   4   -184.8131008 -0.214980E-05  0.290E-03    1.57       3.2  T
   5   -184.8131011 -0.383890E-06  0.115E-03    1.57       8.1  T
   6   -184.8131012 -0.918973E-07  0.548E-04    1.57      16.9  T
   7   -184.8131013 -0.208314E-07  0.253E-04    1.57      36.7  T
     SCC iter.                  ...        0 min,  0.113 sec
     gradient                   ...        0 min,  0.040 sec
 * total energy  :  -182.1794336 Eh     change       -0.9225260E-04 Eh
   gradient norm :     0.0032363 Eh/α   predicted    -0.6863410E-04 ( -25.60%)
   displ. norm   :     0.4368362 α      lambda       -0.1063137E-03
   maximum displ.:     0.2250415 α      in ANC's #8, #2, #1, ...

........................................................................
.............................. CYCLE   39 ..............................
........................................................................
   1   -184.8140590 -0.184814E+03  0.365E-02    1.57       0.0  T
   2   -184.8140601 -0.109617E-05  0.195E-02    1.57       1.0  T
   3   -184.8140583  0.177837E-05  0.540E-03    1.57       1.7  T
   4   -184.8140600 -0.170626E-05  0.313E-03    1.57       3.0  T
   5   -184.8140605 -0.463196E-06  0.103E-03    1.57       9.0  T
   6   -184.8140605 -0.637836E-07  0.471E-04    1.57      19.7  T
   7   -184.8140606 -0.144777E-07  0.241E-04    1.57      38.5  T
     SCC iter.                  ...        0 min,  0.113 sec
     gradient                   ...        0 min,  0.040 sec
 * total energy  :  -182.1795219 Eh     change       -0.8824658E-04 Eh
   gradient norm :     0.0031880 Eh/α   predicted    -0.6330525E-04 ( -28.26%)
   displ. norm   :     0.4312257 α      lambda       -0.1101866E-03
   maximum displ.:     0.2187899 α      in ANC's #8, #2, #1, ...

........................................................................
.............................. CYCLE   40 ..............................
........................................................................
   1   -184.8153196 -0.184815E+03  0.366E-02    1.57       0.0  T
   2   -184.8153205 -0.855790E-06  0.200E-02    1.57       1.0  T
   3   -184.8153171  0.332594E-05  0.676E-03    1.57       1.4  T
   4   -184.8153206 -0.347179E-05  0.307E-03    1.57       3.0  T
   5   -184.8153210 -0.357834E-06  0.998E-04    1.57       9.3  T
   6   -184.8153210 -0.653996E-07  0.456E-04    1.57      20.4  T
     SCC iter.                  ...        0 min,  0.101 sec
     gradient                   ...        0 min,  0.040 sec
 * total energy  :  -182.1796119 Eh     change       -0.9001692E-04 Eh
   gradient norm :     0.0027815 Eh/α   predicted    -0.6534152E-04 ( -27.41%)
   displ. norm   :     0.4283375 α      lambda       -0.1053852E-03
   maximum displ.:     0.2181481 α      in ANC's #8, #2, #1, ...

........................................................................
.............................. CYCLE   41 ..............................
........................................................................
   1   -184.8147610 -0.184815E+03  0.363E-02    1.57       0.0  T
   2   -184.8147618 -0.822870E-06  0.199E-02    1.57       1.0  T
   3   -184.8147576  0.417310E-05  0.745E-03    1.57       1.2  T
   4   -184.8147621 -0.450019E-05  0.298E-03    1.57       3.1  T
   5   -184.8147624 -0.253173E-06  0.107E-03    1.57       8.7  T
   6   -184.8147625 -0.923191E-07  0.479E-04    1.57      19.4  T
   7   -184.8147625 -0.132626E-07  0.265E-04    1.57      35.0  T
     SCC iter.                  ...        0 min,  0.116 sec
     gradient                   ...        0 min,  0.040 sec
 * total energy  :  -182.1796964 Eh     change       -0.8451217E-04 Eh
   gradient norm :     0.0026193 Eh/α   predicted    -0.6236197E-04 ( -26.21%)
   displ. norm   :     0.3911188 α      lambda       -0.9388999E-04
   maximum displ.:     0.2065651 α      in ANC's #2, #8, #1, ...

........................................................................
.............................. CYCLE   42 ..............................
........................................................................
   1   -184.8144364 -0.184814E+03  0.335E-02    1.56       0.0  T
   2   -184.8144371 -0.669869E-06  0.185E-02    1.57       1.0  T
   3   -184.8144339  0.322439E-05  0.647E-03    1.56       1.4  T
   4   -184.8144374 -0.350432E-05  0.262E-03    1.56       3.5  T
   5   -184.8144375 -0.164035E-06  0.104E-03    1.56       9.0  T
   6   -184.8144376 -0.938385E-07  0.422E-04    1.56      22.0  T
   7   -184.8144376 -0.751359E-08  0.252E-04    1.56      36.8  T
     SCC iter.                  ...        0 min,  0.114 sec
     gradient                   ...        0 min,  0.040 sec
 * total energy  :  -182.1797713 Eh     change       -0.7488184E-04 Eh
   gradient norm :     0.0027590 Eh/α   predicted    -0.5413033E-04 ( -27.71%)
   displ. norm   :     0.3740614 α      lambda       -0.8803188E-04
   maximum displ.:     0.2028960 α      in ANC's #2, #8, #1, ...
 * RMSD in coord.:     0.7202418 α      energy gain  -0.4368282E-02 Eh

generating ANC from model Hessian ...
Using Lindh-Hessian (1995)
 Shifting diagonal of input Hessian by   9.994048575595861E-003
 Lowest  eigenvalues of input Hessian
    0.000000    0.000000    0.000000    0.000000    0.000000    0.000000
    0.010000    0.010012    0.010023    0.010054    0.010090    0.010156
    0.010177    0.010244    0.010281    0.010372    0.010557    0.010589
 Highest eigenvalues
    1.996692    2.020353    2.029290    2.034928    2.040772    2.079051
 

........................................................................
.............................. CYCLE   43 ..............................
........................................................................
   1   -184.8130933 -0.184813E+03  0.325E-02    1.56       0.0  T
   2   -184.8130940 -0.616410E-06  0.180E-02    1.56       1.0  T
   3   -184.8130918  0.220523E-05  0.547E-03    1.56       1.7  T
   4   -184.8130941 -0.234373E-05  0.247E-03    1.56       3.8  T
   5   -184.8130943 -0.158652E-06  0.104E-03    1.56       8.9  T
   6   -184.8130944 -0.955316E-07  0.361E-04    1.56      25.7  T
   7   -184.8130944 -0.403827E-08  0.229E-04    1.56      40.5  T
     SCC iter.                  ...        0 min,  0.110 sec
     gradient                   ...        0 min,  0.040 sec
 * total energy  :  -182.1798411 Eh     change       -0.6982726E-04 Eh
   gradient norm :     0.0026958 Eh/α   predicted     0.0000000E+00 (-100.00%)
   displ. norm   :     0.0405158 α      lambda       -0.2876306E-04
   maximum displ.:     0.0205080 α      in ANC's #26, #2, #1, ...

........................................................................
.............................. CYCLE   44 ..............................
........................................................................
   1   -184.8135096 -0.184814E+03  0.765E-03    1.56       0.0  T
   2   -184.8135097 -0.582457E-07  0.437E-03    1.56       2.1  T
   3   -184.8135092  0.509247E-06  0.257E-03    1.56       3.6  T
   4   -184.8135097 -0.587451E-06  0.558E-04    1.56      16.6  T
   5   -184.8135097  0.292135E-08  0.350E-04    1.56      26.6  T
     SCC iter.                  ...        0 min,  0.080 sec
     gradient                   ...        0 min,  0.040 sec
 * total energy  :  -182.1798670 Eh     change       -0.2587917E-04 Eh
   gradient norm :     0.0015026 Eh/α   predicted    -0.1509617E-04 ( -41.67%)
   displ. norm   :     0.2500320 α      lambda       -0.8704759E-04
   maximum displ.:     0.1263677 α      in ANC's #26, #2, #1, ...

........................................................................
.............................. CYCLE   45 ..............................
........................................................................
   1   -184.8138849 -0.184814E+03  0.439E-02    1.57       0.0  T
   2   -184.8138864 -0.146835E-05  0.237E-02    1.57       1.0  T
   3   -184.8138756  0.107923E-04  0.118E-02    1.57       1.0  T
   4   -184.8138880 -0.124639E-04  0.317E-03    1.57       2.9  T
   5   -184.8138880  0.591945E-08  0.161E-03    1.57       5.8  T
   6   -184.8138882 -0.197924E-06  0.661E-04    1.57      14.0  T
   7   -184.8138883 -0.278780E-07  0.334E-04    1.57      27.8  T
     SCC iter.                  ...        0 min,  0.110 sec
     gradient                   ...        0 min,  0.040 sec
 * total energy  :  -182.1799234 Eh     change       -0.5642829E-04 Eh
   gradient norm :     0.0039281 Eh/α   predicted    -0.4473899E-04 ( -20.72%)
   displ. norm   :     0.0463132 α      lambda       -0.2668605E-04
   maximum displ.:     0.0201176 α      in ANC's #2, #1, #26, ...

........................................................................
.............................. CYCLE   46 ..............................
........................................................................
   1   -184.8134904 -0.184813E+03  0.774E-03    1.57       0.0  T
   2   -184.8134905 -0.485726E-07  0.437E-03    1.57       2.1  T
   3   -184.8134902  0.302843E-06  0.188E-03    1.57       4.9  T
   4   -184.8134905 -0.340750E-06  0.566E-04    1.57      16.4  T
   5   -184.8134905 -0.200373E-08  0.316E-04    1.57      29.4  T
     SCC iter.                  ...        0 min,  0.081 sec
     gradient                   ...        0 min,  0.040 sec
 * total energy  :  -182.1799449 Eh     change       -0.2151306E-04 Eh
   gradient norm :     0.0029508 Eh/α   predicted    -0.1337506E-04 ( -37.83%)
   displ. norm   :     0.1382400 α      lambda       -0.6010472E-04
   maximum displ.:     0.0625559 α      in ANC's #2, #1, #26, ...

........................................................................
.............................. CYCLE   47 ..............................
........................................................................
   1   -184.8126862 -0.184813E+03  0.193E-02    1.57       0.0  T
   2   -184.8126865 -0.301947E-06  0.109E-02    1.57       1.0  T
   3   -184.8126834  0.309415E-05  0.607E-03    1.57       1.5  T
   4   -184.8126870 -0.356556E-05  0.140E-03    1.57       6.6  T
   5   -184.8126869  0.232974E-07  0.920E-04    1.57      10.1  T
   6   -184.8126870 -0.632485E-07  0.306E-04    1.57      30.4  T
     SCC iter.                  ...        0 min,  0.096 sec
     gradient                   ...        0 min,  0.040 sec
 * total energy  :  -182.1799853 Eh     change       -0.4041397E-04 Eh
   gradient norm :     0.0013000 Eh/α   predicted    -0.3062758E-04 ( -24.22%)
   displ. norm   :     0.2169050 α      lambda       -0.3009044E-04
   maximum displ.:     0.1016263 α      in ANC's #2, #1, #7, ...

........................................................................
.............................. CYCLE   48 ..............................
........................................................................
   1   -184.8122183 -0.184812E+03  0.270E-02    1.57       0.0  T
   2   -184.8122188 -0.476342E-06  0.145E-02    1.57       1.0  T
   3   -184.8122168  0.195383E-05  0.510E-03    1.57       1.8  T
   4   -184.8122190 -0.219026E-05  0.208E-03    1.57       4.5  T
   5   -184.8122191 -0.419834E-07  0.100E-03    1.57       9.3  T
   6   -184.8122191 -0.846136E-07  0.377E-04    1.57      24.6  T
   7   -184.8122191 -0.421613E-08  0.237E-04    1.57      39.1  T
     SCC iter.                  ...        0 min,  0.110 sec
     gradient                   ...        0 min,  0.040 sec
 * total energy  :  -182.1800173 Eh     change       -0.3194178E-04 Eh
   gradient norm :     0.0024591 Eh/α   predicted    -0.1535993E-04 ( -51.91%)
   displ. norm   :     0.1476160 α      lambda       -0.3175966E-04
   maximum displ.:     0.0724159 α      in ANC's #2, #1, #16, ...

........................................................................
.............................. CYCLE   49 ..............................
........................................................................
   1   -184.8125254 -0.184813E+03  0.157E-02    1.57       0.0  T
   2   -184.8125256 -0.174767E-06  0.828E-03    1.57       1.1  T
   3   -184.8125253  0.235192E-06  0.218E-03    1.57       4.3  T
   4   -184.8125255 -0.221509E-06  0.132E-03    1.57       7.1  T
   5   -184.8125256 -0.704705E-07  0.436E-04    1.57      21.3  T
   6   -184.8125256 -0.151238E-07  0.181E-04    1.57      51.3  T
     SCC iter.                  ...        0 min,  0.095 sec
     gradient                   ...        0 min,  0.040 sec
 * total energy  :  -182.1800453 Eh     change       -0.2800383E-04 Eh
   gradient norm :     0.0022047 Eh/α   predicted    -0.1622793E-04 ( -42.05%)
   displ. norm   :     0.2934338 α      lambda       -0.6645958E-04
   maximum displ.:     0.1453847 α      in ANC's #2, #1, #7, ...

........................................................................
.............................. CYCLE   50 ..............................
........................................................................
   1   -184.8133550 -0.184813E+03  0.289E-02    1.57       0.0  T
   2   -184.8133557 -0.652815E-06  0.152E-02    1.57       1.0  T
   3   -184.8133553  0.350009E-06  0.340E-03    1.57       2.7  T
   4   -184.8133555 -0.166663E-06  0.243E-03    1.57       3.8  T
   5   -184.8133558 -0.349077E-06  0.679E-04    1.57      13.7  T
   6   -184.8133559 -0.392880E-07  0.296E-04    1.57      31.4  T
     SCC iter.                  ...        0 min,  0.095 sec
     gradient                   ...        0 min,  0.040 sec
 * total energy  :  -182.1800985 Eh     change       -0.5320392E-04 Eh
   gradient norm :     0.0018365 Eh/α   predicted    -0.3609607E-04 ( -32.16%)
   displ. norm   :     0.5445348 α      lambda       -0.6688949E-04
   maximum displ.:     0.2743222 α      in ANC's #2, #1, #7, ...

........................................................................
.............................. CYCLE   51 ..............................
........................................................................
   1   -184.8135044 -0.184814E+03  0.482E-02    1.57       0.0  T
   2   -184.8135063 -0.190347E-05  0.253E-02    1.57       1.0  T
   3   -184.8135049  0.136295E-05  0.605E-03    1.57       1.5  T
   4   -184.8135056 -0.679402E-06  0.447E-03    1.57       2.1  T
   5   -184.8135068 -0.122368E-05  0.918E-04    1.57      10.1  T
   6   -184.8135069 -0.756727E-07  0.349E-04    1.57      26.6  T
   7   -184.8135069 -0.517409E-08  0.204E-04    1.57      45.5  T
     SCC iter.                  ...        0 min,  0.109 sec
     gradient                   ...        0 min,  0.040 sec
 * total energy  :  -182.1801702 Eh     change       -0.7176838E-04 Eh
   gradient norm :     0.0028169 Eh/α   predicted    -0.3785484E-04 ( -47.25%)
   displ. norm   :     0.2626779 α      lambda       -0.4673212E-04
   maximum displ.:     0.1357416 α      in ANC's #2, #1, #7, ...

........................................................................
.............................. CYCLE   52 ..............................
........................................................................
   1   -184.8137136 -0.184814E+03  0.220E-02    1.57       0.0  T
   2   -184.8137140 -0.391116E-06  0.115E-02    1.57       1.0  T
   3   -184.8137137  0.297183E-06  0.275E-03    1.57       3.4  T
   4   -184.8137139 -0.124834E-06  0.209E-03    1.57       4.4  T
   5   -184.8137141 -0.289484E-06  0.372E-04    1.57      24.9  T
   6   -184.8137142 -0.125402E-07  0.151E-04    1.57      61.4  T
     SCC iter.                  ...        0 min,  0.095 sec
     gradient                   ...        0 min,  0.040 sec
 * total energy  :  -182.1802112 Eh     change       -0.4094404E-04 Eh
   gradient norm :     0.0023859 Eh/α   predicted    -0.2498232E-04 ( -38.98%)
   displ. norm   :     0.3179065 α      lambda       -0.6504160E-04
   maximum displ.:     0.1685675 α      in ANC's #2, #1, #7, ...

........................................................................
.............................. CYCLE   53 ..............................
........................................................................
   1   -184.8140102 -0.184814E+03  0.255E-02    1.57       0.0  T
   2   -184.8140108 -0.564893E-06  0.133E-02    1.57       1.0  T
   3   -184.8140101  0.676907E-06  0.361E-03    1.57       2.6  T
   4   -184.8140107 -0.565002E-06  0.238E-03    1.57       3.9  T
   5   -184.8140110 -0.300190E-06  0.573E-04    1.57      16.2  T
   6   -184.8140110 -0.254600E-07  0.220E-04    1.57      42.2  T
     SCC iter.                  ...        0 min,  0.095 sec
     gradient                   ...        0 min,  0.040 sec
 * total energy  :  -182.1802654 Eh     change       -0.5418318E-04 Eh
   gradient norm :     0.0012203 Eh/α   predicted    -0.3580993E-04 ( -33.91%)
   displ. norm   :     0.5368320 α      lambda       -0.6086930E-04
   maximum displ.:     0.2896450 α      in ANC's #2, #1, #7, ...

........................................................................
.............................. CYCLE   54 ..............................
........................................................................
   1   -184.8132250 -0.184813E+03  0.425E-02    1.57       0.0  T
   2   -184.8132266 -0.154342E-05  0.222E-02    1.57       1.0  T
   3   -184.8132250  0.156447E-05  0.568E-03    1.57       1.6  T
   4   -184.8132262 -0.116689E-05  0.397E-03    1.57       2.3  T
   5   -184.8132271 -0.888129E-06  0.977E-04    1.57       9.5  T
   6   -184.8132272 -0.710919E-07  0.386E-04    1.57      24.1  T
     SCC iter.                  ...        0 min,  0.094 sec
     gradient                   ...        0 min,  0.040 sec
 * total energy  :  -182.1803318 Eh     change       -0.6647075E-04 Eh
   gradient norm :     0.0018341 Eh/α   predicted    -0.3433480E-04 ( -48.35%)
   displ. norm   :     0.3470532 α      lambda       -0.3431179E-04
   maximum displ.:     0.1927337 α      in ANC's #2, #1, #7, ...

........................................................................
.............................. CYCLE   55 ..............................
........................................................................
   1   -184.8132692 -0.184813E+03  0.269E-02    1.57       0.0  T
   2   -184.8132699 -0.630683E-06  0.140E-02    1.57       1.0  T
   3   -184.8132696  0.265011E-06  0.308E-03    1.57       3.0  T
   4   -184.8132696 -0.122108E-07  0.247E-03    1.57       3.8  T
   5   -184.8132700 -0.417759E-06  0.557E-04    1.57      16.7  T
   6   -184.8132700 -0.249268E-07  0.253E-04    1.57      36.7  T
     SCC iter.                  ...        0 min,  0.094 sec
     gradient                   ...        0 min,  0.040 sec
 * total energy  :  -182.1803774 Eh     change       -0.4551107E-04 Eh
   gradient norm :     0.0018668 Eh/α   predicted    -0.1807824E-04 ( -60.28%)
   displ. norm   :     0.3794315 α      lambda       -0.4931123E-04
   maximum displ.:     0.2138792 α      in ANC's #1, #2, #7, ...

........................................................................
.............................. CYCLE   56 ..............................
........................................................................
   1   -184.8138173 -0.184814E+03  0.301E-02    1.57       0.0  T
   2   -184.8138181 -0.783966E-06  0.158E-02    1.57       1.0  T
   3   -184.8138177  0.362597E-06  0.353E-03    1.57       2.6  T
   4   -184.8138178 -0.142798E-06  0.255E-03    1.57       3.6  T
   5   -184.8138182 -0.415018E-06  0.681E-04    1.57      13.6  T
   6   -184.8138183 -0.434475E-07  0.281E-04    1.57      33.1  T
     SCC iter.                  ...        0 min,  0.095 sec
     gradient                   ...        0 min,  0.040 sec
 * total energy  :  -182.1804418 Eh     change       -0.6444650E-04 Eh
   gradient norm :     0.0013447 Eh/α   predicted    -0.2623438E-04 ( -59.29%)
   displ. norm   :     0.5202889 α      lambda       -0.6407909E-04
   maximum displ.:     0.2964459 α      in ANC's #1, #2, #8, ...

........................................................................
.............................. CYCLE   57 ..............................
........................................................................
   1   -184.8134398 -0.184813E+03  0.411E-02    1.57       0.0  T
   2   -184.8134412 -0.138462E-05  0.217E-02    1.57       1.0  T
   3   -184.8134405  0.653199E-06  0.484E-03    1.57       1.9  T
   4   -184.8134408 -0.226648E-06  0.344E-03    1.57       2.7  T
   5   -184.8134415 -0.770605E-06  0.928E-04    1.57      10.0  T
   6   -184.8134416 -0.816003E-07  0.358E-04    1.57      26.0  T
     SCC iter.                  ...        0 min,  0.095 sec
     gradient                   ...        0 min,  0.040 sec
 * total energy  :  -182.1805202 Eh     change       -0.7840487E-04 Eh
   gradient norm :     0.0012287 Eh/α   predicted    -0.3589689E-04 ( -54.22%)
   displ. norm   :     0.5113677 α      lambda       -0.5400900E-04
   maximum displ.:     0.2963089 α      in ANC's #1, #2, #8, ...

........................................................................
.............................. CYCLE   58 ..............................
........................................................................
   1   -184.8135442 -0.184814E+03  0.390E-02    1.57       0.0  T
   2   -184.8135454 -0.117522E-05  0.206E-02    1.57       1.0  T
   3   -184.8135451  0.355198E-06  0.436E-03    1.57       2.1  T
   4   -184.8135449  0.118455E-06  0.321E-03    1.57       2.9  T
   5   -184.8135457 -0.753235E-06  0.824E-04    1.57      11.3  T
   6   -184.8135458 -0.623116E-07  0.295E-04    1.57      31.5  T
     SCC iter.                  ...        0 min,  0.094 sec
     gradient                   ...        0 min,  0.040 sec
 * total energy  :  -182.1805864 Eh     change       -0.6616465E-04 Eh
   gradient norm :     0.0015368 Eh/α   predicted    -0.3014454E-04 ( -54.44%)
   displ. norm   :     0.4624230 α      lambda       -0.4831500E-04
   maximum displ.:     0.2721222 α      in ANC's #1, #2, #8, ...

........................................................................
.............................. CYCLE   59 ..............................
........................................................................
   1   -184.8138446 -0.184814E+03  0.333E-02    1.57       0.0  T
   2   -184.8138455 -0.861892E-06  0.175E-02    1.57       1.0  T
   3   -184.8138452  0.251235E-06  0.373E-03    1.57       2.5  T
   4   -184.8138451  0.816411E-07  0.268E-03    1.57       3.5  T
   5   -184.8138457 -0.541500E-06  0.698E-04    1.57      13.3  T
   6   -184.8138457 -0.403520E-07  0.254E-04    1.57      36.5  T
     SCC iter.                  ...        0 min,  0.095 sec
     gradient                   ...        0 min,  0.040 sec
[...]
 ---------------------------------------------------------------------------
     1   6 C    3.923 --     5 C    1.604     2 S    1.161    69 H    0.969
     2  16 S    2.557 --     1 C    1.161     3 C    1.096
     3   6 C    3.948 --     4 C    1.501     9 C    1.164     2 S    1.096
     4   6 C    3.970 --     3 C    1.501     5 C    1.227     8 C    1.015
     5   6 C    3.984 --     1 C    1.604     4 C    1.227     6 C    1.009
     6   6 C    3.998 --     5 C    1.009     7 C    1.001    71 H    0.972
                            70 H    0.962
     7   6 C    3.996 --     6 C    1.001     8 C    0.999    73 H    0.983
                            72 H    0.982
     8   6 C    3.997 --     4 C    1.015     7 C    0.999    75 H    0.965
                            74 H    0.958
     9   6 C    3.934 --    13 C    1.478     3 C    1.164    10 S    1.102
    10  16 S    2.542 --    11 C    1.103     9 C    1.102
    11   6 C    3.934 --    12 C    1.485    17 C    1.145    10 S    1.103
    12   6 C    3.973 --    11 C    1.485    13 C    1.259    16 C    1.010
    13   6 C    3.982 --     9 C    1.478    12 C    1.259    14 C    1.013
    14   6 C    3.996 --    13 C    1.013    15 C    1.000    77 H    0.966
                            76 H    0.959
    15   6 C    3.995 --    16 C    1.000    14 C    1.000    79 H    0.983
                            78 H    0.982
    16   6 C    3.997 --    12 C    1.010    15 C    1.000    80 H    0.971
                            81 H    0.961
    17   6 C    3.936 --    21 C    1.490    11 C    1.145    18 S    1.108
    18  16 S    2.546 --    17 C    1.108    19 C    1.105
    19   6 C    3.931 --    20 C    1.498    25 C    1.132    18 S    1.105
    20   6 C    3.973 --    19 C    1.498    21 C    1.250    24 C    1.010
    21   6 C    3.970 --    17 C    1.490    20 C    1.250    22 C    1.009
    22   6 C    3.997 --    21 C    1.009    23 C    1.000    82 H    0.972
                            83 H    0.961
    23   6 C    3.995 --    22 C    1.000    24 C    0.999    84 H    0.982
                            85 H    0.982
    24   6 C    3.997 --    20 C    1.010    23 C    0.999    87 H    0.972
                            86 H    0.957
    25   6 C    3.932 --    29 C    1.488    19 C    1.132    26 S    1.114
    26  16 S    2.553 --    27 C    1.116    25 C    1.114
    27   6 C    3.935 --    28 C    1.470    33 C    1.155    26 S    1.116
    28   6 C    3.963 --    27 C    1.470    29 C    1.260    32 C    1.014
    29   6 C    3.972 --    25 C    1.488    28 C    1.260    30 C    1.010
    30   6 C    3.996 --    29 C    1.010    31 C    1.001    88 H    0.967
                            89 H    0.961
    31   6 C    3.995 --    30 C    1.001    32 C    1.000    90 H    0.982
                            91 H    0.982
    32   6 C    3.996 --    28 C    1.014    31 C    1.000    93 H    0.959
                            92 H    0.956
    33   6 C    3.929 --    34 C    1.531    27 C    1.155    57 S    1.082
    34   6 C    3.963 --    33 C    1.531    35 C    1.231    94 H    0.928
    35   6 C    3.970 --    36 C    1.259    56 C    1.259    34 C    1.231
    36   6 C    3.951 --    45 C    1.347    35 C    1.259    37 C    1.113
    37   6 C    3.953 --    38 C    1.539    36 C    1.113    44 Se   1.103
    38   6 C    3.959 --    37 C    1.539    39 C    1.279    95 H    0.952
    39   6 C    3.982 --    40 C    1.547    38 C    1.279    96 H    0.962
    40   6 C    3.916 --    39 C    1.547    44 Se   1.146    41 S    1.068
    41  16 S    2.263 --    40 C    1.068    42 C    0.974
    42   6 C    3.976 --    43 C    1.027    41 S    0.974    98 H    0.972
                            97 H    0.960
    43   6 C    3.990 --    42 C    1.027    99 H    0.985   100 H    0.978
                           101 H    0.960
    44  34 Se   2.759 --    40 C    1.146    37 C    1.103
    45   6 C    3.940 --    36 C    1.347    46 C    1.261    60 S    1.098
    46   6 C    3.968 --    45 C    1.261    47 C    1.257    58 C    1.229
    47   6 C    3.937 --    56 C    1.359    46 C    1.257    48 C    1.098
    48   6 C    3.956 --    49 C    1.536    55 Se   1.128    47 C    1.098
    49   6 C    3.977 --    48 C    1.536    50 C    1.274   102 H    0.958
                            55 Se   0.100
    50   6 C    3.979 --    51 C    1.544    49 C    1.274   103 H    0.960
    51   6 C    3.926 --    50 C    1.544    55 Se   1.160    52 S    1.070
    52  16 S    2.263 --    51 C    1.070    53 C    0.969
    53   6 C    3.976 --    54 C    1.027   104 H    0.973   105 H    0.971
                            52 S    0.969
    54   6 C    3.993 --    53 C    1.027   107 H    0.986   108 H    0.983
                           106 H    0.979
    55  34 Se   2.711 --    51 C    1.160    48 C    1.128    49 C    0.100
    56   6 C    3.943 --    47 C    1.359    35 C    1.259    57 S    1.100
    57  16 S    2.533 --    56 C    1.100    33 C    1.082
    58   6 C    3.978 --    59 C    1.549    46 C    1.229   109 H    0.954
    59   6 C    3.933 --    58 C    1.549    61 C    1.158    60 S    1.079
    60  16 S    2.508 --    45 C    1.098    59 C    1.079
    61   6 C    3.947 --    65 C    1.505    59 C    1.158    62 S    1.097
    62  16 S    2.556 --    63 C    1.166    61 C    1.097
    63   6 C    3.927 --    64 C    1.604    62 S    1.166   110 H    0.969
    64   6 C    3.984 --    63 C    1.604    65 C    1.225    68 C    1.010
    65   6 C    3.962 --    61 C    1.505    64 C    1.225    66 C    1.015
    66   6 C    3.997 --    65 C    1.015    67 C    0.999   112 H    0.965
                           111 H    0.958
    67   6 C    3.995 --    68 C    1.001    66 C    0.999   114 H    0.983
                           113 H    0.982
    68   6 C    3.997 --    64 C    1.010    67 C    1.001   116 H    0.972
                           115 H    0.962
    69   1 H    0.998 --     1 C    0.969
    70   1 H    0.998 --     6 C    0.962
    71   1 H    0.998 --     6 C    0.972
    72   1 H    0.998 --     7 C    0.982
    73   1 H    0.999 --     7 C    0.983
    74   1 H    0.997 --     8 C    0.958
    75   1 H    0.997 --     8 C    0.965
    76   1 H    0.997 --    14 C    0.959
    77   1 H    0.997 --    14 C    0.966
    78   1 H    0.998 --    15 C    0.982
    79   1 H    0.999 --    15 C    0.983
    80   1 H    0.998 --    16 C    0.971
    81   1 H    0.996 --    16 C    0.961
    82   1 H    0.998 --    22 C    0.972
    83   1 H    0.996 --    22 C    0.961
    84   1 H    0.998 --    23 C    0.982
    85   1 H    0.998 --    23 C    0.982
    86   1 H    0.996 --    24 C    0.957
    87   1 H    0.998 --    24 C    0.972
    88   1 H    0.997 --    30 C    0.967
    89   1 H    0.997 --    30 C    0.961
    90   1 H    0.998 --    31 C    0.982
    91   1 H    0.998 --    31 C    0.982
    92   1 H    0.996 --    32 C    0.956
    93   1 H    0.997 --    32 C    0.959
    94   1 H    0.995 --    34 C    0.928
    95   1 H    0.997 --    38 C    0.952
    96   1 H    0.998 --    39 C    0.962
    97   1 H    0.997 --    42 C    0.960
    98   1 H    0.996 --    42 C    0.972
    99   1 H    0.997 --    43 C    0.985
   100   1 H    0.997 --    43 C    0.978
   101   1 H    0.996 --    43 C    0.960
   102   1 H    0.998 --    49 C    0.958
   103   1 H    0.998 --    50 C    0.960
   104   1 H    0.998 --    53 C    0.973
   105   1 H    0.996 --    53 C    0.971
   106   1 H    0.998 --    54 C    0.979
   107   1 H    0.997 --    54 C    0.986
   108   1 H    0.998 --    54 C    0.983
   109   1 H    0.997 --    58 C    0.954
   110   1 H    0.997 --    63 C    0.969
   111   1 H    0.996 --    66 C    0.958
   112   1 H    0.997 --    66 C    0.965
   113   1 H    0.998 --    67 C    0.982
   114   1 H    0.999 --    67 C    0.983
   115   1 H    0.998 --    68 C    0.962
   116   1 H    0.998 --    68 C    0.972
 ---------------------------------------------------------------------------

Topologies differ in bond orders
Writing corrected topology to xtbtopo.mol

molecular dipole:
                 x           y           z       tot (Debye)
 q only:        0.670      -0.182      -1.072
   full:        0.773      -0.329      -0.496       2.479
molecular quadrupole (traceless):
                xx          xy          yy          xz          yz          zz
 q only:      -38.207      -1.449       3.898      -2.078      17.174      34.309
  q+dip:      -50.249      -0.392      -2.900      -4.824      16.091      53.149
   full:      -47.576       1.558      -3.254      -4.095      16.554      50.830

           -------------------------------------------------
          |                Geometry Summary                 |
           -------------------------------------------------

      molecular mass/u    :     1179.4949661
   center of mass at/Å    :       -0.5316427      -0.6056603       0.3673196
  moments of inertia/u·Å² :        0.1688922E+05   0.5345462E+05   0.6579378E+05
rotational constants/cm⁻¹ :        0.9981300E-03   0.3153634E-03   0.2562192E-03

 * 124 selected distances

     #   Z          #   Z                                           value/Å
     1   6 C        2  16 S                                       1.7314010
     2  16 S        3   6 C                                       1.7570280
     3   6 C        4   6 C                                       1.3669632
     1   6 C        5   6 C                                       1.3531320
     4   6 C        5   6 C                                       1.4163545
     5   6 C        6   6 C                                       1.4941494
     6   6 C        7   6 C                                       1.5415231
     4   6 C        8   6 C                                       1.4919198
     7   6 C        8   6 C                                       1.5418341
     3   6 C        9   6 C                                       1.4239427
     9   6 C       10  16 S                                       1.7524172
    10  16 S       11   6 C                                       1.7550713
    11   6 C       12   6 C                                       1.3692849
     9   6 C       13   6 C                                       1.3689899
    12   6 C       13   6 C                                       1.4103425
    13   6 C       14   6 C                                       1.4927630
    14   6 C       15   6 C                                       1.5402013
    12   6 C       16   6 C                                       1.4954464
    15   6 C       16   6 C                                       1.5412169
    11   6 C       17   6 C                                       1.4291410
    17   6 C       18  16 S                                       1.7530138
    18  16 S       19   6 C                                       1.7534985
    19   6 C       20   6 C                                       1.3669030
    17   6 C       21   6 C                                       1.3682642
    20   6 C       21   6 C                                       1.4133990
    21   6 C       22   6 C                                       1.4958945
    22   6 C       23   6 C                                       1.5399083
    20   6 C       24   6 C                                       1.4947014
    23   6 C       24   6 C                                       1.5392880
    19   6 C       25   6 C                                       1.4320422
    25   6 C       26  16 S                                       1.7541738
    26  16 S       27   6 C                                       1.7469321
    27   6 C       28   6 C                                       1.3714329
    25   6 C       29   6 C                                       1.3693106
    28   6 C       29   6 C                                       1.4101564
    29   6 C       30   6 C                                       1.4956112
    30   6 C       31   6 C                                       1.5407971
    28   6 C       32   6 C                                       1.4937383
    31   6 C       32   6 C                                       1.5395062
    27   6 C       33   6 C                                       1.4254105
    33   6 C       34   6 C                                       1.3639057
    34   6 C       35   6 C                                       1.4153578
    35   6 C       36   6 C                                       1.4111367
    37   6 C       38   6 C                                       1.3676339
    38   6 C       39   6 C                                       1.4083638
    39   6 C       40   6 C                                       1.3641447
    42   6 C       43   6 C                                       1.5156425
    37   6 C       44  34 Se                                      1.8877944
    40   6 C       44  34 Se                                      1.8789705
    36   6 C       45   6 C                                       1.3943990
    45   6 C       46   6 C                                       1.4157376
    46   6 C       47   6 C                                       1.4109689
    48   6 C       49   6 C                                       1.3682302
    49   6 C       50   6 C                                       1.4092653
    50   6 C       51   6 C                                       1.3637790
    53   6 C       54   6 C                                       1.5150886
    48   6 C       55  34 Se                                      1.8919668 (max)
    51   6 C       55  34 Se                                      1.8765738
    35   6 C       56   6 C                                       1.4140896
    47   6 C       56   6 C                                       1.3903322
    33   6 C       57  16 S                                       1.7510376
    56   6 C       57  16 S                                       1.7443227
    46   6 C       58   6 C                                       1.4175481
    58   6 C       59   6 C                                       1.3619501
    45   6 C       60  16 S                                       1.7452681
    59   6 C       60  16 S                                       1.7516011
    59   6 C       61   6 C                                       1.4252947
    61   6 C       62  16 S                                       1.7565794
    62  16 S       63   6 C                                       1.7300470
    63   6 C       64   6 C                                       1.3532315
    61   6 C       65   6 C                                       1.3664586
    64   6 C       65   6 C                                       1.4171104
    65   6 C       66   6 C                                       1.4920033
    66   6 C       67   6 C                                       1.5417897
    64   6 C       68   6 C                                       1.4939874
    67   6 C       68   6 C                                       1.5414288
     1   6 C       69   1 H                                       1.0714479 (min)
     6   6 C       70   1 H                                       1.0934558
     6   6 C       71   1 H                                       1.0897564
     7   6 C       72   1 H                                       1.0888250
     7   6 C       73   1 H                                       1.0910988
     8   6 C       74   1 H                                       1.0935120
     8   6 C       75   1 H                                       1.0902470
    14   6 C       76   1 H                                       1.0934231
    14   6 C       77   1 H                                       1.0898494
    15   6 C       78   1 H                                       1.0889065
    15   6 C       79   1 H                                       1.0909821
    16   6 C       80   1 H                                       1.0894854
    16   6 C       81   1 H                                       1.0925127
    22   6 C       82   1 H                                       1.0889875
    22   6 C       83   1 H                                       1.0927427
    23   6 C       84   1 H                                       1.0909629
    23   6 C       85   1 H                                       1.0891173
    24   6 C       86   1 H                                       1.0942277
    24   6 C       87   1 H                                       1.0895825
    30   6 C       88   1 H                                       1.0874411
    30   6 C       89   1 H                                       1.0937007
    31   6 C       90   1 H                                       1.0909784
    31   6 C       91   1 H                                       1.0890425
    32   6 C       92   1 H                                       1.0945257
    32   6 C       93   1 H                                       1.0924905
    34   6 C       94   1 H                                       1.0745625
    38   6 C       95   1 H                                       1.0764681
    39   6 C       96   1 H                                       1.0763167
    42   6 C       97   1 H                                       1.0922740
    42   6 C       98   1 H                                       1.0898145
    43   6 C       99   1 H                                       1.0872490
    43   6 C      100   1 H                                       1.0881264
    43   6 C      101   1 H                                       1.0912556
    49   6 C      102   1 H                                       1.0772921
    50   6 C      103   1 H                                       1.0766253
    53   6 C      104   1 H                                       1.0891475
    53   6 C      105   1 H                                       1.0896131
    54   6 C      106   1 H                                       1.0882291
    54   6 C      107   1 H                                       1.0875305
    54   6 C      108   1 H                                       1.0882709
    58   6 C      109   1 H                                       1.0745864
    63   6 C      110   1 H                                       1.0715427
    66   6 C      111   1 H                                       1.0934938
    66   6 C      112   1 H                                       1.0900117
    67   6 C      113   1 H                                       1.0887638
    67   6 C      114   1 H                                       1.0910806
    68   6 C      115   1 H                                       1.0933851
    68   6 C      116   1 H                                       1.0896550

 * 4 distinct bonds (by element types)

   Z      Z             #   av. dist./Å        max./Å        min./Å
   1 H    6 C          48     1.0879708     1.0945257     1.0714479
   6 C    6 C          58     1.4398698     1.5418341     1.3531320
   6 C   16 S          14     1.7487423     1.7570280     1.7300470
   6 C   34 Se          4     1.8838264     1.8919668     1.8765738


optimized geometry written to: xtbopt.mol


           -------------------------------------------------
          | TOTAL ENERGY             -182.186771238319 Eh   |
          | GRADIENT NORM               0.000210418815 Eh/α |
          | HOMO-LUMO GAP               1.504055526238 eV   |
           -------------------------------------------------

------------------------------------------------------------------------
 * finished run on 2022/03/07 at 13:27:41.987     
------------------------------------------------------------------------
 total:
 * wall-time:     0 d,  0 h,  0 min, 31.083 sec
 *  cpu-time:     0 d,  0 h,  4 min,  8.560 sec
 * ratio c/w:     7.997 speedup
 SCF:
 * wall-time:     0 d,  0 h,  0 min,  0.305 sec
 *  cpu-time:     0 d,  0 h,  0 min,  2.432 sec
 * ratio c/w:     7.980 speedup
 ANC optimizer:
 * wall-time:     0 d,  0 h,  0 min, 30.707 sec
 *  cpu-time:     0 d,  0 h,  4 min,  5.638 sec
 * ratio c/w:     7.999 speedup

