      -----------------------------------------------------------      
     |                   =====================                   |     
     |                           x T B                           |     
     |                   =====================                   |     
     |                         S. Grimme                         |     
     |          Mulliken Center for Theoretical Chemistry        |     
     |                    University of Bonn                     |     
      -----------------------------------------------------------      

   * xtb version 6.4.1 (unknown) compiled by 'oda6@login1.crc.pitt.edu' on 2021-06-25

   xtb is free software: you can redistribute it and/or modify it under
   the terms of the GNU Lesser General Public License as published by
   the Free Software Foundation, either version 3 of the License, or
   (at your option) any later version.
   
   xtb is distributed in the hope that it will be useful,
   but WITHOUT ANY WARRANTY; without even the implied warranty of
   MERCHANTABILITY or FITNESS FOR A PARTICULAR PURPOSE.  See the
   GNU Lesser General Public License for more details.
   
   Cite this work as:
   * C. Bannwarth, E. Caldeweyher, S. Ehlert, A. Hansen, P. Pracht,
     J. Seibert, S. Spicher, S. Grimme, WIREs Comput. Mol. Sci., 2020, 11,
     e01493. DOI: 10.1002/wcms.1493
   
   for GFN2-xTB:
   * C. Bannwarth, S. Ehlert and S. Grimme., J. Chem. Theory Comput., 2019,
     15, 1652-1671. DOI: 10.1021/acs.jctc.8b01176
   for GFN1-xTB:
   * S. Grimme, C. Bannwarth, P. Shushkov, J. Chem. Theory Comput., 2017,
     13, 1989-2009. DOI: 10.1021/acs.jctc.7b00118
   for GFN0-xTB:
   * P. Pracht, E. Caldeweyher, S. Ehlert, S. Grimme, ChemRxiv, 2019, preprint.
     DOI: 10.26434/chemrxiv.8326202.v1
   for GFN-FF:
   * S. Spicher and S. Grimme, Angew. Chem. Int. Ed., 2020, 59, 15665-15673.
     DOI: 10.1002/anie.202004239
   
   for DFT-D4:
   * E. Caldeweyher, C. Bannwarth and S. Grimme, J. Chem. Phys., 2017,
     147, 034112. DOI: 10.1063/1.4993215
   * E. Caldeweyher, S. Ehlert, A. Hansen, H. Neugebauer, S. Spicher,
     C. Bannwarth and S. Grimme, J. Chem. Phys., 2019, 150, 154122.
     DOI: 10.1063/1.5090222
   * E. Caldeweyher, J.-M. Mewes, S. Ehlert and S. Grimme, Phys. Chem. Chem. Phys.
     2020, 22, 8499-8512. DOI: 10.1039/D0CP00502A
   
   for sTDA-xTB:
   * S. Grimme and C. Bannwarth, J. Chem. Phys., 2016, 145, 054103.
     DOI: 10.1063/1.4959605
   
   in the mass-spec context:
   * V. Asgeirsson, C. Bauer and S. Grimme, Chem. Sci., 2017, 8, 4879.
     DOI: 10.1039/c7sc00601b
   * J. Koopman and S. Grimme, ACS Omega 2019, 4, 12, 15120-15133.
     DOI: 10.1021/acsomega.9b02011
   
   for metadynamics refer to:
   * S. Grimme, J. Chem. Theory Comput., 2019, 155, 2847-2862
     DOI: 10.1021/acs.jctc.9b00143
   
   for SPH calculations refer to:
   * S. Spicher and S. Grimme, J. Chem. Theory Comput., 2021, 17, 1701-1714
     DOI: 10.1021/acs.jctc.0c01306
   
   with help from (in alphabetical order)
   P. Atkinson, C. Bannwarth, F. Bohle, G. Brandenburg, E. Caldeweyher
   M. Checinski, S. Dohm, S. Ehlert, S. Ehrlich, I. Gerasimov, J. Koopman
   C. Lavigne, S. Lehtola, F. März, M. Müller, F. Musil, H. Neugebauer
   J. Pisarek, C. Plett, P. Pracht, J. Seibert, P. Shushkov, S. Spicher
   M. Stahn, M. Steiner, T. Strunk, J. Stückrath, T. Rose, and J. Unsleber
   
 * started run on 2022/03/07 at 16:22:04.266     

           -------------------------------------------------
          |                Calculation Setup                |
           -------------------------------------------------

          program call               : /ihome/ghutchison/oda6/xtb/xtb-641/bin/xtb ../../FF_optimized/100_40_011100.mol -opt
          hostname                   : smp-n44
          coordinate file            : ../../FF_optimized/100_40_011100.mol
          omp threads                :                     8
          number of atoms            :                   320
          number of electrons        :                   980
          charge                     :                     0
          spin                       :                   0.0
          first test random number   :      0.99415265373093

   ID    Z sym.   atoms
    1    6 C      1-8, 10, 11, 13-19, 21, 22, 24, 26, 27, 29, 30, 32-36,
                  38-41, 43-49, 51-53, 55-57, 59-62, 65, 66, 68-72, 74-77,
                  79-85, 87-89, 91-93, 95-98, 101, 102, 104-108, 110-113,
                  115-121, 123-125, 127-129, 131-134, 137-144, 146, 147,
                  149-155, 157, 158, 160, 162, 163, 165-172, 174, 175,
                  177-183, 185, 186, 188, 190, 191
    2   16 S      9, 20, 25, 28, 145, 156, 161, 164, 173, 184, 189, 192
    3   34 Se     12, 23, 148, 159, 176, 187
    4    7 N      31, 58, 67, 94, 103, 130
    5    8 O      37, 42, 50, 54, 73, 78, 86, 90, 109, 114, 122, 126
    6    9 F      63, 64, 99, 100, 135, 136
    7    1 H      193-320

molecular fragmentation (1/2 indicates fragments):
111111111111111111111111111111111111111111111111111111111111111111111111
111111111111111111111111111111111111111111111111111111111111111111111111
111111111111111111111111111111111111111111111111112111111221111111111111
111111111111111111111111111111111111111111111111111111111111111111111111
12111112211111112211111211111111
# atoms in fragment 1/2:   311     9
 fragment masses (1/2) :     3170.11        9.07
CMA distance (Bohr)    :  10.742
constraining FC (au)   :  0.0500
########################################################################
[WARNING] Please study the warnings concerning your input carefully
-1- prog_main_parseArguments: the use of '-opt' is discouraged, please use '--opt' next time
########################################################################

           -------------------------------------------------
          |                 G F N 2 - x T B                 |
           -------------------------------------------------

        Reference                      10.1021/acs.jctc.8b01176
      * Hamiltonian:
        H0-scaling (s, p, d)           1.850000    2.230000    2.230000
        zeta-weighting                 0.500000
      * Dispersion:
        s8                             2.700000
        a1                             0.520000
        a2                             5.000000
        s9                             5.000000
      * Repulsion:
        kExp                           1.500000    1.000000
        rExp                           1.000000
      * Coulomb:
        alpha                          2.000000
        third order                    shell-resolved
        anisotropic                    true
        a3                             3.000000
        a5                             4.000000
        cn-shift                       1.200000
        cn-exp                         4.000000
        max-rad                        5.000000


          ...................................................
          :                      SETUP                      :
          :.................................................:
          :  # basis functions                1004          :
          :  # atomic orbitals                 986          :
          :  # shells                          530          :
          :  # electrons                       980          :
          :  max. iterations                   250          :
          :  Hamiltonian                  GFN2-xTB          :
          :  restarted?                      false          :
          :  GBSA solvation                  false          :
          :  PC potential                    false          :
          :  electronic temp.          300.0000000     K    :
          :  accuracy                    1.0000000          :
          :  -> integral cutoff          0.2500000E+02      :
          :  -> integral neglect         0.1000000E-07      :
          :  -> SCF convergence          0.1000000E-05 Eh   :
          :  -> wf. convergence          0.1000000E-03 e    :
          :  Broyden damping             0.4000000          :
          ...................................................

 iter      E             dE          RMSdq      gap      omega  full diag
   1   -545.0849890 -0.545085E+03  0.456E+00    1.16       0.0  T
   2   -545.7244115 -0.639423E+00  0.261E+00    0.73       1.0  T
   3   -545.4957917  0.228620E+00  0.127E+00    0.74       1.0  T
   4   -545.7566687 -0.260877E+00  0.673E-01    0.88       1.0  T
   5   -545.8718584 -0.115190E+00  0.270E-01    0.91       1.0  T
   6   -545.8791989 -0.734049E-02  0.156E-01    0.96       1.0  T
   7   -545.8823896 -0.319069E-02  0.691E-02    0.95       1.0  T
   8   -545.8832817 -0.892107E-03  0.347E-02    0.96       1.0  T
   9   -545.8834079 -0.126159E-03  0.225E-02    0.96       1.0  T
  10   -545.8834217 -0.138390E-04  0.137E-02    0.96       1.0  T
  11   -545.8834502 -0.284659E-04  0.742E-03    0.96       1.0  T
  12   -545.8834545 -0.430448E-05  0.406E-03    0.96       1.4  T
  13   -545.8834561 -0.160936E-05  0.219E-03    0.96       2.6  T
  14   -545.8834567 -0.564269E-06  0.117E-03    0.96       4.8  T
  15   -545.8834568 -0.100195E-06  0.684E-04    0.96       8.2  T
  16   -545.8834568 -0.411399E-07  0.383E-04    0.96      14.6  T

   *** convergence criteria satisfied after 16 iterations ***

         #    Occupation            Energy/Eh            Energy/eV
      -------------------------------------------------------------
         1        2.0000           -0.8366796             -22.7672
       ...           ...                  ...                  ...
       484        2.0000           -0.3606950              -9.8150
       485        2.0000           -0.3604477              -9.8083
       486        2.0000           -0.3597490              -9.7893
       487        2.0000           -0.3587193              -9.7612
       488        2.0000           -0.3576813              -9.7330
       489        2.0000           -0.3548121              -9.6549
       490        2.0000           -0.3538987              -9.6301 (HOMO)
       491                         -0.3187728              -8.6742 (LUMO)
       492                         -0.3162141              -8.6046
       493                         -0.3101254              -8.4389
       494                         -0.3088470              -8.4042
       495                         -0.3015794              -8.2064
       ...                                ...                  ...
       986                          1.0890382              29.6342
      -------------------------------------------------------------
                  HL-Gap            0.0351259 Eh            0.9558 eV
             Fermi-level           -0.3362032 Eh           -9.1486 eV

 SCC (total)                   0 d,  0 h,  0 min,  1.922 sec
 SCC setup                      ...        0 min,  0.006 sec (  0.318%)
 Dispersion                     ...        0 min,  0.020 sec (  1.036%)
 classical contributions        ...        0 min,  0.001 sec (  0.045%)
 integral evaluation            ...        0 min,  0.083 sec (  4.308%)
 iterations                     ...        0 min,  1.437 sec ( 74.784%)
 molecular gradient             ...        0 min,  0.367 sec ( 19.071%)
 printout                       ...        0 min,  0.008 sec (  0.434%)

         :::::::::::::::::::::::::::::::::::::::::::::::::::::
         ::                     SUMMARY                     ::
         :::::::::::::::::::::::::::::::::::::::::::::::::::::
         :: total energy            -538.406360532913 Eh    ::
         :: gradient norm              0.790634420073 Eh/a0 ::
         :: HOMO-LUMO gap              0.955825617891 eV    ::
         ::.................................................::
         :: SCC energy              -545.883456792974 Eh    ::
         :: -> isotropic ES            0.306441471855 Eh    ::
         :: -> anisotropic ES          0.053549924489 Eh    ::
         :: -> anisotropic XC          0.187788613263 Eh    ::
         :: -> dispersion             -0.506652589637 Eh    ::
         :: repulsion energy           7.451059126011 Eh    ::
         :: add. restraining           0.000000000000 Eh    ::
         :: total charge               0.000000000041 e     ::
         :::::::::::::::::::::::::::::::::::::::::::::::::::::

      ----------------------------------------------------------- 
     |                   =====================                   |
     |                        A N C O P T                        |
     |                   =====================                   |
     |               Approximate Normal Coordinate               |
     |                Rational Function Optimizer                |
      ----------------------------------------------------------- 

          ...................................................
          :                      SETUP                      :
          :.................................................:
          :   optimization level            normal          :
          :   max. optcycles                   960          :
          :   ANC micro-cycles                  20          :
          :   degrees of freedom               954          :
          :.................................................:
          :   RF solver                   davidson          :
          :   write xtbopt.log                true          :
          :   linear?                        false          :
          :   energy convergence         0.5000000E-05 Eh   :
          :   grad. convergence          0.1000000E-02 Eh/α :
          :   maximium RF displ.         1.0000000          :
          :   Hlow (freq-cutoff)         0.1000000E-01      :
          :   Hmax (freq-cutoff)         5.0000000          :
          :   S6 in model hess.         20.0000000          :
          ...................................................

generating ANC from model Hessian ...
Using Lindh-Hessian (1995)
 Shifting diagonal of input Hessian by   1.001549222201007E-002
 Lowest  eigenvalues of input Hessian
    0.010000    0.010014    0.000000    0.000000    0.000000    0.000000
    0.000000    0.000000    0.010019    0.010025    0.010033    0.010037
    0.010043    0.010047    0.010051    0.010052    0.010060    0.010068
 Highest eigenvalues
    2.323788    2.332919    2.342292    2.369078    2.533411    2.555443
 

........................................................................
.............................. CYCLE    1 ..............................
........................................................................
   1   -545.8834568 -0.545883E+03  0.213E-04    0.96       0.0  T
   2   -545.8834568  0.199418E-08  0.194E-04    0.96      28.8  T
   3   -545.8834568 -0.642115E-08  0.125E-04    0.96      44.8  T
     SCC iter.                  ...        0 min,  0.269 sec
     gradient                   ...        0 min,  0.363 sec
 * total energy  :  -538.4063606 Eh     change       -0.1838339E-07 Eh
   gradient norm :     0.7906345 Eh/α   predicted     0.0000000E+00 (-100.00%)
   displ. norm   :     0.6017562 α      lambda       -0.4171302E+00
   maximum displ.:     0.1324434 α      in ANC's #842, #560, #825, ...

........................................................................
.............................. CYCLE    2 ..............................
........................................................................
   1   -546.0313974 -0.546031E+03  0.384E-01    0.96       0.0  T
   2   -546.0337579 -0.236048E-02  0.212E-01    1.00       1.0  T
   3   -546.0317169  0.204092E-02  0.113E-01    0.99       1.0  T
   4   -546.0341907 -0.247378E-02  0.525E-02    0.99       1.0  T
   5   -546.0346017 -0.410976E-03  0.268E-02    0.99       1.0  T
   6   -546.0346917 -0.900274E-04  0.122E-02    0.99       1.0  T
   7   -546.0347139 -0.221942E-04  0.555E-03    0.99       1.0  T
   8   -546.0347164 -0.247464E-05  0.372E-03    0.99       1.5  T
   9   -546.0347175 -0.109338E-05  0.206E-03    0.99       2.7  T
  10   -546.0347178 -0.336947E-06  0.102E-03    0.99       5.5  T
  11   -546.0347179 -0.123566E-06  0.505E-04    0.99      11.1  T
  12   -546.0347180 -0.357508E-07  0.279E-04    0.99      20.0  T
     SCC iter.                  ...        0 min,  1.030 sec
     gradient                   ...        0 min,  0.363 sec
 * total energy  :  -538.7362156 Eh     change       -0.3298550E+00 Eh
   gradient norm :     0.4449400 Eh/α   predicted    -0.2841088E+00 ( -13.87%)
   displ. norm   :     0.6301575 α      lambda       -0.2475724E+00
   maximum displ.:     0.1083445 α      in ANC's #580, #842, #560, ...

........................................................................
.............................. CYCLE    3 ..............................
........................................................................
   1   -546.1603549 -0.546160E+03  0.359E-01    0.98       0.0  T
   2   -546.1626583 -0.230340E-02  0.200E-01    1.01       1.0  T
   3   -546.1605397  0.211861E-02  0.120E-01    1.00       1.0  T
   4   -546.1634420 -0.290226E-02  0.504E-02    1.00       1.0  T
   5   -546.1637935 -0.351536E-03  0.240E-02    1.00       1.0  T
   6   -546.1638701 -0.765572E-04  0.117E-02    1.00       1.0  T
   7   -546.1638885 -0.184063E-04  0.538E-03    1.00       1.0  T
   8   -546.1638906 -0.206749E-05  0.368E-03    1.00       1.5  T
   9   -546.1638917 -0.116071E-05  0.205E-03    1.00       2.7  T
  10   -546.1638920 -0.334975E-06  0.101E-03    1.00       5.5  T
  11   -546.1638921 -0.947409E-07  0.592E-04    1.00       9.4  T
  12   -546.1638922 -0.423388E-07  0.344E-04    1.00      16.2  T
     SCC iter.                  ...        0 min,  1.030 sec
     gradient                   ...        0 min,  0.365 sec
 * total energy  :  -538.9121900 Eh     change       -0.1759744E+00 Eh
   gradient norm :     0.1788294 Eh/α   predicted    -0.1729415E+00 (  -1.72%)
   displ. norm   :     0.6542204 α      lambda       -0.9747970E-01
   maximum displ.:     0.1024371 α      in ANC's #245, #267, #580, ...

........................................................................
.............................. CYCLE    4 ..............................
........................................................................
   1   -546.1876439 -0.546188E+03  0.267E-01    1.01       0.0  T
   2   -546.1883669 -0.723065E-03  0.157E-01    1.02       1.0  T
   3   -546.1862792  0.208776E-02  0.105E-01    1.01       1.0  T
   4   -546.1888659 -0.258674E-02  0.359E-02    1.01       1.0  T
   5   -546.1890052 -0.139291E-03  0.164E-02    1.01       1.0  T
   6   -546.1890389 -0.336630E-04  0.791E-03    1.01       1.0  T
   7   -546.1890455 -0.665192E-05  0.453E-03    1.01       1.2  T
   8   -546.1890471 -0.153674E-05  0.290E-03    1.01       1.9  T
   9   -546.1890478 -0.718462E-06  0.149E-03    1.01       3.7  T
  10   -546.1890480 -0.204814E-06  0.731E-04    1.01       7.6  T
  11   -546.1890480 -0.558634E-07  0.466E-04    1.01      12.0  T
     SCC iter.                  ...        0 min,  0.948 sec
     gradient                   ...        0 min,  0.363 sec
 * total energy  :  -538.9855090 Eh     change       -0.7331901E-01 Eh
   gradient norm :     0.0934842 Eh/α   predicted    -0.6969695E-01 (  -4.94%)
   displ. norm   :     0.6919241 α      lambda       -0.5087875E-01
   maximum displ.:     0.1066836 α      in ANC's #245, #242, #267, ...

........................................................................
.............................. CYCLE    5 ..............................
........................................................................
   1   -546.1957933 -0.546196E+03  0.189E-01    1.03       0.0  T
   2   -546.1960612 -0.267828E-03  0.115E-01    1.03       1.0  T
   3   -546.1948145  0.124665E-02  0.790E-02    1.03       1.0  T
   4   -546.1963386 -0.152407E-02  0.228E-02    1.04       1.0  T
   5   -546.1963849 -0.463070E-04  0.115E-02    1.03       1.0  T
   6   -546.1964022 -0.173204E-04  0.482E-03    1.03       1.2  T
   7   -546.1964042 -0.202865E-05  0.306E-03    1.03       1.8  T
   8   -546.1964050 -0.791133E-06  0.191E-03    1.03       2.9  T
   9   -546.1964053 -0.302037E-06  0.992E-04    1.03       5.6  T
  10   -546.1964054 -0.867428E-07  0.524E-04    1.03      10.7  T
     SCC iter.                  ...        0 min,  0.861 sec
     gradient                   ...        0 min,  0.362 sec
 * total energy  :  -539.0260513 Eh     change       -0.4054233E-01 Eh
   gradient norm :     0.0726107 Eh/α   predicted    -0.3761872E-01 (  -7.21%)
   displ. norm   :     0.7445427 α      lambda       -0.3593884E-01
   maximum displ.:     0.1059921 α      in ANC's #235, #113, #186, ...

........................................................................
.............................. CYCLE    6 ..............................
........................................................................
   1   -546.2199226 -0.546220E+03  0.153E-01    1.06       0.0  T
   2   -546.2203026 -0.380033E-03  0.910E-02    1.06       1.0  T
   3   -546.2199166  0.386003E-03  0.550E-02    1.06       1.0  T
   4   -546.2204808 -0.564153E-03  0.206E-02    1.06       1.0  T
   5   -546.2205399 -0.591442E-04  0.986E-03    1.06       1.0  T
   6   -546.2205524 -0.124789E-04  0.366E-03    1.06       1.5  T
   7   -546.2205537 -0.124393E-05  0.201E-03    1.06       2.8  T
   8   -546.2205540 -0.365638E-06  0.129E-03    1.06       4.3  T
   9   -546.2205542 -0.143792E-06  0.719E-04    1.06       7.8  T
  10   -546.2205542 -0.612115E-07  0.356E-04    1.06      15.7  T
     SCC iter.                  ...        0 min,  0.859 sec
     gradient                   ...        0 min,  0.364 sec
 * total energy  :  -539.0569893 Eh     change       -0.3093793E-01 Eh
   gradient norm :     0.0719886 Eh/α   predicted    -0.2793079E-01 (  -9.72%)
   displ. norm   :     0.7965161 α      lambda       -0.3243875E-01
   maximum displ.:     0.1267975 α      in ANC's #107, #113, #235, ...

........................................................................
.............................. CYCLE    7 ..............................
........................................................................
   1   -546.2506539 -0.546251E+03  0.145E-01    1.07       0.0  T
   2   -546.2514875 -0.833595E-03  0.847E-02    1.08       1.0  T
   3   -546.2516469 -0.159326E-03  0.517E-02    1.08       1.0  T
   4   -546.2519019 -0.255031E-03  0.168E-02    1.08       1.0  T
   5   -546.2519568 -0.548595E-04  0.813E-03    1.08       1.0  T
   6   -546.2519677 -0.109501E-04  0.357E-03    1.08       1.6  T
   7   -546.2519687 -0.968056E-06  0.179E-03    1.08       3.1  T
   8   -546.2519692 -0.522197E-06  0.994E-04    1.08       5.6  T
   9   -546.2519693 -0.760992E-07  0.540E-04    1.08      10.4  T
     SCC iter.                  ...        0 min,  0.792 sec
     gradient                   ...        0 min,  0.364 sec
 * total energy  :  -539.0830809 Eh     change       -0.2609165E-01 Eh
   gradient norm :     0.0595021 Eh/α   predicted    -0.2650956E-01 (   1.60%)
   displ. norm   :     0.7294651 α      lambda       -0.2233407E-01
   maximum displ.:     0.1271971 α      in ANC's #113, #107, #83, ...

........................................................................
.............................. CYCLE    8 ..............................
........................................................................
   1   -546.2908672 -0.546291E+03  0.105E-01    1.08       0.0  T
   2   -546.2911711 -0.303846E-03  0.579E-02    1.08       1.0  T
   3   -546.2911246  0.464913E-04  0.349E-02    1.08       1.0  T
   4   -546.2912800 -0.155451E-03  0.111E-02    1.08       1.0  T
   5   -546.2912968 -0.167873E-04  0.575E-03    1.08       1.0  T
   6   -546.2913024 -0.554566E-05  0.265E-03    1.08       2.1  T
   7   -546.2913030 -0.609486E-06  0.128E-03    1.08       4.4  T
   8   -546.2913031 -0.140125E-06  0.904E-04    1.08       6.2  T
   9   -546.2913032 -0.735062E-07  0.462E-04    1.08      12.1  T
     SCC iter.                  ...        0 min,  0.775 sec
     gradient                   ...        0 min,  0.364 sec
 * total energy  :  -539.1015298 Eh     change       -0.1844885E-01 Eh
   gradient norm :     0.0472875 Eh/α   predicted    -0.1710923E-01 (  -7.26%)
   displ. norm   :     0.7460294 α      lambda       -0.1897840E-01
   maximum displ.:     0.1399115 α      in ANC's #83, #113, #92, ...

........................................................................
.............................. CYCLE    9 ..............................
........................................................................
   1   -546.3345584 -0.546335E+03  0.101E-01    1.08       0.0  T
   2   -546.3347883 -0.229926E-03  0.589E-02    1.07       1.0  T
   3   -546.3346016  0.186669E-03  0.337E-02    1.08       1.0  T
   4   -546.3348796 -0.277932E-03  0.125E-02    1.08       1.0  T
   5   -546.3349002 -0.206582E-04  0.641E-03    1.08       1.0  T
   6   -546.3349074 -0.716913E-05  0.265E-03    1.08       2.1  T
   7   -546.3349078 -0.448976E-06  0.147E-03    1.08       3.8  T
   8   -546.3349081 -0.283645E-06  0.935E-04    1.08       6.0  T
   9   -546.3349082 -0.634370E-07  0.501E-04    1.08      11.2  T
     SCC iter.                  ...        0 min,  0.780 sec
     gradient                   ...        0 min,  0.364 sec
 * total energy  :  -539.1175495 Eh     change       -0.1601970E-01 Eh
   gradient norm :     0.0367298 Eh/α   predicted    -0.1477052E-01 (  -7.80%)
   displ. norm   :     0.8105618 α      lambda       -0.1569698E-01
   maximum displ.:     0.1682169 α      in ANC's #83, #84, #113, ...

........................................................................
.............................. CYCLE   10 ..............................
........................................................................
   1   -546.3592729 -0.546359E+03  0.914E-02    1.07       0.0  T
   2   -546.3593675 -0.946190E-04  0.518E-02    1.07       1.0  T
   3   -546.3592276  0.139870E-03  0.235E-02    1.08       1.0  T
   4   -546.3593854 -0.157736E-03  0.948E-03    1.07       1.0  T
   5   -546.3593975 -0.121771E-04  0.465E-03    1.08       1.2  T
   6   -546.3594013 -0.380164E-05  0.196E-03    1.07       2.8  T
   7   -546.3594016 -0.300215E-06  0.106E-03    1.07       5.3  T
   8   -546.3594018 -0.140116E-06  0.697E-04    1.07       8.0  T
   9   -546.3594018 -0.294456E-07  0.393E-04    1.07      14.2  T
     SCC iter.                  ...        0 min,  0.769 sec
     gradient                   ...        0 min,  0.363 sec
 * total energy  :  -539.1313958 Eh     change       -0.1384629E-01 Eh
   gradient norm :     0.0344175 Eh/α   predicted    -0.1300504E-01 (  -6.08%)
   displ. norm   :     0.8413012 α      lambda       -0.1374949E-01
   maximum displ.:     0.1937405 α      in ANC's #83, #84, #91, ...

........................................................................
.............................. CYCLE   11 ..............................
........................................................................
   1   -546.3766339 -0.546377E+03  0.883E-02    1.07       0.0  T
   2   -546.3767059 -0.719270E-04  0.495E-02    1.07       1.0  T
   3   -546.3766125  0.933278E-04  0.213E-02    1.08       1.0  T
   4   -546.3767217 -0.109170E-03  0.804E-03    1.08       1.0  T
   5   -546.3767276 -0.590793E-05  0.465E-03    1.08       1.2  T
   6   -546.3767317 -0.405946E-05  0.156E-03    1.08       3.6  T
   7   -546.3767318 -0.104959E-06  0.998E-04    1.08       5.6  T
   8   -546.3767319 -0.144323E-06  0.589E-04    1.08       9.5  T
     SCC iter.                  ...        0 min,  0.708 sec
     gradient                   ...        0 min,  0.362 sec
 * total energy  :  -539.1437081 Eh     change       -0.1231237E-01 Eh
   gradient norm :     0.0307543 Eh/α   predicted    -0.1174062E-01 (  -4.64%)
   displ. norm   :     0.8772894 α      lambda       -0.1232040E-01
   maximum displ.:     0.2274275 α      in ANC's #84, #83, #91, ...

........................................................................
.............................. CYCLE   12 ..............................
........................................................................
   1   -546.3840456 -0.546384E+03  0.851E-02    1.07       0.0  T
   2   -546.3840720 -0.264626E-04  0.474E-02    1.08       1.0  T
   3   -546.3839711  0.100993E-03  0.209E-02    1.08       1.0  T
   4   -546.3840869 -0.115832E-03  0.654E-03    1.08       1.0  T
   5   -546.3840884 -0.153502E-05  0.438E-03    1.08       1.3  T
   6   -546.3840919 -0.347022E-05  0.139E-03    1.08       4.0  T
   7   -546.3840921 -0.171458E-06  0.930E-04    1.08       6.0  T
   8   -546.3840921 -0.752784E-07  0.561E-04    1.08      10.0  T
     SCC iter.                  ...        0 min,  0.700 sec
     gradient                   ...        0 min,  0.361 sec
 * total energy  :  -539.1548625 Eh     change       -0.1115434E-01 Eh
   gradient norm :     0.0293736 Eh/α   predicted    -0.1090134E-01 (  -2.27%)
   displ. norm   :     0.8781351 α      lambda       -0.1154946E-01
   maximum displ.:     0.2267901 α      in ANC's #84, #83, #91, ...

........................................................................
.............................. CYCLE   13 ..............................
........................................................................
   1   -546.4057308 -0.546406E+03  0.831E-02    1.08       0.0  T
   2   -546.4057616 -0.308513E-04  0.462E-02    1.08       1.0  T
   3   -546.4056870  0.745883E-04  0.202E-02    1.08       1.0  T
   4   -546.4057726 -0.855278E-04  0.654E-03    1.08       1.0  T
   5   -546.4057746 -0.204860E-05  0.426E-03    1.08       1.3  T
   6   -546.4057772 -0.261732E-05  0.128E-03    1.08       4.4  T
   7   -546.4057773 -0.949495E-07  0.898E-04    1.08       6.2  T
   8   -546.4057774 -0.838484E-07  0.530E-04    1.08      10.5  T
     SCC iter.                  ...        0 min,  0.688 sec
     gradient                   ...        0 min,  0.361 sec
 * total energy  :  -539.1650548 Eh     change       -0.1019230E-01 Eh
   gradient norm :     0.0222810 Eh/α   predicted    -0.1022775E-01 (   0.35%)
   displ. norm   :     0.8999882 α      lambda       -0.1027531E-01
   maximum displ.:     0.2492778 α      in ANC's #84, #91, #83, ...

........................................................................
.............................. CYCLE   14 ..............................
........................................................................
   1   -546.4110408 -0.546411E+03  0.827E-02    1.08       0.0  T
   2   -546.4110978 -0.570268E-04  0.473E-02    1.08       1.0  T
   3   -546.4109550  0.142816E-03  0.259E-02    1.08       1.0  T
   4   -546.4111339 -0.178914E-03  0.675E-03    1.08       1.0  T
   5   -546.4111386 -0.472035E-05  0.447E-03    1.08       1.2  T
   6   -546.4111419 -0.329216E-05  0.155E-03    1.08       3.6  T
   7   -546.4111421 -0.140818E-06  0.106E-03    1.08       5.2  T
   8   -546.4111422 -0.136798E-06  0.588E-04    1.08       9.5  T
   9   -546.4111422 -0.118241E-07  0.350E-04    1.08      16.0  T
     SCC iter.                  ...        0 min,  0.770 sec
     gradient                   ...        0 min,  0.364 sec
 * total energy  :  -539.1742243 Eh     change       -0.9169522E-02 Eh
   gradient norm :     0.0197006 Eh/α   predicted    -0.9299055E-02 (   1.41%)
   displ. norm   :     0.8833885 α      lambda       -0.8965823E-02
   maximum displ.:     0.2266701 α      in ANC's #84, #91, #83, ...

........................................................................
.............................. CYCLE   15 ..............................
........................................................................
   1   -546.4320939 -0.546432E+03  0.771E-02    1.08       0.0  T
   2   -546.4321164 -0.225452E-04  0.429E-02    1.08       1.0  T
   3   -546.4320604  0.560476E-04  0.172E-02    1.08       1.0  T
   4   -546.4321242 -0.638061E-04  0.590E-03    1.08       1.0  T
   5   -546.4321259 -0.173045E-05  0.377E-03    1.08       1.5  T
   6   -546.4321278 -0.195217E-05  0.130E-03    1.08       4.3  T
   7   -546.4321280 -0.114647E-06  0.909E-04    1.08       6.1  T
   8   -546.4321280 -0.771591E-07  0.560E-04    1.08      10.0  T
     SCC iter.                  ...        0 min,  0.685 sec
     gradient                   ...        0 min,  0.362 sec
 * total energy  :  -539.1823191 Eh     change       -0.8094763E-02 Eh
   gradient norm :     0.0168002 Eh/α   predicted    -0.7981264E-02 (  -1.40%)
   displ. norm   :     0.9002687 α      lambda       -0.8133019E-02
   maximum displ.:     0.2305084 α      in ANC's #84, #91, #104, ...

........................................................................
.............................. CYCLE   16 ..............................
........................................................................
   1   -546.4431875 -0.546443E+03  0.812E-02    1.08       0.0  T
   2   -546.4432400 -0.525499E-04  0.464E-02    1.08       1.0  T
   3   -546.4431388  0.101226E-03  0.230E-02    1.08       1.0  T
   4   -546.4432661 -0.127247E-03  0.615E-03    1.08       1.0  T
   5   -546.4432687 -0.260544E-05  0.420E-03    1.08       1.3  T
   6   -546.4432718 -0.312282E-05  0.134E-03    1.08       4.2  T
   7   -546.4432719 -0.699782E-07  0.953E-04    1.08       5.9  T
   8   -546.4432720 -0.101051E-06  0.527E-04    1.08      10.6  T
     SCC iter.                  ...        0 min,  0.687 sec
     gradient                   ...        0 min,  0.361 sec
 * total energy  :  -539.1892697 Eh     change       -0.6950620E-02 Eh
   gradient norm :     0.0204365 Eh/α   predicted    -0.7362349E-02 (   5.92%)
   displ. norm   :     0.8775378 α      lambda       -0.7607757E-02
   maximum displ.:     0.2404346 α      in ANC's #91, #84, #104, ...

........................................................................
.............................. CYCLE   17 ..............................
........................................................................
   1   -546.4543518 -0.546454E+03  0.799E-02    1.07       0.0  T
   2   -546.4543754 -0.235732E-04  0.452E-02    1.08       1.0  T
   3   -546.4542982  0.772552E-04  0.182E-02    1.07       1.0  T
   4   -546.4543850 -0.868048E-04  0.593E-03    1.08       1.0  T
   5   -546.4543869 -0.194189E-05  0.406E-03    1.08       1.4  T
   6   -546.4543897 -0.283647E-05  0.134E-03    1.07       4.2  T
   7   -546.4543899 -0.144661E-06  0.903E-04    1.08       6.2  T
   8   -546.4543900 -0.802174E-07  0.547E-04    1.08      10.2  T
     SCC iter.                  ...        0 min,  0.691 sec
     gradient                   ...        0 min,  0.361 sec
 * total energy  :  -539.1956464 Eh     change       -0.6376741E-02 Eh
   gradient norm :     0.0198745 Eh/α   predicted    -0.6733138E-02 (   5.59%)
   displ. norm   :     0.8570457 α      lambda       -0.6550607E-02
   maximum displ.:     0.1894869 α      in ANC's #84, #91, #62, ...

........................................................................
.............................. CYCLE   18 ..............................
........................................................................
   1   -546.4690152 -0.546469E+03  0.753E-02    1.07       0.0  T
   2   -546.4690375 -0.222667E-04  0.418E-02    1.07       1.0  T
   3   -546.4689862  0.512908E-04  0.172E-02    1.07       1.0  T
   4   -546.4690446 -0.584710E-04  0.584E-03    1.07       1.0  T
   5   -546.4690458 -0.114036E-05  0.406E-03    1.07       1.4  T
   6   -546.4690481 -0.230521E-05  0.132E-03    1.07       4.2  T
   7   -546.4690482 -0.101021E-06  0.908E-04    1.07       6.2  T
   8   -546.4690482 -0.585499E-07  0.591E-04    1.07       9.5  T
     SCC iter.                  ...        0 min,  0.687 sec
     gradient                   ...        0 min,  0.362 sec
 * total energy  :  -539.2013038 Eh     change       -0.5657405E-02 Eh
   gradient norm :     0.0198781 Eh/α   predicted    -0.5681107E-02 (   0.42%)
   displ. norm   :     0.8736378 α      lambda       -0.6045234E-02
   maximum displ.:     0.2020297 α      in ANC's #91, #62, #84, ...

........................................................................
.............................. CYCLE   19 ..............................
........................................................................
   1   -546.4710997 -0.546471E+03  0.767E-02    1.06       0.0  T
   2   -546.4711142 -0.144758E-04  0.436E-02    1.06       1.0  T
   3   -546.4710605  0.536682E-04  0.163E-02    1.07       1.0  T
   4   -546.4711212 -0.606708E-04  0.512E-03    1.07       1.1  T
   5   -546.4711216 -0.396414E-06  0.343E-03    1.07       1.6  T
   6   -546.4711236 -0.196921E-05  0.108E-03    1.07       5.2  T
   7   -546.4711237 -0.130104E-06  0.686E-04    1.07       8.1  T
   8   -546.4711237 -0.256794E-07  0.405E-04    1.07      13.8  T
     SCC iter.                  ...        0 min,  0.688 sec
     gradient                   ...        0 min,  0.361 sec
 * total energy  :  -539.2067061 Eh     change       -0.5402320E-02 Eh
   gradient norm :     0.0175289 Eh/α   predicted    -0.5329606E-02 (  -1.35%)
   displ. norm   :     0.8688710 α      lambda       -0.5761734E-02
   maximum displ.:     0.2085887 α      in ANC's #62, #91, #59, ...

........................................................................
.............................. CYCLE   20 ..............................
........................................................................
   1   -546.4880343 -0.546488E+03  0.802E-02    1.06       0.0  T
   2   -546.4880603 -0.260471E-04  0.447E-02    1.06       1.0  T
   3   -546.4879586  0.101708E-03  0.230E-02    1.06       1.0  T
   4   -546.4880743 -0.115682E-03  0.647E-03    1.06       1.0  T
   5   -546.4880744 -0.818608E-07  0.467E-03    1.06       1.2  T
   6   -546.4880774 -0.305267E-05  0.152E-03    1.06       3.7  T
   7   -546.4880776 -0.128413E-06  0.103E-03    1.06       5.4  T
   8   -546.4880777 -0.967606E-07  0.657E-04    1.06       8.5  T
   9   -546.4880777 -0.126413E-07  0.385E-04    1.06      14.5  T
     SCC iter.                  ...        0 min,  0.787 sec
     gradient                   ...        0 min,  0.363 sec
 * total energy  :  -539.2116695 Eh     change       -0.4963346E-02 Eh
   gradient norm :     0.0185477 Eh/α   predicted    -0.5055734E-02 (   1.86%)
   displ. norm   :     0.8700680 α      lambda       -0.5665021E-02
   maximum displ.:     0.2107178 α      in ANC's #62, #43, #87, ...
 * RMSD in coord.:     0.7004097 α      energy gain  -0.8053090E+00 Eh

generating ANC from model Hessian ...
Using Lindh-Hessian (1995)
 Shifting diagonal of input Hessian by   1.066275049497083E-002
 Lowest  eigenvalues of input Hessian
    0.010000    0.010640    0.010660    0.000000    0.000000    0.000000
    0.000000    0.000000    0.000000    0.010672    0.010677    0.010681
    0.010681    0.010688    0.010693    0.010694    0.010701    0.010710
 Highest eigenvalues
    2.176839    2.179875    2.185696    2.235345    2.241713    2.249180
 

........................................................................
.............................. CYCLE   21 ..............................
........................................................................
   1   -546.4910693 -0.546491E+03  0.799E-02    1.05       0.0  T
   2   -546.4911107 -0.413720E-04  0.454E-02    1.06       1.0  T
   3   -546.4910158  0.949018E-04  0.218E-02    1.06       1.0  T
   4   -546.4911274 -0.111607E-03  0.643E-03    1.06       1.0  T
   5   -546.4911302 -0.276309E-05  0.453E-03    1.06       1.2  T
   6   -546.4911335 -0.330474E-05  0.136E-03    1.06       4.1  T
   7   -546.4911337 -0.169390E-06  0.847E-04    1.06       6.6  T
   8   -546.4911337 -0.898282E-07  0.475E-04    1.06      11.8  T
     SCC iter.                  ...        0 min,  0.700 sec
     gradient                   ...        0 min,  0.365 sec
 * total energy  :  -539.2164201 Eh     change       -0.4750597E-02 Eh
   gradient norm :     0.0177618 Eh/α   predicted     0.0000000E+00 (-100.00%)
   displ. norm   :     0.3528929 α      lambda       -0.2512133E-02
   maximum displ.:     0.0989155 α      in ANC's #57, #44, #1, ...

........................................................................
.............................. CYCLE   22 ..............................
........................................................................
   1   -546.4981436 -0.546498E+03  0.333E-02    1.06       0.0  T
   2   -546.4981484 -0.479614E-05  0.190E-02    1.06       1.0  T
   3   -546.4981301  0.182787E-04  0.925E-03    1.06       1.0  T
   4   -546.4981506 -0.204423E-04  0.260E-03    1.06       2.2  T
   5   -546.4981507 -0.162053E-06  0.175E-03    1.06       3.2  T
   6   -546.4981512 -0.431056E-06  0.714E-04    1.06       7.8  T
   7   -546.4981512 -0.425417E-07  0.442E-04    1.06      12.6  T
     SCC iter.                  ...        0 min,  0.604 sec
     gradient                   ...        0 min,  0.364 sec
 * total energy  :  -539.2187035 Eh     change       -0.2283386E-02 Eh
   gradient norm :     0.0094431 Eh/α   predicted    -0.1415529E-02 ( -38.01%)
   displ. norm   :     0.8314406 α      lambda       -0.4925289E-02
   maximum displ.:     0.2302242 α      in ANC's #57, #44, #82, ...

........................................................................
.............................. CYCLE   23 ..............................
........................................................................
   1   -546.5028781 -0.546503E+03  0.719E-02    1.05       0.0  T
   2   -546.5028971 -0.190505E-04  0.405E-02    1.05       1.0  T
   3   -546.5028370  0.601374E-04  0.166E-02    1.05       1.0  T
   4   -546.5029028 -0.658354E-04  0.575E-03    1.05       1.0  T
   5   -546.5029052 -0.238132E-05  0.334E-03    1.05       1.7  T
   6   -546.5029069 -0.171031E-05  0.134E-03    1.05       4.2  T
   7   -546.5029071 -0.159656E-06  0.800E-04    1.05       7.0  T
   8   -546.5029071 -0.364804E-07  0.526E-04    1.05      10.6  T
     SCC iter.                  ...        0 min,  0.684 sec
     gradient                   ...        0 min,  0.362 sec
 * total energy  :  -539.2231084 Eh     change       -0.4404922E-02 Eh
   gradient norm :     0.0125643 Eh/α   predicted    -0.4166401E-02 (  -5.41%)
   displ. norm   :     0.8753237 α      lambda       -0.4508354E-02
   maximum displ.:     0.2379664 α      in ANC's #57, #44, #82, ...

........................................................................
.............................. CYCLE   24 ..............................
........................................................................
   1   -546.5000907 -0.546500E+03  0.750E-02    1.05       0.0  T
   2   -546.5001075 -0.167977E-04  0.422E-02    1.05       1.0  T
   3   -546.5000274  0.800990E-04  0.190E-02    1.05       1.0  T
   4   -546.5001161 -0.887740E-04  0.566E-03    1.05       1.0  T
   5   -546.5001173 -0.110499E-05  0.334E-03    1.05       1.7  T
   6   -546.5001190 -0.172178E-05  0.129E-03    1.05       4.3  T
   7   -546.5001191 -0.165649E-06  0.763E-04    1.05       7.3  T
   8   -546.5001192 -0.292343E-07  0.504E-04    1.05      11.1  T
     SCC iter.                  ...        0 min,  0.688 sec
     gradient                   ...        0 min,  0.363 sec
 * total energy  :  -539.2272635 Eh     change       -0.4155066E-02 Eh
   gradient norm :     0.0199970 Eh/α   predicted    -0.3981311E-02 (  -4.18%)
   displ. norm   :     0.8643230 α      lambda       -0.4459238E-02
   maximum displ.:     0.2308794 α      in ANC's #57, #44, #82, ...

........................................................................
.............................. CYCLE   25 ..............................
........................................................................
   1   -546.5003786 -0.546500E+03  0.727E-02    1.04       0.0  T
   2   -546.5003942 -0.156736E-04  0.407E-02    1.05       1.0  T
   3   -546.5003092  0.850839E-04  0.190E-02    1.04       1.0  T
   4   -546.5004040 -0.948414E-04  0.561E-03    1.05       1.0  T
   5   -546.5004050 -0.986349E-06  0.353E-03    1.05       1.6  T
   6   -546.5004071 -0.209631E-05  0.120E-03    1.05       4.6  T
   7   -546.5004072 -0.138287E-06  0.736E-04    1.05       7.6  T
   8   -546.5004073 -0.379041E-07  0.441E-04    1.05      12.7  T
     SCC iter.                  ...        0 min,  0.710 sec
     gradient                   ...        0 min,  0.364 sec
 * total energy  :  -539.2313683 Eh     change       -0.4104847E-02 Eh
   gradient norm :     0.0207633 Eh/α   predicted    -0.3895269E-02 (  -5.11%)
   displ. norm   :     0.8185527 α      lambda       -0.4486532E-02
   maximum displ.:     0.2129121 α      in ANC's #57, #44, #82, ...

........................................................................
.............................. CYCLE   26 ..............................
........................................................................
   1   -546.5124443 -0.546512E+03  0.710E-02    1.04       0.0  T
   2   -546.5124683 -0.240427E-04  0.403E-02    1.04       1.0  T
   3   -546.5123519  0.116364E-03  0.219E-02    1.04       1.0  T
   4   -546.5124843 -0.132328E-03  0.579E-03    1.04       1.0  T
   5   -546.5124862 -0.191702E-05  0.397E-03    1.04       1.4  T
   6   -546.5124887 -0.250435E-05  0.128E-03    1.04       4.4  T
   7   -546.5124889 -0.172757E-06  0.774E-04    1.04       7.2  T
   8   -546.5124889 -0.638904E-07  0.446E-04    1.04      12.5  T
     SCC iter.                  ...        0 min,  0.699 sec
     gradient                   ...        0 min,  0.362 sec
 * total energy  :  -539.2353096 Eh     change       -0.3941305E-02 Eh
   gradient norm :     0.0140250 Eh/α   predicted    -0.3746381E-02 (  -4.95%)
   displ. norm   :     0.8673747 α      lambda       -0.3934194E-02
   maximum displ.:     0.2258748 α      in ANC's #44, #57, #81, ...

........................................................................
.............................. CYCLE   27 ..............................
........................................................................
   1   -546.5140553 -0.546514E+03  0.716E-02    1.03       0.0  T
   2   -546.5140812 -0.258846E-04  0.406E-02    1.04       1.0  T
   3   -546.5139586  0.122543E-03  0.224E-02    1.04       1.0  T
   4   -546.5140985 -0.139886E-03  0.589E-03    1.04       1.0  T
   5   -546.5141007 -0.217301E-05  0.408E-03    1.04       1.4  T
   6   -546.5141033 -0.263234E-05  0.128E-03    1.04       4.4  T
   7   -546.5141035 -0.204298E-06  0.753E-04    1.04       7.4  T
   8   -546.5141036 -0.658565E-07  0.426E-04    1.04      13.1  T
     SCC iter.                  ...        0 min,  0.713 sec
     gradient                   ...        0 min,  0.375 sec
 * total energy  :  -539.2387985 Eh     change       -0.3488934E-02 Eh
   gradient norm :     0.0160932 Eh/α   predicted    -0.3447029E-02 (  -1.20%)
   displ. norm   :     0.8150747 α      lambda       -0.3828636E-02
   maximum displ.:     0.2232929 α      in ANC's #44, #57, #81, ...

........................................................................
.............................. CYCLE   28 ..............................
........................................................................
   1   -546.5332210 -0.546533E+03  0.701E-02    1.03       0.0  T
   2   -546.5332587 -0.377153E-04  0.401E-02    1.04       1.0  T
   3   -546.5331258  0.132882E-03  0.239E-02    1.03       1.0  T
   4   -546.5332822 -0.156389E-03  0.633E-03    1.04       1.0  T
   5   -546.5332866 -0.439001E-05  0.431E-03    1.04       1.3  T
   6   -546.5332896 -0.297948E-05  0.139E-03    1.04       4.0  T
   7   -546.5332898 -0.230368E-06  0.825E-04    1.04       6.8  T
   8   -546.5332899 -0.920983E-07  0.443E-04    1.04      12.6  T
     SCC iter.                  ...        0 min,  0.691 sec
     gradient                   ...        0 min,  0.367 sec
 * total energy  :  -539.2419573 Eh     change       -0.3158795E-02 Eh
   gradient norm :     0.0147061 Eh/α   predicted    -0.3186091E-02 (   0.86%)
   displ. norm   :     0.8722884 α      lambda       -0.3357452E-02
   maximum displ.:     0.2429441 α      in ANC's #44, #57, #81, ...

........................................................................
.............................. CYCLE   29 ..............................
........................................................................
   1   -546.5217586 -0.546522E+03  0.716E-02    1.03       0.0  T
   2   -546.5217774 -0.187562E-04  0.407E-02    1.03       1.0  T
   3   -546.5216885  0.888241E-04  0.191E-02    1.03       1.0  T
   4   -546.5217870 -0.984858E-04  0.542E-03    1.03       1.0  T
   5   -546.5217889 -0.183338E-05  0.345E-03    1.03       1.6  T
   6   -546.5217907 -0.182831E-05  0.122E-03    1.03       4.6  T
   7   -546.5217909 -0.187137E-06  0.701E-04    1.03       8.0  T
   8   -546.5217909 -0.383832E-07  0.440E-04    1.03      12.7  T
     SCC iter.                  ...        0 min,  0.692 sec
     gradient                   ...        0 min,  0.364 sec
 * total energy  :  -539.2448046 Eh     change       -0.2847225E-02 Eh
   gradient norm :     0.0181335 Eh/α   predicted    -0.2956077E-02 (   3.82%)
   displ. norm   :     0.7800326 α      lambda       -0.3053982E-02
   maximum displ.:     0.2404505 α      in ANC's #44, #57, #81, ...

........................................................................
.............................. CYCLE   30 ..............................
........................................................................
   1   -546.5354095 -0.546535E+03  0.615E-02    1.02       0.0  T
   2   -546.5354255 -0.160485E-04  0.348E-02    1.03       1.0  T
   3   -546.5353499  0.756436E-04  0.180E-02    1.03       1.0  T
   4   -546.5354350 -0.851639E-04  0.492E-03    1.03       1.1  T
   5   -546.5354361 -0.102001E-05  0.334E-03    1.03       1.7  T
   6   -546.5354379 -0.181337E-05  0.110E-03    1.03       5.1  T
   7   -546.5354380 -0.134248E-06  0.670E-04    1.03       8.3  T
   8   -546.5354380 -0.357352E-07  0.408E-04    1.03      13.7  T
     SCC iter.                  ...        0 min,  0.688 sec
     gradient                   ...        0 min,  0.362 sec
 * total energy  :  -539.2473913 Eh     change       -0.2586777E-02 Eh
   gradient norm :     0.0154139 Eh/α   predicted    -0.2456109E-02 (  -5.05%)
   displ. norm   :     0.8109917 α      lambda       -0.3090174E-02
   maximum displ.:     0.2414026 α      in ANC's #44, #57, #49, ...

........................................................................
.............................. CYCLE   31 ..............................
........................................................................
   1   -546.5362804 -0.546536E+03  0.650E-02    1.02       0.0  T
   2   -546.5363022 -0.217880E-04  0.368E-02    1.02       1.0  T
   3   -546.5362573  0.448839E-04  0.144E-02    1.02       1.0  T
   4   -546.5363050 -0.477293E-04  0.550E-03    1.02       1.0  T
   5   -546.5363090 -0.394387E-05  0.281E-03    1.02       2.0  T
   6   -546.5363100 -0.964985E-06  0.124E-03    1.02       4.5  T
   7   -546.5363102 -0.221640E-06  0.643E-04    1.02       8.7  T
   8   -546.5363102 -0.160416E-07  0.427E-04    1.02      13.1  T
     SCC iter.                  ...        0 min,  0.684 sec
     gradient                   ...        0 min,  0.363 sec
 * total energy  :  -539.2497591 Eh     change       -0.2367739E-02 Eh
   gradient norm :     0.0161171 Eh/α   predicted    -0.2561307E-02 (   8.18%)
   displ. norm   :     0.7562046 α      lambda       -0.2619143E-02
   maximum displ.:     0.2400453 α      in ANC's #44, #28, #57, ...

........................................................................
.............................. CYCLE   32 ..............................
........................................................................
   1   -546.5493108 -0.546549E+03  0.600E-02    1.02       0.0  T
   2   -546.5493242 -0.133683E-04  0.343E-02    1.02       1.0  T
   3   -546.5492750  0.492116E-04  0.144E-02    1.02       1.0  T
   4   -546.5493292 -0.542119E-04  0.468E-03    1.02       1.2  T
   5   -546.5493308 -0.160976E-05  0.288E-03    1.02       1.9  T
   6   -546.5493322 -0.140992E-05  0.105E-03    1.02       5.3  T
   7   -546.5493323 -0.979230E-07  0.622E-04    1.02       9.0  T
   8   -546.5493323 -0.196530E-07  0.393E-04    1.02      14.2  T
     SCC iter.                  ...        0 min,  0.681 sec
     gradient                   ...        0 min,  0.363 sec
 * total energy  :  -539.2519081 Eh     change       -0.2149032E-02 Eh
   gradient norm :     0.0135327 Eh/α   predicted    -0.2058446E-02 (  -4.22%)
   displ. norm   :     0.8207148 α      lambda       -0.2579507E-02
   maximum displ.:     0.2660432 α      in ANC's #44, #28, #57, ...

........................................................................
.............................. CYCLE   33 ..............................
........................................................................
   1   -546.5476939 -0.546548E+03  0.629E-02    1.01       0.0  T
   2   -546.5477123 -0.184204E-04  0.356E-02    1.02       1.0  T
   3   -546.5476522  0.600605E-04  0.167E-02    1.02       1.0  T
   4   -546.5477187 -0.664501E-04  0.506E-03    1.02       1.1  T
   5   -546.5477207 -0.205982E-05  0.278E-03    1.02       2.0  T
   6   -546.5477218 -0.104861E-05  0.113E-03    1.02       5.0  T
   7   -546.5477220 -0.188400E-06  0.588E-04    1.02       9.5  T
   8   -546.5477220 -0.245061E-07  0.391E-04    1.02      14.3  T
     SCC iter.                  ...        0 min,  0.691 sec
     gradient                   ...        0 min,  0.365 sec
 * total energy  :  -539.2538741 Eh     change       -0.1965933E-02 Eh
   gradient norm :     0.0127991 Eh/α   predicted    -0.2158503E-02 (   9.80%)
   displ. norm   :     0.7687657 α      lambda       -0.2146519E-02
   maximum displ.:     0.2546348 α      in ANC's #44, #28, #6, ...

........................................................................
.............................. CYCLE   34 ..............................
........................................................................
   1   -546.5495821 -0.546550E+03  0.585E-02    1.01       0.0  T
   2   -546.5495926 -0.104600E-04  0.333E-02    1.02       1.0  T
   3   -546.5495450  0.475758E-04  0.143E-02    1.02       1.0  T
   4   -546.5495978 -0.528119E-04  0.424E-03    1.02       1.3  T
   5   -546.5495983 -0.479382E-06  0.270E-03    1.02       2.1  T
   6   -546.5495997 -0.135393E-05  0.933E-04    1.02       6.0  T
   7   -546.5495998 -0.923861E-07  0.559E-04    1.02      10.0  T
   8   -546.5495998 -0.191255E-07  0.348E-04    1.02      16.1  T
     SCC iter.                  ...        0 min,  0.685 sec
     gradient                   ...        0 min,  0.362 sec
 * total energy  :  -539.2556544 Eh     change       -0.1780308E-02 Eh
   gradient norm :     0.0110241 Eh/α   predicted    -0.1707561E-02 (  -4.09%)
   displ. norm   :     0.7977828 α      lambda       -0.2165650E-02
   maximum displ.:     0.2689103 α      in ANC's #44, #28, #6, ...

........................................................................
.............................. CYCLE   35 ..............................
........................................................................
   1   -546.5605818 -0.546561E+03  0.633E-02    1.01       0.0  T
   2   -546.5605957 -0.139731E-04  0.366E-02    1.02       1.0  T
   3   -546.5605479  0.478176E-04  0.143E-02    1.01       1.0  T
   4   -546.5606008 -0.528490E-04  0.505E-03    1.02       1.1  T
   5   -546.5606024 -0.167749E-05  0.304E-03    1.02       1.8  T
   6   -546.5606039 -0.148754E-05  0.127E-03    1.02       4.4  T
   7   -546.5606041 -0.169432E-06  0.718E-04    1.02       7.8  T
   8   -546.5606041 -0.130447E-07  0.467E-04    1.02      12.0  T
     SCC iter.                  ...        0 min,  0.682 sec
     gradient                   ...        0 min,  0.361 sec
 * total energy  :  -539.2572379 Eh     change       -0.1583503E-02 Eh
   gradient norm :     0.0156215 Eh/α   predicted    -0.1771998E-02 (  11.90%)
   displ. norm   :     0.8011099 α      lambda       -0.2149016E-02
   maximum displ.:     0.2617446 α      in ANC's #44, #28, #6, ...

........................................................................
.............................. CYCLE   36 ..............................
........................................................................
   1   -546.5439495 -0.546544E+03  0.616E-02    1.01       0.0  T
   2   -546.5439687 -0.192181E-04  0.351E-02    1.01       1.0  T
   3   -546.5439369  0.317553E-04  0.130E-02    1.01       1.0  T
   4   -546.5439707 -0.337651E-04  0.504E-03    1.01       1.1  T
   5   -546.5439740 -0.331820E-05  0.252E-03    1.01       2.2  T
   6   -546.5439747 -0.665428E-06  0.114E-03    1.01       4.9  T
   7   -546.5439749 -0.194101E-06  0.603E-04    1.01       9.3  T
   8   -546.5439749 -0.200151E-07  0.403E-04    1.01      13.9  T
     SCC iter.                  ...        0 min,  0.686 sec
     gradient                   ...        0 min,  0.362 sec
 * total energy  :  -539.2585495 Eh     change       -0.1311668E-02 Eh
   gradient norm :     0.0193633 Eh/α   predicted    -0.1764105E-02 (  34.49%)
   displ. norm   :     0.6133468 α      lambda       -0.2284357E-02
   maximum displ.:     0.1842712 α      in ANC's #44, #28, #6, ...

........................................................................
.............................. CYCLE   37 ..............................
........................................................................
   1   -546.5630930 -0.546563E+03  0.553E-02    1.01       0.0  T
   2   -546.5631138 -0.207978E-04  0.323E-02    1.01       1.0  T
   3   -546.5630547  0.590714E-04  0.164E-02    1.01       1.0  T
   4   -546.5631214 -0.667187E-04  0.525E-03    1.01       1.1  T
   5   -546.5631238 -0.243416E-05  0.295E-03    1.01       1.9  T
   6   -546.5631250 -0.112046E-05  0.132E-03    1.01       4.2  T
   7   -546.5631251 -0.164637E-06  0.665E-04    1.01       8.4  T
   8   -546.5631252 -0.340086E-07  0.435E-04    1.01      12.9  T
     SCC iter.                  ...        0 min,  0.697 sec
     gradient                   ...        0 min,  0.364 sec
 * total energy  :  -539.2595791 Eh     change       -0.1029615E-02 Eh
   gradient norm :     0.0232465 Eh/α   predicted    -0.1571862E-02 (  52.67%)
   displ. norm   :     0.5774913 α      lambda       -0.2485983E-02
   maximum displ.:     0.1926669 α      in ANC's #44, #28, #6, ...

........................................................................
.............................. CYCLE   38 ..............................
........................................................................
   1   -546.5545699 -0.546555E+03  0.519E-02    1.01       0.0  T
   2   -546.5545953 -0.253713E-04  0.295E-02    1.01       1.0  T
   3   -546.5545622  0.331488E-04  0.137E-02    1.01       1.0  T
   4   -546.5545982 -0.360323E-04  0.487E-03    1.01       1.1  T
   5   -546.5546009 -0.270278E-05  0.258E-03    1.01       2.2  T
   6   -546.5546015 -0.624596E-06  0.119E-03    1.01       4.7  T
   7   -546.5546018 -0.255864E-06  0.553E-04    1.01      10.1  T
   8   -546.5546018 -0.143008E-07  0.360E-04    1.01      15.5  T
     SCC iter.                  ...        0 min,  0.686 sec
     gradient                   ...        0 min,  0.365 sec
 * total energy  :  -539.2605997 Eh     change       -0.1020539E-02 Eh
   gradient norm :     0.0225329 Eh/α   predicted    -0.1657529E-02 (  62.42%)
   displ. norm   :     0.5105888 α      lambda       -0.2446384E-02
   maximum displ.:     0.1650458 α      in ANC's #44, #6, #28, ...

........................................................................
.............................. CYCLE   39 ..............................
........................................................................
   1   -546.5564153 -0.546556E+03  0.608E-02    1.01       0.0  T
   2   -546.5564416 -0.262436E-04  0.366E-02    1.01       1.0  T
   3   -546.5563691  0.724801E-04  0.183E-02    1.01       1.0  T
   4   -546.5564531 -0.839802E-04  0.618E-03    1.01       1.0  T
   5   -546.5564551 -0.201850E-05  0.396E-03    1.01       1.4  T
   6   -546.5564574 -0.230295E-05  0.181E-03    1.01       3.1  T
   7   -546.5564577 -0.311708E-06  0.910E-04    1.01       6.1  T
   8   -546.5564578 -0.257136E-07  0.619E-04    1.01       9.0  T
     SCC iter.                  ...        0 min,  0.686 sec
     gradient                   ...        0 min,  0.362 sec
 * total energy  :  -539.2614529 Eh     change       -0.8532491E-03 Eh
   gradient norm :     0.0229439 Eh/α   predicted    -0.1542081E-02 (  80.73%)
   displ. norm   :     0.5099142 α      lambda       -0.2225323E-02
   maximum displ.:     0.1493705 α      in ANC's #44, #28, #6, ...

........................................................................
.............................. CYCLE   40 ..............................
........................................................................
   1   -546.5510133 -0.546551E+03  0.456E-02    1.01       0.0  T
   2   -546.5510315 -0.182233E-04  0.258E-02    1.01       1.0  T
   3   -546.5510185  0.130307E-04  0.954E-03    1.01       1.0  T
   4   -546.5510331 -0.145952E-04  0.401E-03    1.01       1.4  T
   5   -546.5510350 -0.187713E-05  0.228E-03    1.01       2.5  T
   6   -546.5510354 -0.463266E-06  0.944E-04    1.01       5.9  T
   7   -546.5510356 -0.122693E-06  0.502E-04    1.01      11.1  T
     SCC iter.                  ...        0 min,  0.636 sec
     gradient                   ...        0 min,  0.367 sec
 * total energy  :  -539.2624961 Eh     change       -0.1043121E-02 Eh
   gradient norm :     0.0196328 Eh/α   predicted    -0.1401980E-02 (  34.40%)
   displ. norm   :     0.5023907 α      lambda       -0.2135311E-02
   maximum displ.:     0.1609349 α      in ANC's #6, #28, #44, ...

........................................................................
.............................. CYCLE   41 ..............................
........................................................................
   1   -546.5599930 -0.546560E+03  0.558E-02    1.01       0.0  T
   2   -546.5600275 -0.344648E-04  0.323E-02    1.01       1.0  T
   3   -546.5599819  0.456120E-04  0.157E-02    1.01       1.0  T
   4   -546.5600346 -0.527158E-04  0.594E-03    1.01       1.0  T
   5   -546.5600379 -0.328950E-05  0.326E-03    1.01       1.7  T
   6   -546.5600388 -0.910499E-06  0.173E-03    1.01       3.2  T
   7   -546.5600392 -0.381587E-06  0.737E-04    1.01       7.6  T
   8   -546.5600392 -0.237694E-07  0.487E-04    1.01      11.5  T
     SCC iter.                  ...        0 min,  0.708 sec
     gradient                   ...        0 min,  0.368 sec
 * total energy  :  -539.2626525 Eh     change       -0.1564891E-03 Eh
   gradient norm :     0.0303583 Eh/α   predicted    -0.1337133E-02 ( 754.46%)
   displ. norm   :     0.3636004 α      lambda       -0.2805511E-02
   maximum displ.:     0.1202600 α      in ANC's #44, #6, #28, ...

........................................................................
.............................. CYCLE   42 ..............................
........................................................................
   1   -546.5623136 -0.546562E+03  0.396E-02    1.01       0.0  T
   2   -546.5623360 -0.223616E-04  0.227E-02    1.01       1.0  T
   3   -546.5623236  0.123846E-04  0.962E-03    1.01       1.0  T
   4   -546.5623373 -0.136898E-04  0.410E-03    1.01       1.4  T
   5   -546.5623396 -0.231829E-05  0.231E-03    1.01       2.4  T
   6   -546.5623402 -0.592269E-06  0.949E-04    1.01       5.9  T
   7   -546.5623403 -0.102472E-06  0.486E-04    1.01      11.5  T
     SCC iter.                  ...        0 min,  0.611 sec
     gradient                   ...        0 min,  0.365 sec
 * total energy  :  -539.2640216 Eh     change       -0.1369104E-02 Eh
   gradient norm :     0.0175068 Eh/α   predicted    -0.1588209E-02 (  16.00%)
   displ. norm   :     0.5478126 α      lambda       -0.1920359E-02
   maximum displ.:     0.1679396 α      in ANC's #6, #44, #28, ...
 * RMSD in coord.:     0.7614485 α      energy gain  -0.5235215E-01 Eh

generating ANC from model Hessian ...
Using Lindh-Hessian (1995)
 Shifting diagonal of input Hessian by   1.033327882241617E-002
 Lowest  eigenvalues of input Hessian
    0.010000    0.010305    0.010329    0.000000    0.000000    0.000000
    0.000000    0.000000    0.000000    0.010342    0.010345    0.010349
    0.010355    0.010361    0.010369    0.010371    0.010373    0.010378
 Highest eigenvalues
    2.178241    2.179990    2.185978    2.235608    2.243096    2.252527
 

........................................................................
.............................. CYCLE   43 ..............................
........................................................................
   1   -546.5538772 -0.546554E+03  0.587E-02    1.01       0.0  T
   2   -546.5539054 -0.282352E-04  0.344E-02    1.01       1.0  T
   3   -546.5538389  0.664729E-04  0.184E-02    1.01       1.0  T
   4   -546.5539161 -0.771354E-04  0.622E-03    1.01       1.0  T
   5   -546.5539180 -0.196587E-05  0.406E-03    1.01       1.4  T
   6   -546.5539203 -0.223602E-05  0.174E-03    1.01       3.2  T
   7   -546.5539206 -0.302025E-06  0.890E-04    1.01       6.3  T
   8   -546.5539206 -0.318968E-07  0.592E-04    1.01       9.4  T
     SCC iter.                  ...        0 min,  0.690 sec
     gradient                   ...        0 min,  0.363 sec
 * total energy  :  -539.2643397 Eh     change       -0.3180645E-03 Eh
   gradient norm :     0.0239394 Eh/α   predicted     0.0000000E+00 (-100.00%)
   displ. norm   :     0.1809418 α      lambda       -0.1784241E-02
   maximum displ.:     0.0405875 α      in ANC's #5, #30, #27, ...

........................................................................
.............................. CYCLE   44 ..............................
........................................................................
   1   -546.5633458 -0.546563E+03  0.359E-02    1.01       0.0  T
   2   -546.5633559 -0.100897E-04  0.207E-02    1.01       1.0  T
   3   -546.5633323  0.235819E-04  0.111E-02    1.01       1.0  T
   4   -546.5633594 -0.271050E-04  0.363E-03    1.01       1.5  T
   5   -546.5633600 -0.652623E-06  0.236E-03    1.01       2.4  T
   6   -546.5633606 -0.543707E-06  0.104E-03    1.01       5.4  T
   7   -546.5633607 -0.132212E-06  0.515E-04    1.01      10.9  T
   8   -546.5633607 -0.922341E-08  0.340E-04    1.01      16.4  T
     SCC iter.                  ...        0 min,  0.688 sec
     gradient                   ...        0 min,  0.363 sec
 * total energy  :  -539.2654109 Eh     change       -0.1071193E-02 Eh
   gradient norm :     0.0063212 Eh/α   predicted    -0.9213409E-03 ( -13.99%)
   displ. norm   :     0.2392053 α      lambda       -0.6730708E-03
   maximum displ.:     0.0647794 α      in ANC's #5, #30, #27, ...

........................................................................
.............................. CYCLE   45 ..............................
........................................................................
   1   -546.5682255 -0.546568E+03  0.215E-02    1.01       0.0  T
   2   -546.5682285 -0.304334E-05  0.121E-02    1.01       1.0  T
   3   -546.5682212  0.732490E-05  0.611E-03    1.01       1.0  T
   4   -546.5682298 -0.862847E-05  0.196E-03    1.01       2.8  T
   5   -546.5682299 -0.377147E-07  0.144E-03    1.01       3.9  T
   6   -546.5682301 -0.246934E-06  0.511E-04    1.01      10.9  T
   7   -546.5682301 -0.368852E-07  0.271E-04    1.01      20.6  T
     SCC iter.                  ...        0 min,  0.604 sec
     gradient                   ...        0 min,  0.369 sec
 * total energy  :  -539.2658803 Eh     change       -0.4694159E-03 Eh
   gradient norm :     0.0063055 Eh/α   predicted    -0.3566079E-03 ( -24.03%)
   displ. norm   :     0.4524837 α      lambda       -0.8290194E-03
   maximum displ.:     0.1273762 α      in ANC's #5, #30, #27, ...

........................................................................
.............................. CYCLE   46 ..............................
........................................................................
   1   -546.5697610 -0.546570E+03  0.293E-02    1.01       0.0  T
   2   -546.5697638 -0.281707E-05  0.165E-02    1.01       1.0  T
   3   -546.5697559  0.791857E-05  0.644E-03    1.01       1.0  T
   4   -546.5697648 -0.886921E-05  0.225E-03    1.01       2.5  T
   5   -546.5697651 -0.278358E-06  0.120E-03    1.01       4.6  T
   6   -546.5697653 -0.228437E-06  0.451E-04    1.01      12.4  T
   7   -546.5697653 -0.336391E-07  0.247E-04    1.01      22.6  T
     SCC iter.                  ...        0 min,  0.603 sec
     gradient                   ...        0 min,  0.362 sec
 * total energy  :  -539.2666262 Eh     change       -0.7458749E-03 Eh
   gradient norm :     0.0118115 Eh/α   predicted    -0.4993981E-03 ( -33.05%)
   displ. norm   :     0.8047472 α      lambda       -0.1493609E-02
   maximum displ.:     0.2231534 α      in ANC's #5, #30, #27, ...

........................................................................
.............................. CYCLE   47 ..............................
........................................................................
   1   -546.5646852 -0.546565E+03  0.506E-02    1.01       0.0  T
   2   -546.5646936 -0.837352E-05  0.283E-02    1.01       1.0  T
   3   -546.5646735  0.200643E-04  0.107E-02    1.01       1.0  T
   4   -546.5646954 -0.218670E-04  0.397E-03    1.01       1.4  T
   5   -546.5646967 -0.126330E-05  0.196E-03    1.01       2.8  T
   6   -546.5646972 -0.514268E-06  0.828E-04    1.01       6.7  T
   7   -546.5646973 -0.136645E-06  0.448E-04    1.01      12.5  T
     SCC iter.                  ...        0 min,  0.597 sec
     gradient                   ...        0 min,  0.364 sec
 * total energy  :  -539.2679717 Eh     change       -0.1345462E-02 Eh
   gradient norm :     0.0134110 Eh/α   predicted    -0.1230500E-02 (  -8.54%)
   displ. norm   :     0.8020105 α      lambda       -0.1493089E-02
   maximum displ.:     0.2294319 α      in ANC's #5, #30, #27, ...

........................................................................
.............................. CYCLE   48 ..............................
........................................................................
   1   -546.5587927 -0.546559E+03  0.496E-02    1.01       0.0  T
   2   -546.5588005 -0.785521E-05  0.278E-02    1.01       1.0  T
   3   -546.5587780  0.225428E-04  0.110E-02    1.01       1.0  T
   4   -546.5588029 -0.249136E-04  0.372E-03    1.01       1.5  T
   5   -546.5588037 -0.774769E-06  0.198E-03    1.01       2.8  T
   6   -546.5588043 -0.585567E-06  0.787E-04    1.01       7.1  T
   7   -546.5588044 -0.111035E-06  0.432E-04    1.01      12.9  T
     SCC iter.                  ...        0 min,  0.598 sec
     gradient                   ...        0 min,  0.363 sec
 * total energy  :  -539.2692444 Eh     change       -0.1272746E-02 Eh
   gradient norm :     0.0123323 Eh/α   predicted    -0.1226746E-02 (  -3.61%)
   displ. norm   :     0.7112031 α      lambda       -0.1352204E-02
   maximum displ.:     0.2162931 α      in ANC's #5, #30, #27, ...

........................................................................
.............................. CYCLE   49 ..............................
........................................................................
   1   -546.5601409 -0.546560E+03  0.433E-02    1.01       0.0  T
   2   -546.5601476 -0.666748E-05  0.243E-02    1.01       1.0  T
   3   -546.5601248  0.227979E-04  0.105E-02    1.01       1.0  T
   4   -546.5601503 -0.254436E-04  0.320E-03    1.01       1.7  T
   5   -546.5601506 -0.344716E-06  0.202E-03    1.01       2.8  T
   6   -546.5601513 -0.691447E-06  0.659E-04    1.01       8.5  T
   7   -546.5601514 -0.622184E-07  0.368E-04    1.01      15.2  T
     SCC iter.                  ...        0 min,  0.612 sec
     gradient                   ...        0 min,  0.365 sec
 * total energy  :  -539.2703724 Eh     change       -0.1128040E-02 Eh
   gradient norm :     0.0107995 Eh/α   predicted    -0.1018083E-02 (  -9.75%)
   displ. norm   :     0.7846586 α      lambda       -0.1291959E-02
   maximum displ.:     0.2434872 α      in ANC's #5, #30, #27, ...

........................................................................
.............................. CYCLE   50 ..............................
........................................................................
   1   -546.5619774 -0.546562E+03  0.464E-02    1.01       0.0  T
   2   -546.5619835 -0.607995E-05  0.259E-02    1.01       1.0  T
   3   -546.5619580  0.254705E-04  0.113E-02    1.01       1.0  T
   4   -546.5619863 -0.282997E-04  0.337E-03    1.01       1.7  T
   5   -546.5619866 -0.311006E-06  0.208E-03    1.01       2.7  T
   6   -546.5619874 -0.778421E-06  0.607E-04    1.01       9.2  T
   7   -546.5619875 -0.573322E-07  0.330E-04    1.01      17.0  T
     SCC iter.                  ...        0 min,  0.603 sec
     gradient                   ...        0 min,  0.365 sec
 * total energy  :  -539.2715519 Eh     change       -0.1179507E-02 Eh
   gradient norm :     0.0110480 Eh/α   predicted    -0.1043707E-02 ( -11.51%)
   displ. norm   :     0.7469364 α      lambda       -0.1597480E-02
   maximum displ.:     0.2461701 α      in ANC's #5, #30, #16, ...

........................................................................
.............................. CYCLE   51 ..............................
........................................................................
   1   -546.5816452 -0.546582E+03  0.484E-02    1.01       0.0  T
   2   -546.5816591 -0.139317E-04  0.267E-02    1.01       1.0  T
   3   -546.5816336  0.255486E-04  0.119E-02    1.01       1.0  T
   4   -546.5816615 -0.279472E-04  0.425E-03    1.01       1.3  T
   5   -546.5816637 -0.221861E-05  0.230E-03    1.01       2.4  T
   6   -546.5816645 -0.753688E-06  0.813E-04    1.01       6.9  T
   7   -546.5816646 -0.902714E-07  0.391E-04    1.01      14.3  T
     SCC iter.                  ...        0 min,  0.606 sec
     gradient                   ...        0 min,  0.364 sec
 * total energy  :  -539.2726766 Eh     change       -0.1124614E-02 Eh
   gradient norm :     0.0117137 Eh/α   predicted    -0.1244371E-02 (  10.65%)
   displ. norm   :     0.8389394 α      lambda       -0.1485622E-02
   maximum displ.:     0.2607003 α      in ANC's #5, #30, #16, ...

........................................................................
.............................. CYCLE   52 ..............................
........................................................................
   1   -546.5724219 -0.546572E+03  0.514E-02    1.01       0.0  T
   2   -546.5724320 -0.100514E-04  0.287E-02    1.01       1.0  T
   3   -546.5724155  0.165104E-04  0.997E-03    1.01       1.0  T
   4   -546.5724332 -0.177497E-04  0.389E-03    1.01       1.4  T
   5   -546.5724347 -0.141444E-05  0.202E-03    1.01       2.8  T
   6   -546.5724352 -0.521286E-06  0.786E-04    1.01       7.1  T
   7   -546.5724353 -0.132726E-06  0.346E-04    1.01      16.2  T
     SCC iter.                  ...        0 min,  0.604 sec
     gradient                   ...        0 min,  0.364 sec
 * total energy  :  -539.2739332 Eh     change       -0.1256648E-02 Eh
   gradient norm :     0.0094840 Eh/α   predicted    -0.1265629E-02 (   0.71%)
   displ. norm   :     0.8366911 α      lambda       -0.1223560E-02
   maximum displ.:     0.2730429 α      in ANC's #5, #30, #22, ...

........................................................................
.............................. CYCLE   53 ..............................
........................................................................
   1   -546.5680304 -0.546568E+03  0.487E-02    1.01       0.0  T
   2   -546.5680357 -0.527754E-05  0.273E-02    1.01       1.0  T
   3   -546.5680186  0.171551E-04  0.975E-03    1.01       1.0  T
   4   -546.5680376 -0.190708E-04  0.331E-03    1.01       1.7  T
   5   -546.5680381 -0.420057E-06  0.161E-03    1.01       3.5  T
   6   -546.5680385 -0.455120E-06  0.627E-04    1.01       8.9  T
   7   -546.5680386 -0.639252E-07  0.333E-04    1.01      16.8  T
     SCC iter.                  ...        0 min,  0.601 sec
     gradient                   ...        0 min,  0.365 sec
 * total energy  :  -539.2750491 Eh     change       -0.1115895E-02 Eh
   gradient norm :     0.0110065 Eh/α   predicted    -0.1040059E-02 (  -6.80%)
   displ. norm   :     0.7759811 α      lambda       -0.1380300E-02
   maximum displ.:     0.2642924 α      in ANC's #5, #22, #30, ...

........................................................................
.............................. CYCLE   54 ..............................
........................................................................
   1   -546.5724956 -0.546572E+03  0.466E-02    1.01       0.0  T
   2   -546.5725013 -0.574942E-05  0.263E-02    1.01       1.0  T
   3   -546.5724857  0.156075E-04  0.911E-03    1.01       1.0  T
   4   -546.5725028 -0.170763E-04  0.338E-03    1.01       1.7  T
   5   -546.5725036 -0.848258E-06  0.170E-03    1.01       3.3  T
   6   -546.5725041 -0.501143E-06  0.681E-04    1.01       8.2  T
   7   -546.5725042 -0.543198E-07  0.380E-04    1.01      14.7  T
     SCC iter.                  ...        0 min,  0.622 sec
     gradient                   ...        0 min,  0.368 sec
 * total energy  :  -539.2762549 Eh     change       -0.1205821E-02 Eh
   gradient norm :     0.0076124 Eh/α   predicted    -0.1105722E-02 (  -8.30%)
   displ. norm   :     0.8634162 α      lambda       -0.1279785E-02
   maximum displ.:     0.2957461 α      in ANC's #5, #22, #30, ...

........................................................................
.............................. CYCLE   55 ..............................
........................................................................
   1   -546.5744841 -0.546574E+03  0.498E-02    1.01       0.0  T
   2   -546.5744893 -0.523019E-05  0.280E-02    1.01       1.0  T
   3   -546.5744681  0.212324E-04  0.105E-02    1.01       1.0  T
   4   -546.5744916 -0.235404E-04  0.338E-03    1.01       1.7  T
   5   -546.5744921 -0.436475E-06  0.159E-03    1.01       3.5  T
   6   -546.5744926 -0.478295E-06  0.661E-04    1.01       8.5  T
   7   -546.5744926 -0.620249E-07  0.355E-04    1.01      15.7  T
     SCC iter.                  ...        0 min,  0.611 sec
     gradient                   ...        0 min,  0.366 sec
 * total energy  :  -539.2774287 Eh     change       -0.1173738E-02 Eh
   gradient norm :     0.0075422 Eh/α   predicted    -0.1116925E-02 (  -4.84%)
   displ. norm   :     0.8396994 α      lambda       -0.1335240E-02
   maximum displ.:     0.2942089 α      in ANC's #5, #22, #30, ...

........................................................................
.............................. CYCLE   56 ..............................
........................................................................
   1   -546.5857714 -0.546586E+03  0.505E-02    1.00       0.0  T
   2   -546.5857809 -0.959286E-05  0.282E-02    1.01       1.0  T
   3   -546.5857600  0.209723E-04  0.106E-02    1.01       1.0  T
   4   -546.5857822 -0.222310E-04  0.414E-03    1.01       1.4  T
   5   -546.5857844 -0.215265E-05  0.178E-03    1.01       3.1  T
   6   -546.5857847 -0.357091E-06  0.845E-04    1.01       6.6  T
   7   -546.5857848 -0.128720E-06  0.381E-04    1.01      14.7  T
[...]
    73   8 O       74   6 C                                       1.4104531
    74   6 C       75   6 C                                       1.5259379
    72   6 C       76   6 C                                       1.4187873
    69   6 C       77   6 C                                       1.3979434
    76   6 C       77   6 C                                       1.3803413
    76   6 C       78   8 O                                       1.3594546
    78   8 O       79   6 C                                       1.4135919
    79   6 C       80   6 C                                       1.5263759
    68   6 C       81   6 C                                       1.4376849
    82   6 C       83   6 C                                       1.3868331
    83   6 C       84   6 C                                       1.3837343
    84   6 C       85   6 C                                       1.3862981
    85   6 C       86   8 O                                       1.3568723
    86   8 O       87   6 C                                       1.4127531
    87   6 C       88   6 C                                       1.5269461
    85   6 C       89   6 C                                       1.4185222
    89   6 C       90   8 O                                       1.3582426
    90   8 O       91   6 C                                       1.4150959
    91   6 C       92   6 C                                       1.5259167
    82   6 C       93   6 C                                       1.3970958
    89   6 C       93   6 C                                       1.3812161
    81   6 C       94   7 N                                       1.3118909
    66   6 C       95   6 C                                       1.4164036
    94   7 N       95   6 C                                       1.3443736
    95   6 C       96   6 C                                       1.4145381
    96   6 C       97   6 C                                       1.3792033
    65   6 C       98   6 C                                       1.3743537
    97   6 C       98   6 C                                       1.4050559
   101   6 C      102   6 C                                       1.4177090
   102   6 C      103   7 N                                       1.3394739
   103   7 N      104   6 C                                       1.3092072
   105   6 C      106   6 C                                       1.3845607
   106   6 C      107   6 C                                       1.3846248
   107   6 C      108   6 C                                       1.3854609
   108   6 C      109   8 O                                       1.3599425
   109   8 O      110   6 C                                       1.4148412
   110   6 C      111   6 C                                       1.5200547
   108   6 C      112   6 C                                       1.4163607
   105   6 C      113   6 C                                       1.3971509
   112   6 C      113   6 C                                       1.3800583
   112   6 C      114   8 O                                       1.3624649
   114   8 O      115   6 C                                       1.4156667
   115   6 C      116   6 C                                       1.5258705
   118   6 C      119   6 C                                       1.3904071
   119   6 C      120   6 C                                       1.3847577
   120   6 C      121   6 C                                       1.3877859
   121   6 C      122   8 O                                       1.3527976
   122   8 O      123   6 C                                       1.4178634
   123   6 C      124   6 C                                       1.5200813
   121   6 C      125   6 C                                       1.4147728
   125   6 C      126   8 O                                       1.3635173
   126   8 O      127   6 C                                       1.4146804
   127   6 C      128   6 C                                       1.5230971
   118   6 C      129   6 C                                       1.4034397
   125   6 C      129   6 C                                       1.3773977
   117   6 C      130   7 N                                       1.3167182
   102   6 C      131   6 C                                       1.4143688
   130   7 N      131   6 C                                       1.3364548
   131   6 C      132   6 C                                       1.4259683
   132   6 C      133   6 C                                       1.3792006
   101   6 C      134   6 C                                       1.3730940
   133   6 C      134   6 C                                       1.4096881
   137   6 C      138   6 C                                       1.3601025
   138   6 C      139   6 C                                       1.4136939
   139   6 C      140   6 C                                       1.4059638
   141   6 C      142   6 C                                       1.3657286
   142   6 C      143   6 C                                       1.4066674
   143   6 C      144   6 C                                       1.3644418
   146   6 C      147   6 C                                       1.5131528
   141   6 C      148  34 Se                                      1.8865411
   144   6 C      148  34 Se                                      1.8861048
   140   6 C      149   6 C                                       1.3880191
   149   6 C      150   6 C                                       1.4161607
   150   6 C      151   6 C                                       1.4161500
   152   6 C      153   6 C                                       1.3731076
   153   6 C      154   6 C                                       1.4036840
   154   6 C      155   6 C                                       1.3687016
   157   6 C      158   6 C                                       1.5153674
   152   6 C      159  34 Se                                      1.8857256
   155   6 C      159  34 Se                                      1.8834680
   139   6 C      160   6 C                                       1.4135022
   151   6 C      160   6 C                                       1.3970676
   137   6 C      161  16 S                                       1.7530171
   160   6 C      161  16 S                                       1.7467898
   150   6 C      162   6 C                                       1.4228010
   162   6 C      163   6 C                                       1.3639471
   149   6 C      164  16 S                                       1.7376264
   163   6 C      164  16 S                                       1.7566067
   163   6 C      165   6 C                                       1.4284145
   165   6 C      166   6 C                                       1.3632691
   166   6 C      167   6 C                                       1.4098269
   167   6 C      168   6 C                                       1.4058242
   169   6 C      170   6 C                                       1.3637002
   170   6 C      171   6 C                                       1.4108559
   171   6 C      172   6 C                                       1.3649487
   174   6 C      175   6 C                                       1.5165870
   172   6 C      176  34 Se                                      1.8688204
   168   6 C      177   6 C                                       1.3892758
   177   6 C      178   6 C                                       1.4161098
   178   6 C      179   6 C                                       1.4123028
   180   6 C      181   6 C                                       1.3664979
   181   6 C      182   6 C                                       1.4090577
   182   6 C      183   6 C                                       1.3651643
   185   6 C      186   6 C                                       1.5150339
   180   6 C      187  34 Se                                      1.8854223
   183   6 C      187  34 Se                                      1.8866387
   167   6 C      188   6 C                                       1.4109861
   179   6 C      188   6 C                                       1.3914732
   165   6 C      189  16 S                                       1.7535492
   188   6 C      189  16 S                                       1.7534245
   178   6 C      190   6 C                                       1.4267613
   190   6 C      191   6 C                                       1.3487423
   177   6 C      192  16 S                                       1.7426139
   191   6 C      192  16 S                                       1.7294227
     1   6 C      193   1 H                                       1.0725165
     2   6 C      194   1 H                                       1.0746332
     6   6 C      195   1 H                                       1.0771774
     7   6 C      196   1 H                                       1.0769685
    10   6 C      197   1 H                                       1.0910303
    10   6 C      198   1 H                                       1.0889948
    11   6 C      199   1 H                                       1.0881765
    11   6 C      200   1 H                                       1.0886601
    11   6 C      201   1 H                                       1.0877441
    17   6 C      202   1 H                                       1.0765412
    18   6 C      203   1 H                                       1.0761062
    21   6 C      204   1 H                                       1.0945683
    21   6 C      205   1 H                                       1.0895237
    22   6 C      206   1 H                                       1.0874432
    22   6 C      207   1 H                                       1.0879709
    22   6 C      208   1 H                                       1.0898564
    26   6 C      209   1 H                                       1.0755359
    34   6 C      210   1 H                                       1.0800997
    35   6 C      211   1 H                                       1.0788003
    38   6 C      212   1 H                                       1.0937188
    38   6 C      213   1 H                                       1.0966224
    39   6 C      214   1 H                                       1.0871636
    39   6 C      215   1 H                                       1.0861631
    39   6 C      216   1 H                                       1.0872025
    41   6 C      217   1 H                                       1.0780939
    43   6 C      218   1 H                                       1.0932477
    43   6 C      219   1 H                                       1.0946073
    44   6 C      220   1 H                                       1.0866031
    44   6 C      221   1 H                                       1.0880785
    44   6 C      222   1 H                                       1.0874540
    47   6 C      223   1 H                                       1.0775627
    48   6 C      224   1 H                                       1.0782581
    51   6 C      225   1 H                                       1.0959592
    51   6 C      226   1 H                                       1.0985398
    52   6 C      227   1 H                                       1.0878366
    52   6 C      228   1 H                                       1.0869654
    52   6 C      229   1 H                                       1.0863157
    55   6 C      230   1 H                                       1.0939747
    55   6 C      231   1 H                                       1.0969058
    56   6 C      232   1 H                                       1.0856457
    56   6 C      233   1 H                                       1.0869355
    56   6 C      234   1 H                                       1.0865166
    57   6 C      235   1 H                                       1.0763712
    70   6 C      236   1 H                                       1.0770959
    71   6 C      237   1 H                                       1.0806139
    74   6 C      238   1 H                                       1.1023690
    74   6 C      239   1 H                                       1.0938154
    75   6 C      240   1 H                                       1.0880986
    75   6 C      241   1 H                                       1.0870008
    75   6 C      242   1 H                                       1.0871860
    77   6 C      243   1 H                                       1.0768053
    79   6 C      244   1 H                                       1.0942732
    79   6 C      245   1 H                                       1.0978691
    80   6 C      246   1 H                                       1.0866234
    80   6 C      247   1 H                                       1.0869363
    80   6 C      248   1 H                                       1.0868727
    83   6 C      249   1 H                                       1.0779953
    84   6 C      250   1 H                                       1.0773002
    87   6 C      251   1 H                                       1.0938389
    87   6 C      252   1 H                                       1.0969973
    88   6 C      253   1 H                                       1.0866447
    88   6 C      254   1 H                                       1.0872945
    88   6 C      255   1 H                                       1.0873483
    91   6 C      256   1 H                                       1.0934654
    91   6 C      257   1 H                                       1.0958974
    92   6 C      258   1 H                                       1.0870181
    92   6 C      259   1 H                                       1.0862574
    92   6 C      260   1 H                                       1.0872588
    93   6 C      261   1 H                                       1.0775281
   106   6 C      262   1 H                                       1.0775901
   107   6 C      263   1 H                                       1.0780154
   110   6 C      264   1 H                                       1.0976847
   110   6 C      265   1 H                                       1.0993026
   111   6 C      266   1 H                                       1.0863334
   111   6 C      267   1 H                                       1.0870922
   111   6 C      268   1 H                                       1.0865601
   113   6 C      269   1 H                                       1.0781332
   115   6 C      270   1 H                                       1.0943924
   115   6 C      271   1 H                                       1.0970004
   116   6 C      272   1 H                                       1.0867878
   116   6 C      273   1 H                                       1.0873635
   116   6 C      274   1 H                                       1.0870507
   119   6 C      275   1 H                                       1.0777798
   120   6 C      276   1 H                                       1.0781056
   123   6 C      277   1 H                                       1.0977421
   123   6 C      278   1 H                                       1.0984977
   124   6 C      279   1 H                                       1.0863499
   124   6 C      280   1 H                                       1.0863982
   124   6 C      281   1 H                                       1.0868387
   127   6 C      282   1 H                                       1.0954567
   127   6 C      283   1 H                                       1.0938716
   128   6 C      284   1 H                                       1.0874981
   128   6 C      285   1 H                                       1.0870989
   128   6 C      286   1 H                                       1.0867009
   129   6 C      287   1 H                                       1.0775863
   138   6 C      288   1 H                                       1.0746483
   142   6 C      289   1 H                                       1.0764896
   143   6 C      290   1 H                                       1.0758033
   146   6 C      291   1 H                                       1.0938082
   146   6 C      292   1 H                                       1.0895517
   147   6 C      293   1 H                                       1.0874701
   147   6 C      294   1 H                                       1.0874181
   147   6 C      295   1 H                                       1.0899457
   153   6 C      296   1 H                                       1.0768552
   154   6 C      297   1 H                                       1.0763667
   157   6 C      298   1 H                                       1.0896336
   157   6 C      299   1 H                                       1.0941603
   158   6 C      300   1 H                                       1.0874723
   158   6 C      301   1 H                                       1.0905512
   158   6 C      302   1 H                                       1.0878094
   162   6 C      303   1 H                                       1.0753635
   166   6 C      304   1 H                                       1.0754147
   170   6 C      305   1 H                                       1.0774867
   171   6 C      306   1 H                                       1.0768930
   174   6 C      307   1 H                                       1.0903898
   174   6 C      308   1 H                                       1.0898119
   175   6 C      309   1 H                                       1.0876547
   175   6 C      310   1 H                                       1.0878378
   175   6 C      311   1 H                                       1.0879709
   181   6 C      312   1 H                                       1.0772074
   182   6 C      313   1 H                                       1.0763029
   185   6 C      314   1 H                                       1.0894441
   185   6 C      315   1 H                                       1.0946936
   186   6 C      316   1 H                                       1.0879283
   186   6 C      317   1 H                                       1.0901475
   186   6 C      318   1 H                                       1.0874733
   190   6 C      319   1 H                                       1.0742526
   191   6 C      320   1 H                                       1.0725026 (min)

 * 7 distinct bonds (by element types)

   Z      Z             #   av. dist./Å        max./Å        min./Å
   1 H    6 C         128     1.0862460     1.1023690     1.0725026
   6 C    6 C         123     1.4134955     1.5269461     1.3479963
   6 C    7 N          12     1.3262140     1.3443736     1.3092072
   6 C    8 O          24     1.3871240     1.4195602     1.3527976
   6 C    9 F           1     1.3404460     1.3404460     1.3404460
   6 C   16 S          12     1.7450573     1.7566067     1.7278194
   6 C   34 Se         11     1.8829906     1.8876465     1.8688204


optimized geometry written to: xtbopt.mol


           -------------------------------------------------
          | TOTAL ENERGY             -539.399175392375 Eh   |
          | GRADIENT NORM               0.000854682689 Eh/α |
          | HOMO-LUMO GAP               0.932068909157 eV   |
           -------------------------------------------------

------------------------------------------------------------------------
 * finished run on 2022/03/07 at 16:31:14.139     
------------------------------------------------------------------------
 total:
 * wall-time:     0 d,  0 h,  9 min,  9.873 sec
 *  cpu-time:     0 d,  1 h, 13 min, 14.580 sec
 * ratio c/w:     7.992 speedup
 SCF:
 * wall-time:     0 d,  0 h,  0 min,  1.925 sec
 *  cpu-time:     0 d,  0 h,  0 min, 15.384 sec
 * ratio c/w:     7.991 speedup
 ANC optimizer:
 * wall-time:     0 d,  0 h,  9 min,  7.755 sec
 *  cpu-time:     0 d,  1 h, 12 min, 57.817 sec
 * ratio c/w:     7.992 speedup

