      -----------------------------------------------------------      
     |                   =====================                   |     
     |                           x T B                           |     
     |                   =====================                   |     
     |                         S. Grimme                         |     
     |          Mulliken Center for Theoretical Chemistry        |     
     |                    University of Bonn                     |     
      -----------------------------------------------------------      

   * xtb version 6.4.1 (unknown) compiled by 'oda6@login1.crc.pitt.edu' on 2021-06-25

   xtb is free software: you can redistribute it and/or modify it under
   the terms of the GNU Lesser General Public License as published by
   the Free Software Foundation, either version 3 of the License, or
   (at your option) any later version.
   
   xtb is distributed in the hope that it will be useful,
   but WITHOUT ANY WARRANTY; without even the implied warranty of
   MERCHANTABILITY or FITNESS FOR A PARTICULAR PURPOSE.  See the
   GNU Lesser General Public License for more details.
   
   Cite this work as:
   * C. Bannwarth, E. Caldeweyher, S. Ehlert, A. Hansen, P. Pracht,
     J. Seibert, S. Spicher, S. Grimme, WIREs Comput. Mol. Sci., 2020, 11,
     e01493. DOI: 10.1002/wcms.1493
   
   for GFN2-xTB:
   * C. Bannwarth, S. Ehlert and S. Grimme., J. Chem. Theory Comput., 2019,
     15, 1652-1671. DOI: 10.1021/acs.jctc.8b01176
   for GFN1-xTB:
   * S. Grimme, C. Bannwarth, P. Shushkov, J. Chem. Theory Comput., 2017,
     13, 1989-2009. DOI: 10.1021/acs.jctc.7b00118
   for GFN0-xTB:
   * P. Pracht, E. Caldeweyher, S. Ehlert, S. Grimme, ChemRxiv, 2019, preprint.
     DOI: 10.26434/chemrxiv.8326202.v1
   for GFN-FF:
   * S. Spicher and S. Grimme, Angew. Chem. Int. Ed., 2020, 59, 15665-15673.
     DOI: 10.1002/anie.202004239
   
   for DFT-D4:
   * E. Caldeweyher, C. Bannwarth and S. Grimme, J. Chem. Phys., 2017,
     147, 034112. DOI: 10.1063/1.4993215
   * E. Caldeweyher, S. Ehlert, A. Hansen, H. Neugebauer, S. Spicher,
     C. Bannwarth and S. Grimme, J. Chem. Phys., 2019, 150, 154122.
     DOI: 10.1063/1.5090222
   * E. Caldeweyher, J.-M. Mewes, S. Ehlert and S. Grimme, Phys. Chem. Chem. Phys.
     2020, 22, 8499-8512. DOI: 10.1039/D0CP00502A
   
   for sTDA-xTB:
   * S. Grimme and C. Bannwarth, J. Chem. Phys., 2016, 145, 054103.
     DOI: 10.1063/1.4959605
   
   in the mass-spec context:
   * V. Asgeirsson, C. Bauer and S. Grimme, Chem. Sci., 2017, 8, 4879.
     DOI: 10.1039/c7sc00601b
   * J. Koopman and S. Grimme, ACS Omega 2019, 4, 12, 15120-15133.
     DOI: 10.1021/acsomega.9b02011
   
   for metadynamics refer to:
   * S. Grimme, J. Chem. Theory Comput., 2019, 155, 2847-2862
     DOI: 10.1021/acs.jctc.9b00143
   
   for SPH calculations refer to:
   * S. Spicher and S. Grimme, J. Chem. Theory Comput., 2021, 17, 1701-1714
     DOI: 10.1021/acs.jctc.0c01306
   
   with help from (in alphabetical order)
   P. Atkinson, C. Bannwarth, F. Bohle, G. Brandenburg, E. Caldeweyher
   M. Checinski, S. Dohm, S. Ehlert, S. Ehrlich, I. Gerasimov, J. Koopman
   C. Lavigne, S. Lehtola, F. März, M. Müller, F. Musil, H. Neugebauer
   J. Pisarek, C. Plett, P. Pracht, J. Seibert, P. Shushkov, S. Spicher
   M. Stahn, M. Steiner, T. Strunk, J. Stückrath, T. Rose, and J. Unsleber
   
 * started run on 2022/03/08 at 09:56:56.495     

           -------------------------------------------------
          |                Calculation Setup                |
           -------------------------------------------------

          program call               : /ihome/ghutchison/oda6/xtb/xtb-641/bin/xtb ../../FF_optimized/100_188_101010.mol -opt
          hostname                   : smp-n44
          coordinate file            : ../../FF_optimized/100_188_101010.mol
          omp threads                :                     8
          number of atoms            :                   170
          number of electrons        :                   554
          charge                     :                     0
          spin                       :                   0.0
          first test random number   :      0.48367013414947

   ID    Z sym.   atoms
    1    6 C      1-3, 7-17, 19, 20, 22-28, 30, 31, 33, 35, 36, 38-40, 44-54,
                  56, 57, 59-65, 67, 68, 70, 72, 73, 75-77, 81-91, 93, 94,
                  96-102, 104, 105, 107, 109, 110
    2    7 N      4, 41, 78
    3    8 O      5, 6, 42, 43, 79, 80
    4   16 S      18, 29, 34, 37, 55, 66, 71, 74, 92, 103, 108, 111
    5   34 Se     21, 32, 58, 69, 95, 106
    6    1 H      112-170

molecular fragmentation (1/2 indicates fragments):
111111111111111111111111111111111111111111111111111111111111111111111111
111111111111111111111111111111111111111111112111111221111111111221111111
11111111112111111111111111
# atoms in fragment 1/2:   164     6
 fragment masses (1/2) :     2058.87        6.05
CMA distance (Bohr)    :   6.421
constraining FC (au)   :  0.0500
########################################################################
[WARNING] Please study the warnings concerning your input carefully
-1- prog_main_parseArguments: the use of '-opt' is discouraged, please use '--opt' next time
########################################################################

           -------------------------------------------------
          |                 G F N 2 - x T B                 |
           -------------------------------------------------

        Reference                      10.1021/acs.jctc.8b01176
      * Hamiltonian:
        H0-scaling (s, p, d)           1.850000    2.230000    2.230000
        zeta-weighting                 0.500000
      * Dispersion:
        s8                             2.700000
        a1                             0.520000
        a2                             5.000000
        s9                             5.000000
      * Repulsion:
        kExp                           1.500000    1.000000
        rExp                           1.000000
      * Coulomb:
        alpha                          2.000000
        third order                    shell-resolved
        anisotropic                    true
        a3                             3.000000
        a5                             4.000000
        cn-shift                       1.200000
        cn-exp                         4.000000
        max-rad                        5.000000


          ...................................................
          :                      SETUP                      :
          :.................................................:
          :  # basis functions                 611          :
          :  # atomic orbitals                 593          :
          :  # shells                          299          :
          :  # electrons                       554          :
          :  max. iterations                   250          :
          :  Hamiltonian                  GFN2-xTB          :
          :  restarted?                      false          :
          :  GBSA solvation                  false          :
          :  PC potential                    false          :
          :  electronic temp.          300.0000000     K    :
          :  accuracy                    1.0000000          :
          :  -> integral cutoff          0.2500000E+02      :
          :  -> integral neglect         0.1000000E-07      :
          :  -> SCF convergence          0.1000000E-05 Eh   :
          :  -> wf. convergence          0.1000000E-03 e    :
          :  Broyden damping             0.4000000          :
          ...................................................

 iter      E             dE          RMSdq      gap      omega  full diag
   1   -303.7914921 -0.303791E+03  0.498E+00    1.45       0.0  T
   2   -304.4835125 -0.692020E+00  0.265E+00    0.75       1.0  T
   3   -304.4532611  0.302513E-01  0.145E+00    0.49       1.0  T
   4   -304.4407806  0.124806E-01  0.978E-01    0.14       1.0  T
   5   -304.5613752 -0.120595E+00  0.349E-01    0.31       1.0  T
   6   -304.5680471 -0.667190E-02  0.209E-01    0.35       1.0  T
   7   -304.5705268 -0.247966E-02  0.977E-02    0.27       1.0  T
   8   -304.5710096 -0.482762E-03  0.544E-02    0.29       1.0  T
   9   -304.5711132 -0.103601E-03  0.367E-02    0.28       1.0  T
  10   -304.5711374 -0.242342E-04  0.244E-02    0.29       1.0  T
  11   -304.5711668 -0.293816E-04  0.128E-02    0.29       1.0  T
  12   -304.5711754 -0.857620E-05  0.642E-03    0.29       1.2  T
  13   -304.5711767 -0.130248E-05  0.408E-03    0.29       1.9  T
  14   -304.5711778 -0.110883E-05  0.222E-03    0.29       3.5  T
  15   -304.5711780 -0.209817E-06  0.122E-03    0.29       6.3  T
  16   -304.5711781 -0.813107E-07  0.692E-04    0.29      11.1  T
  17   -304.5711781 -0.242604E-07  0.352E-04    0.29      21.8  T

   *** convergence criteria satisfied after 17 iterations ***

         #    Occupation            Energy/Eh            Energy/eV
      -------------------------------------------------------------
         1        2.0000           -0.7675231             -20.8854
       ...           ...                  ...                  ...
       271        2.0000           -0.3786569             -10.3038
       272        2.0000           -0.3744009             -10.1880
       273        2.0000           -0.3701935             -10.0735
       274        2.0000           -0.3675736             -10.0022
       275        1.9995           -0.3629777              -9.8771
       276        1.9988           -0.3620810              -9.8527
       277        1.9912           -0.3601959              -9.8014 (HOMO)
       278        0.0071           -0.3496839              -9.5154 (LUMO)
       279        0.0019           -0.3484344              -9.4814
       280        0.0014           -0.3481568              -9.4738
       281                         -0.3223349              -8.7712
       282                         -0.3147259              -8.5641
       ...                                ...                  ...
       593                          0.9852075              26.8089
      -------------------------------------------------------------
                  HL-Gap            0.0105120 Eh            0.2860 eV
             Fermi-level           -0.3550399 Eh           -9.6611 eV

 SCC (total)                   0 d,  0 h,  0 min,  0.724 sec
 SCC setup                      ...        0 min,  0.002 sec (  0.296%)
 Dispersion                     ...        0 min,  0.007 sec (  0.898%)
 classical contributions        ...        0 min,  0.000 sec (  0.034%)
 integral evaluation            ...        0 min,  0.032 sec (  4.477%)
 iterations                     ...        0 min,  0.595 sec ( 82.206%)
 molecular gradient             ...        0 min,  0.085 sec ( 11.674%)
 printout                       ...        0 min,  0.003 sec (  0.400%)

         :::::::::::::::::::::::::::::::::::::::::::::::::::::
         ::                     SUMMARY                     ::
         :::::::::::::::::::::::::::::::::::::::::::::::::::::
         :: total energy            -300.302484711518 Eh    ::
         :: gradient norm              0.704483511293 Eh/a0 ::
         :: HOMO-LUMO gap              0.286045493577 eV    ::
         ::.................................................::
         :: SCC energy              -304.571178081829 Eh    ::
         :: -> isotropic ES            0.173796514565 Eh    ::
         :: -> anisotropic ES          0.016082334058 Eh    ::
         :: -> anisotropic XC          0.114891124076 Eh    ::
         :: -> dispersion             -0.279301527710 Eh    ::
         :: repulsion energy           4.270900789683 Eh    ::
         :: add. restraining           0.000000000000 Eh    ::
         :: total charge              -0.000000000003 e     ::
         :::::::::::::::::::::::::::::::::::::::::::::::::::::

      ----------------------------------------------------------- 
     |                   =====================                   |
     |                        A N C O P T                        |
     |                   =====================                   |
     |               Approximate Normal Coordinate               |
     |                Rational Function Optimizer                |
      ----------------------------------------------------------- 

          ...................................................
          :                      SETUP                      :
          :.................................................:
          :   optimization level            normal          :
          :   max. optcycles                   510          :
          :   ANC micro-cycles                  20          :
          :   degrees of freedom               504          :
          :.................................................:
          :   RF solver                   davidson          :
          :   write xtbopt.log                true          :
          :   linear?                        false          :
          :   energy convergence         0.5000000E-05 Eh   :
          :   grad. convergence          0.1000000E-02 Eh/α :
          :   maximium RF displ.         1.0000000          :
          :   Hlow (freq-cutoff)         0.1000000E-01      :
          :   Hmax (freq-cutoff)         5.0000000          :
          :   S6 in model hess.         20.0000000          :
          ...................................................

generating ANC from model Hessian ...
Using Lindh-Hessian (1995)
 Shifting diagonal of input Hessian by   9.995214251591668E-003
 Lowest  eigenvalues of input Hessian
    0.000000    0.000000    0.000000    0.000000    0.000000    0.000000
    0.010000    0.010001    0.010006    0.010009    0.010018    0.010024
    0.010032    0.010043    0.010053    0.010093    0.010096    0.010120
 Highest eigenvalues
    2.249249    2.290975    2.291939    2.314928    2.320783    2.334749
 

........................................................................
.............................. CYCLE    1 ..............................
........................................................................
   1   -304.5711781 -0.304571E+03  0.221E-04    0.29       0.0  T
   2   -304.5711781  0.126300E-08  0.210E-04    0.29      36.6  T
   3   -304.5711781 -0.400354E-08  0.128E-04    0.29      59.9  T
     SCC iter.                  ...        0 min,  0.108 sec
     gradient                   ...        0 min,  0.084 sec
 * total energy  :  -300.3024847 Eh     change       -0.8081315E-08 Eh
   gradient norm :     0.7044847 Eh/α   predicted     0.0000000E+00 (-100.00%)
   displ. norm   :     0.5629922 α      lambda       -0.3491721E+00
   maximum displ.:     0.1254948 α      in ANC's #439, #442, #305, ...

........................................................................
.............................. CYCLE    2 ..............................
........................................................................
   1   -304.6600638 -0.304660E+03  0.549E-01    0.63       0.0  T
   2   -304.6650031 -0.493929E-02  0.309E-01    0.49       1.0  T
   3   -304.6640938  0.909315E-03  0.167E-01    0.47       1.0  T
   4   -304.6662521 -0.215830E-02  0.696E-02    0.45       1.0  T
   5   -304.6664972 -0.245145E-03  0.404E-02    0.44       1.0  T
   6   -304.6666491 -0.151915E-03  0.193E-02    0.45       1.0  T
   7   -304.6666695 -0.204081E-04  0.853E-03    0.45       1.0  T
   8   -304.6666743 -0.475830E-05  0.549E-03    0.45       1.4  T
   9   -304.6666753 -0.100295E-05  0.314E-03    0.45       2.4  T
  10   -304.6666758 -0.544166E-06  0.136E-03    0.45       5.6  T
  11   -304.6666760 -0.124907E-06  0.783E-04    0.45       9.8  T
  12   -304.6666760 -0.258063E-07  0.472E-04    0.45      16.2  T
     SCC iter.                  ...        0 min,  0.412 sec
     gradient                   ...        0 min,  0.083 sec
 * total energy  :  -300.5765027 Eh     change       -0.2740180E+00 Eh
   gradient norm :     0.3954730 Eh/α   predicted    -0.2299333E+00 ( -16.09%)
   displ. norm   :     0.5816523 α      lambda       -0.2048040E+00
   maximum displ.:     0.1057215 α      in ANC's #439, #428, #305, ...

........................................................................
.............................. CYCLE    3 ..............................
........................................................................
   1   -304.7278967 -0.304728E+03  0.536E-01    0.84       0.0  T
   2   -304.7374594 -0.956271E-02  0.312E-01    0.76       1.0  T
   3   -304.7387933 -0.133387E-02  0.164E-01    0.73       1.0  T
   4   -304.7392062 -0.412904E-03  0.985E-02    0.72       1.0  T
   5   -304.7401137 -0.907484E-03  0.444E-02    0.71       1.0  T
   6   -304.7402727 -0.159021E-03  0.189E-02    0.71       1.0  T
   7   -304.7402986 -0.259304E-04  0.949E-03    0.71       1.0  T
   8   -304.7403025 -0.387235E-05  0.571E-03    0.71       1.3  T
   9   -304.7403040 -0.149235E-05  0.344E-03    0.71       2.2  T
  10   -304.7403045 -0.478224E-06  0.160E-03    0.71       4.8  T
  11   -304.7403046 -0.107080E-06  0.976E-04    0.71       7.9  T
  12   -304.7403046 -0.351988E-07  0.642E-04    0.71      11.9  T
     SCC iter.                  ...        0 min,  0.413 sec
     gradient                   ...        0 min,  0.083 sec
 * total energy  :  -300.7092288 Eh     change       -0.1327261E+00 Eh
   gradient norm :     0.1207904 Eh/α   predicted    -0.1370466E+00 (   3.26%)
   displ. norm   :     0.5854895 α      lambda       -0.5337756E-01
   maximum displ.:     0.1094287 α      in ANC's #138, #66, #135, ...

........................................................................
.............................. CYCLE    4 ..............................
........................................................................
   1   -304.7264164 -0.304726E+03  0.319E-01    0.77       0.0  T
   2   -304.7268220 -0.405595E-03  0.190E-01    0.76       1.0  T
   3   -304.7247668  0.205519E-02  0.130E-01    0.74       1.0  T
   4   -304.7271896 -0.242273E-02  0.411E-02    0.75       1.0  T
   5   -304.7272727 -0.831323E-04  0.198E-02    0.75       1.0  T
   6   -304.7272968 -0.241029E-04  0.916E-03    0.75       1.0  T
   7   -304.7273018 -0.502097E-05  0.546E-03    0.75       1.4  T
   8   -304.7273028 -0.977372E-06  0.313E-03    0.75       2.4  T
   9   -304.7273031 -0.315282E-06  0.168E-03    0.75       4.6  T
  10   -304.7273033 -0.220905E-06  0.718E-04    0.75      10.7  T
  11   -304.7273034 -0.193597E-07  0.465E-04    0.75      16.5  T
     SCC iter.                  ...        0 min,  0.382 sec
     gradient                   ...        0 min,  0.083 sec
 * total energy  :  -300.7479004 Eh     change       -0.3867157E-01 Eh
   gradient norm :     0.0597190 Eh/α   predicted    -0.3583767E-01 (  -7.33%)
   displ. norm   :     0.6317369 α      lambda       -0.2450412E-01
   maximum displ.:     0.1362663 α      in ANC's #66, #51, #44, ...

........................................................................
.............................. CYCLE    5 ..............................
........................................................................
   1   -304.7296472 -0.304730E+03  0.217E-01    0.73       0.0  T
   2   -304.7297920 -0.144821E-03  0.132E-01    0.74       1.0  T
   3   -304.7287166  0.107544E-02  0.933E-02    0.74       1.0  T
   4   -304.7300104 -0.129383E-02  0.251E-02    0.74       1.0  T
   5   -304.7300380 -0.275976E-04  0.128E-02    0.74       1.0  T
   6   -304.7300474 -0.937448E-05  0.541E-03    0.74       1.4  T
   7   -304.7300498 -0.240873E-05  0.314E-03    0.74       2.4  T
   8   -304.7300501 -0.323156E-06  0.179E-03    0.74       4.3  T
   9   -304.7300502 -0.102926E-06  0.985E-04    0.74       7.8  T
  10   -304.7300503 -0.612824E-07  0.428E-04    0.74      17.9  T
     SCC iter.                  ...        0 min,  0.340 sec
     gradient                   ...        0 min,  0.083 sec
 * total energy  :  -300.7657748 Eh     change       -0.1787442E-01 Eh
   gradient norm :     0.0266989 Eh/α   predicted    -0.1714176E-01 (  -4.10%)
   displ. norm   :     0.6763743 α      lambda       -0.1306145E-01
   maximum displ.:     0.1723119 α      in ANC's #44, #51, #66, ...

........................................................................
.............................. CYCLE    6 ..............................
........................................................................
   1   -304.7561498 -0.304756E+03  0.153E-01    0.74       0.0  T
   2   -304.7561851 -0.352248E-04  0.856E-02    0.74       1.0  T
   3   -304.7557851  0.399932E-03  0.550E-02    0.74       1.0  T
   4   -304.7562448 -0.459618E-03  0.131E-02    0.74       1.0  T
   5   -304.7562440  0.768998E-06  0.854E-03    0.74       1.0  T
   6   -304.7562508 -0.679125E-05  0.317E-03    0.74       2.4  T
   7   -304.7562513 -0.487648E-06  0.206E-03    0.74       3.7  T
   8   -304.7562514 -0.956326E-07  0.119E-03    0.74       6.5  T
   9   -304.7562514 -0.727596E-07  0.605E-04    0.74      12.7  T
  10   -304.7562515 -0.230178E-07  0.287E-04    0.74      26.7  T
     SCC iter.                  ...        0 min,  0.340 sec
     gradient                   ...        0 min,  0.083 sec
 * total energy  :  -300.7758625 Eh     change       -0.1008776E-01 Eh
   gradient norm :     0.0259622 Eh/α   predicted    -0.9518442E-02 (  -5.64%)
   displ. norm   :     0.7556958 α      lambda       -0.1098927E-01
   maximum displ.:     0.2147448 α      in ANC's #44, #51, #46, ...

........................................................................
.............................. CYCLE    7 ..............................
........................................................................
   1   -304.7887686 -0.304789E+03  0.145E-01    0.75       0.0  T
   2   -304.7888294 -0.607627E-04  0.785E-02    0.76       1.0  T
   3   -304.7886430  0.186408E-03  0.398E-02    0.76       1.0  T
   4   -304.7888607 -0.217700E-03  0.141E-02    0.76       1.0  T
   5   -304.7888697 -0.895672E-05  0.847E-03    0.76       1.0  T
   6   -304.7888740 -0.430863E-05  0.315E-03    0.76       2.4  T
   7   -304.7888746 -0.673461E-06  0.204E-03    0.76       3.8  T
   8   -304.7888748 -0.126823E-06  0.116E-03    0.76       6.6  T
   9   -304.7888748 -0.414121E-07  0.682E-04    0.76      11.3  T
  10   -304.7888748 -0.242780E-07  0.273E-04    0.76      28.0  T
     SCC iter.                  ...        0 min,  0.327 sec
     gradient                   ...        0 min,  0.083 sec
 * total energy  :  -300.7837988 Eh     change       -0.7936291E-02 Eh
   gradient norm :     0.0280746 Eh/α   predicted    -0.8632504E-02 (   8.77%)
   displ. norm   :     0.7291330 α      lambda       -0.8558134E-02
   maximum displ.:     0.2402422 α      in ANC's #44, #51, #46, ...

........................................................................
.............................. CYCLE    8 ..............................
........................................................................
   1   -304.8177960 -0.304818E+03  0.128E-01    0.74       0.0  T
   2   -304.8178382 -0.422168E-04  0.685E-02    0.75       1.0  T
   3   -304.8177310  0.107224E-03  0.303E-02    0.75       1.0  T
   4   -304.8178533 -0.122292E-03  0.124E-02    0.75       1.0  T
   5   -304.8178617 -0.835649E-05  0.678E-03    0.75       1.1  T
   6   -304.8178650 -0.335031E-05  0.307E-03    0.75       2.5  T
   7   -304.8178654 -0.357404E-06  0.208E-03    0.75       3.7  T
   8   -304.8178655 -0.156239E-06  0.119E-03    0.75       6.4  T
   9   -304.8178656 -0.450590E-07  0.658E-04    0.75      11.7  T
  10   -304.8178656 -0.251714E-07  0.288E-04    0.75      26.6  T
     SCC iter.                  ...        0 min,  0.349 sec
     gradient                   ...        0 min,  0.084 sec
 * total energy  :  -300.7908879 Eh     change       -0.7089071E-02 Eh
   gradient norm :     0.0202125 Eh/α   predicted    -0.6554028E-02 (  -7.55%)
   displ. norm   :     0.7802901 α      lambda       -0.7150756E-02
   maximum displ.:     0.2711170 α      in ANC's #44, #51, #46, ...

........................................................................
.............................. CYCLE    9 ..............................
........................................................................
   1   -304.8404930 -0.304840E+03  0.134E-01    0.74       0.0  T
   2   -304.8405369 -0.439109E-04  0.718E-02    0.75       1.0  T
   3   -304.8404292  0.107712E-03  0.314E-02    0.75       1.0  T
   4   -304.8405486 -0.119430E-03  0.132E-02    0.75       1.0  T
   5   -304.8405594 -0.107784E-04  0.662E-03    0.75       1.2  T
   6   -304.8405618 -0.234633E-05  0.281E-03    0.75       2.7  T
   7   -304.8405623 -0.522279E-06  0.172E-03    0.75       4.5  T
   8   -304.8405624 -0.914239E-07  0.101E-03    0.75       7.6  T
   9   -304.8405624 -0.307321E-07  0.576E-04    0.75      13.3  T
  10   -304.8405624 -0.194916E-07  0.249E-04    0.75      30.8  T
     SCC iter.                  ...        0 min,  0.340 sec
     gradient                   ...        0 min,  0.083 sec
 * total energy  :  -300.7968882 Eh     change       -0.6000316E-02 Eh
   gradient norm :     0.0190796 Eh/α   predicted    -0.5752260E-02 (  -4.13%)
   displ. norm   :     0.8148906 α      lambda       -0.6609423E-02
   maximum displ.:     0.2864863 α      in ANC's #44, #51, #46, ...

........................................................................
.............................. CYCLE   10 ..............................
........................................................................
   1   -304.8542500 -0.304854E+03  0.144E-01    0.75       0.0  T
   2   -304.8543529 -0.102945E-03  0.785E-02    0.75       1.0  T
   3   -304.8542182  0.134755E-03  0.411E-02    0.75       1.0  T
   4   -304.8543815 -0.163340E-03  0.167E-02    0.75       1.0  T
   5   -304.8544071 -0.255677E-04  0.778E-03    0.75       1.0  T
   6   -304.8544087 -0.159117E-05  0.355E-03    0.75       2.2  T
   7   -304.8544097 -0.101858E-05  0.199E-03    0.75       3.9  T
   8   -304.8544097 -0.509659E-07  0.126E-03    0.75       6.1  T
   9   -304.8544098 -0.732005E-07  0.670E-04    0.75      11.4  T
  10   -304.8544098 -0.160350E-07  0.349E-04    0.75      22.0  T
     SCC iter.                  ...        0 min,  0.328 sec
     gradient                   ...        0 min,  0.083 sec
 * total energy  :  -300.8017033 Eh     change       -0.4815056E-02 Eh
   gradient norm :     0.0266405 Eh/α   predicted    -0.5499197E-02 (  14.21%)
   displ. norm   :     0.7337503 α      lambda       -0.5127290E-02
   maximum displ.:     0.2556874 α      in ANC's #44, #46, #51, ...

........................................................................
.............................. CYCLE   11 ..............................
........................................................................
   1   -304.8617501 -0.304862E+03  0.125E-01    0.75       0.0  T
   2   -304.8618309 -0.807747E-04  0.671E-02    0.76       1.0  T
   3   -304.8617498  0.810489E-04  0.329E-02    0.76       1.0  T
   4   -304.8618471 -0.972747E-04  0.136E-02    0.76       1.0  T
   5   -304.8618643 -0.171668E-04  0.684E-03    0.76       1.1  T
   6   -304.8618659 -0.160139E-05  0.267E-03    0.76       2.9  T
   7   -304.8618666 -0.761438E-06  0.148E-03    0.76       5.2  T
   8   -304.8618667 -0.467068E-07  0.934E-04    0.76       8.2  T
   9   -304.8618667 -0.341498E-07  0.490E-04    0.76      15.7  T
     SCC iter.                  ...        0 min,  0.308 sec
     gradient                   ...        0 min,  0.083 sec
 * total energy  :  -300.8057844 Eh     change       -0.4081119E-02 Eh
   gradient norm :     0.0182283 Eh/α   predicted    -0.3943891E-02 (  -3.36%)
   displ. norm   :     0.7320981 α      lambda       -0.3717980E-02
   maximum displ.:     0.2510731 α      in ANC's #44, #46, #24, ...

........................................................................
.............................. CYCLE   12 ..............................
........................................................................
   1   -304.8746452 -0.304875E+03  0.116E-01    0.76       0.0  T
   2   -304.8746619 -0.166569E-04  0.619E-02    0.77       1.0  T
   3   -304.8745632  0.986374E-04  0.294E-02    0.77       1.0  T
   4   -304.8746761 -0.112850E-03  0.936E-03    0.77       1.0  T
   5   -304.8746766 -0.498302E-06  0.538E-03    0.77       1.4  T
   6   -304.8746794 -0.286280E-05  0.193E-03    0.77       4.0  T
   7   -304.8746797 -0.226098E-06  0.122E-03    0.77       6.3  T
   8   -304.8746797 -0.290771E-07  0.666E-04    0.77      11.5  T
   9   -304.8746797 -0.225552E-07  0.356E-04    0.77      21.5  T
     SCC iter.                  ...        0 min,  0.309 sec
     gradient                   ...        0 min,  0.084 sec
 * total energy  :  -300.8089228 Eh     change       -0.3138466E-02 Eh
   gradient norm :     0.0147122 Eh/α   predicted    -0.2855356E-02 (  -9.02%)
   displ. norm   :     0.7436432 α      lambda       -0.3185147E-02
   maximum displ.:     0.2432169 α      in ANC's #44, #24, #46, ...

........................................................................
.............................. CYCLE   13 ..............................
........................................................................
   1   -304.8881590 -0.304888E+03  0.117E-01    0.78       0.0  T
   2   -304.8881782 -0.191229E-04  0.620E-02    0.78       1.0  T
   3   -304.8880457  0.132500E-03  0.347E-02    0.78       1.0  T
   4   -304.8881993 -0.153609E-03  0.919E-03    0.78       1.0  T
   5   -304.8881987  0.592630E-06  0.584E-03    0.78       1.3  T
   6   -304.8882015 -0.283203E-05  0.229E-03    0.78       3.3  T
   7   -304.8882019 -0.411091E-06  0.138E-03    0.78       5.5  T
   8   -304.8882020 -0.583718E-07  0.778E-04    0.78       9.9  T
   9   -304.8882020 -0.132285E-07  0.452E-04    0.78      17.0  T
     SCC iter.                  ...        0 min,  0.305 sec
     gradient                   ...        0 min,  0.084 sec
 * total energy  :  -300.8114977 Eh     change       -0.2574840E-02 Eh
   gradient norm :     0.0118721 Eh/α   predicted    -0.2473284E-02 (  -3.94%)
   displ. norm   :     0.7400445 α      lambda       -0.2701583E-02
   maximum displ.:     0.2220842 α      in ANC's #44, #24, #25, ...

........................................................................
.............................. CYCLE   14 ..............................
........................................................................
   1   -304.8958396 -0.304896E+03  0.112E-01    0.77       0.0  T
   2   -304.8958630 -0.234527E-04  0.613E-02    0.78       1.0  T
   3   -304.8957441  0.118898E-03  0.305E-02    0.78       1.0  T
   4   -304.8958791 -0.134965E-03  0.983E-03    0.78       1.0  T
   5   -304.8958815 -0.242360E-05  0.567E-03    0.78       1.4  T
   6   -304.8958845 -0.303128E-05  0.212E-03    0.78       3.6  T
   7   -304.8958849 -0.306587E-06  0.123E-03    0.78       6.2  T
   8   -304.8958849 -0.511379E-07  0.698E-04    0.78      11.0  T
   9   -304.8958849 -0.124208E-07  0.383E-04    0.78      20.0  T
     SCC iter.                  ...        0 min,  0.304 sec
     gradient                   ...        0 min,  0.084 sec
 * total energy  :  -300.8134867 Eh     change       -0.1988982E-02 Eh
   gradient norm :     0.0142553 Eh/α   predicted    -0.2090577E-02 (   5.11%)
   displ. norm   :     0.6857391 α      lambda       -0.2066921E-02
   maximum displ.:     0.1860676 α      in ANC's #44, #25, #24, ...

........................................................................
.............................. CYCLE   15 ..............................
........................................................................
   1   -304.9027928 -0.304903E+03  0.984E-02    0.79       0.0  T
   2   -304.9028159 -0.231652E-04  0.529E-02    0.79       1.0  T
   3   -304.9027562  0.597241E-04  0.245E-02    0.79       1.0  T
   4   -304.9028253 -0.690322E-04  0.835E-03    0.79       1.0  T
   5   -304.9028277 -0.245178E-05  0.507E-03    0.79       1.5  T
   6   -304.9028295 -0.174476E-05  0.182E-03    0.79       4.2  T
   7   -304.9028298 -0.302719E-06  0.107E-03    0.79       7.2  T
   8   -304.9028298 -0.510832E-07  0.601E-04    0.79      12.8  T
   9   -304.9028298 -0.461461E-08  0.368E-04    0.79      20.8  T
     SCC iter.                  ...        0 min,  0.300 sec
     gradient                   ...        0 min,  0.084 sec
 * total energy  :  -300.8151420 Eh     change       -0.1655349E-02 Eh
   gradient norm :     0.0125398 Eh/α   predicted    -0.1519439E-02 (  -8.21%)
   displ. norm   :     0.7016448 α      lambda       -0.1844956E-02
   maximum displ.:     0.2117751 α      in ANC's #25, #24, #33, ...

........................................................................
.............................. CYCLE   16 ..............................
........................................................................
   1   -304.9028416 -0.304903E+03  0.984E-02    0.78       0.0  T
   2   -304.9028572 -0.156029E-04  0.530E-02    0.79       1.0  T
   3   -304.9028110  0.462299E-04  0.218E-02    0.79       1.0  T
   4   -304.9028642 -0.532522E-04  0.779E-03    0.79       1.0  T
   5   -304.9028647 -0.470211E-06  0.482E-03    0.79       1.6  T
   6   -304.9028667 -0.203479E-05  0.183E-03    0.79       4.2  T
   7   -304.9028670 -0.251346E-06  0.116E-03    0.79       6.6  T
   8   -304.9028670 -0.415226E-07  0.633E-04    0.79      12.1  T
   9   -304.9028670 -0.825827E-08  0.370E-04    0.79      20.7  T
     SCC iter.                  ...        0 min,  0.298 sec
     gradient                   ...        0 min,  0.084 sec
 * total energy  :  -300.8166214 Eh     change       -0.1479424E-02 Eh
   gradient norm :     0.0122609 Eh/α   predicted    -0.1376623E-02 (  -6.95%)
   displ. norm   :     0.7182766 α      lambda       -0.1932192E-02
   maximum displ.:     0.2371075 α      in ANC's #25, #20, #24, ...

........................................................................
.............................. CYCLE   17 ..............................
........................................................................
   1   -304.9093957 -0.304909E+03  0.971E-02    0.79       0.0  T
   2   -304.9094220 -0.262313E-04  0.536E-02    0.80       1.0  T
   3   -304.9093771  0.448249E-04  0.215E-02    0.79       1.0  T
   4   -304.9094281 -0.509887E-04  0.809E-03    0.80       1.0  T
   5   -304.9094319 -0.381318E-05  0.473E-03    0.80       1.6  T
   6   -304.9094336 -0.167306E-05  0.168E-03    0.80       4.6  T
   7   -304.9094339 -0.271324E-06  0.863E-04    0.80       8.9  T
   8   -304.9094339 -0.284679E-07  0.505E-04    0.80      15.2  T
     SCC iter.                  ...        0 min,  0.285 sec
     gradient                   ...        0 min,  0.084 sec
 * total energy  :  -300.8180611 Eh     change       -0.1439660E-02 Eh
   gradient norm :     0.0151736 Eh/α   predicted    -0.1464528E-02 (   1.73%)
   displ. norm   :     0.7007264 α      lambda       -0.1764757E-02
   maximum displ.:     0.2356816 α      in ANC's #25, #20, #26, ...

........................................................................
.............................. CYCLE   18 ..............................
........................................................................
   1   -304.8983609 -0.304898E+03  0.981E-02    0.76       0.0  T
   2   -304.8983825 -0.216365E-04  0.536E-02    0.77       1.0  T
   3   -304.8983231  0.593936E-04  0.239E-02    0.78       1.0  T
   4   -304.8983898 -0.666667E-04  0.812E-03    0.78       1.0  T
   5   -304.8983917 -0.189174E-05  0.495E-03    0.78       1.6  T
   6   -304.8983937 -0.202430E-05  0.164E-03    0.78       4.7  T
   7   -304.8983939 -0.197366E-06  0.975E-04    0.78       7.9  T
   8   -304.8983940 -0.364706E-07  0.553E-04    0.78      13.9  T
     SCC iter.                  ...        0 min,  0.280 sec
     gradient                   ...        0 min,  0.084 sec
 * total energy  :  -300.8190951 Eh     change       -0.1034038E-02 Eh
   gradient norm :     0.0175253 Eh/α   predicted    -0.1315643E-02 (  27.23%)
   displ. norm   :     0.5559014 α      lambda       -0.1578227E-02
   maximum displ.:     0.1909138 α      in ANC's #25, #20, #21, ...

........................................................................
.............................. CYCLE   19 ..............................
........................................................................
   1   -304.8982171 -0.304898E+03  0.784E-02    0.78       0.0  T
   2   -304.8982373 -0.201058E-04  0.434E-02    0.78       1.0  T
   3   -304.8981836  0.536609E-04  0.228E-02    0.78       1.0  T
   4   -304.8982443 -0.607505E-04  0.779E-03    0.78       1.0  T
   5   -304.8982486 -0.427240E-05  0.432E-03    0.78       1.8  T
   6   -304.8982498 -0.118185E-05  0.150E-03    0.78       5.1  T
   7   -304.8982500 -0.231120E-06  0.814E-04    0.78       9.4  T
   8   -304.8982500 -0.176383E-07  0.495E-04    0.78      15.5  T
     SCC iter.                  ...        0 min,  0.279 sec
     gradient                   ...        0 min,  0.084 sec
 * total energy  :  -300.8200974 Eh     change       -0.1002282E-02 Eh
   gradient norm :     0.0156865 Eh/α   predicted    -0.1032979E-02 (   3.06%)
   displ. norm   :     0.5346616 α      lambda       -0.1529208E-02
   maximum displ.:     0.1828199 α      in ANC's #25, #21, #10, ...

........................................................................
.............................. CYCLE   20 ..............................
........................................................................
   1   -304.9120298 -0.304912E+03  0.767E-02    0.80       0.0  T
   2   -304.9120607 -0.308597E-04  0.430E-02    0.80       1.0  T
   3   -304.9120191  0.415915E-04  0.223E-02    0.80       1.0  T
   4   -304.9120676 -0.485593E-04  0.800E-03    0.80       1.0  T
   5   -304.9120716 -0.401403E-05  0.453E-03    0.80       1.7  T
   6   -304.9120728 -0.117124E-05  0.176E-03    0.80       4.3  T
   7   -304.9120731 -0.241809E-06  0.984E-04    0.80       7.8  T
   8   -304.9120731 -0.626855E-07  0.558E-04    0.80      13.7  T
     SCC iter.                  ...        0 min,  0.280 sec
     gradient                   ...        0 min,  0.084 sec
 * total energy  :  -300.8207060 Eh     change       -0.6085522E-03 Eh
   gradient norm :     0.0217219 Eh/α   predicted    -0.9831857E-03 (  61.56%)
   displ. norm   :     0.4879057 α      lambda       -0.1613997E-02
   maximum displ.:     0.1612836 α      in ANC's #25, #21, #45, ...
 * RMSD in coord.:     0.7536242 α      energy gain  -0.5182213E+00 Eh

generating ANC from model Hessian ...
Using Lindh-Hessian (1995)
 Shifting diagonal of input Hessian by   1.008215218187637E-002
 Lowest  eigenvalues of input Hessian
    0.010000    0.000000    0.000000    0.000000    0.000000    0.000000
    0.000000    0.010084    0.010084    0.010094    0.010097    0.010104
    0.010111    0.010115    0.010135    0.010148    0.010157    0.010169
 Highest eigenvalues
    2.194153    2.197027    2.200579    2.610452    2.629381    2.640533
 

........................................................................
.............................. CYCLE   21 ..............................
........................................................................
   1   -304.9021754 -0.304902E+03  0.665E-02    0.77       0.0  T
   2   -304.9022064 -0.309512E-04  0.367E-02    0.78       1.0  T
   3   -304.9021845  0.218978E-04  0.173E-02    0.78       1.0  T
   4   -304.9022110 -0.265143E-04  0.704E-03    0.78       1.1  T
   5   -304.9022147 -0.372064E-05  0.394E-03    0.78       1.9  T
   6   -304.9022157 -0.100561E-05  0.138E-03    0.78       5.6  T
   7   -304.9022158 -0.150687E-06  0.772E-04    0.78       9.9  T
   8   -304.9022159 -0.487151E-07  0.416E-04    0.78      18.4  T
     SCC iter.                  ...        0 min,  0.281 sec
     gradient                   ...        0 min,  0.084 sec
 * total energy  :  -300.8215319 Eh     change       -0.8259107E-03 Eh
   gradient norm :     0.0211105 Eh/α   predicted     0.0000000E+00 (-100.00%)
   displ. norm   :     0.1830395 α      lambda       -0.1233608E-02
   maximum displ.:     0.0460511 α      in ANC's #55, #49, #44, ...

........................................................................
.............................. CYCLE   22 ..............................
........................................................................
   1   -304.9074672 -0.304907E+03  0.375E-02    0.79       0.0  T
   2   -304.9074762 -0.892708E-05  0.219E-02    0.78       1.0  T
   3   -304.9074591  0.171028E-04  0.128E-02    0.79       1.0  T
   4   -304.9074808 -0.217477E-04  0.417E-03    0.78       1.8  T
   5   -304.9074822 -0.143304E-05  0.222E-03    0.78       3.5  T
   6   -304.9074825 -0.291616E-06  0.103E-03    0.78       7.5  T
   7   -304.9074826 -0.748666E-07  0.575E-04    0.78      13.3  T
   8   -304.9074826 -0.164783E-07  0.320E-04    0.78      24.0  T
     SCC iter.                  ...        0 min,  0.278 sec
     gradient                   ...        0 min,  0.084 sec
 * total energy  :  -300.8223112 Eh     change       -0.7793328E-03 Eh
   gradient norm :     0.0087253 Eh/α   predicted    -0.6374946E-03 ( -18.20%)
   displ. norm   :     0.3188277 α      lambda       -0.1014588E-02
   maximum displ.:     0.0942097 α      in ANC's #55, #49, #44, ...

........................................................................
.............................. CYCLE   23 ..............................
........................................................................
   1   -304.9118764 -0.304912E+03  0.500E-02    0.79       0.0  T
   2   -304.9118858 -0.934116E-05  0.276E-02    0.79       1.0  T
   3   -304.9118749  0.108830E-04  0.114E-02    0.79       1.0  T
   4   -304.9118875 -0.125844E-04  0.483E-03    0.79       1.6  T
   5   -304.9118890 -0.153597E-05  0.262E-03    0.79       2.9  T
   6   -304.9118894 -0.403792E-06  0.905E-04    0.79       8.5  T
   7   -304.9118895 -0.771586E-07  0.474E-04    0.79      16.2  T
     SCC iter.                  ...        0 min,  0.241 sec
     gradient                   ...        0 min,  0.084 sec
 * total energy  :  -300.8229908 Eh     change       -0.6796010E-03 Eh
   gradient norm :     0.0096539 Eh/α   predicted    -0.5588628E-03 ( -17.77%)
   displ. norm   :     0.4760111 α      lambda       -0.9791695E-03
   maximum displ.:     0.1387780 α      in ANC's #55, #49, #44, ...

........................................................................
.............................. CYCLE   24 ..............................
........................................................................
   1   -304.9105665 -0.304911E+03  0.630E-02    0.79       0.0  T
   2   -304.9105740 -0.748510E-05  0.343E-02    0.79       1.0  T
   3   -304.9105628  0.111593E-04  0.108E-02    0.79       1.0  T
   4   -304.9105749 -0.121014E-04  0.507E-03    0.79       1.5  T
   5   -304.9105764 -0.148717E-05  0.260E-03    0.79       2.9  T
   6   -304.9105770 -0.575596E-06  0.937E-04    0.79       8.2  T
   7   -304.9105771 -0.749877E-07  0.524E-04    0.79      14.6  T
     SCC iter.                  ...        0 min,  0.249 sec
     gradient                   ...        0 min,  0.084 sec
 * total energy  :  -300.8237919 Eh     change       -0.8011185E-03 Eh
   gradient norm :     0.0159775 Eh/α   predicted    -0.6006400E-03 ( -25.02%)
   displ. norm   :     0.6353735 α      lambda       -0.1227942E-02
   maximum displ.:     0.1694422 α      in ANC's #55, #49, #24, ...

........................................................................
.............................. CYCLE   25 ..............................
........................................................................
   1   -304.9047766 -0.304905E+03  0.821E-02    0.79       0.0  T
   2   -304.9047888 -0.121855E-04  0.443E-02    0.79       1.0  T
   3   -304.9047663  0.225016E-04  0.153E-02    0.78       1.0  T
   4   -304.9047902 -0.238641E-04  0.685E-03    0.79       1.1  T
   5   -304.9047929 -0.276361E-05  0.292E-03    0.79       2.6  T
   6   -304.9047935 -0.559929E-06  0.121E-03    0.79       6.3  T
   7   -304.9047937 -0.155080E-06  0.619E-04    0.79      12.4  T
   8   -304.9047937 -0.783746E-08  0.386E-04    0.79      19.9  T
     SCC iter.                  ...        0 min,  0.283 sec
     gradient                   ...        0 min,  0.084 sec
 * total energy  :  -300.8245578 Eh     change       -0.7658814E-03 Eh
   gradient norm :     0.0204044 Eh/α   predicted    -0.8618364E-03 (  12.53%)
   displ. norm   :     0.3622777 α      lambda       -0.1112385E-02
   maximum displ.:     0.1147036 α      in ANC's #24, #11, #27, ...

........................................................................
.............................. CYCLE   26 ..............................
........................................................................
   1   -304.9073963 -0.304907E+03  0.516E-02    0.78       0.0  T
   2   -304.9074062 -0.989120E-05  0.281E-02    0.78       1.0  T
   3   -304.9073872  0.189882E-04  0.141E-02    0.78       1.0  T
   4   -304.9074090 -0.218533E-04  0.497E-03    0.78       1.5  T
   5   -304.9074104 -0.137863E-05  0.273E-03    0.78       2.8  T
   6   -304.9074108 -0.387841E-06  0.975E-04    0.78       7.9  T
   7   -304.9074109 -0.945570E-07  0.534E-04    0.78      14.4  T
     SCC iter.                  ...        0 min,  0.243 sec
     gradient                   ...        0 min,  0.084 sec
 * total energy  :  -300.8253293 Eh     change       -0.7714371E-03 Eh
   gradient norm :     0.0121054 Eh/α   predicted    -0.6291982E-03 ( -18.44%)
   displ. norm   :     0.4949828 α      lambda       -0.8986507E-03
   maximum displ.:     0.1658955 α      in ANC's #24, #11, #17, ...

........................................................................
.............................. CYCLE   27 ..............................
........................................................................
   1   -304.9109857 -0.304911E+03  0.638E-02    0.78       0.0  T
   2   -304.9109945 -0.877540E-05  0.344E-02    0.78       1.0  T
   3   -304.9109704  0.240831E-04  0.155E-02    0.78       1.0  T
   4   -304.9109978 -0.273765E-04  0.538E-03    0.78       1.4  T
   5   -304.9109991 -0.132732E-05  0.309E-03    0.78       2.5  T
   6   -304.9109997 -0.610795E-06  0.100E-03    0.78       7.6  T
   7   -304.9109999 -0.140938E-06  0.476E-04    0.78      16.1  T
   8   -304.9109999 -0.763316E-08  0.254E-04    0.78      30.1  T
     SCC iter.                  ...        0 min,  0.285 sec
     gradient                   ...        0 min,  0.084 sec
 * total energy  :  -300.8260619 Eh     change       -0.7326668E-03 Eh
   gradient norm :     0.0103893 Eh/α   predicted    -0.5594354E-03 ( -23.64%)
   displ. norm   :     0.7057852 α      lambda       -0.1094246E-02
   maximum displ.:     0.2360708 α      in ANC's #24, #11, #17, ...

........................................................................
.............................. CYCLE   28 ..............................
........................................................................
   1   -304.9117063 -0.304912E+03  0.883E-02    0.78       0.0  T
   2   -304.9117187 -0.123871E-04  0.475E-02    0.78       1.0  T
   3   -304.9116839  0.348253E-04  0.187E-02    0.78       1.0  T
   4   -304.9117235 -0.396588E-04  0.693E-03    0.78       1.1  T
   5   -304.9117249 -0.134035E-05  0.381E-03    0.78       2.0  T
   6   -304.9117261 -0.124004E-05  0.122E-03    0.78       6.3  T
   7   -304.9117263 -0.160729E-06  0.645E-04    0.78      11.9  T
   8   -304.9117263 -0.140445E-07  0.319E-04    0.78      24.0  T
     SCC iter.                  ...        0 min,  0.276 sec
     gradient                   ...        0 min,  0.084 sec
 * total energy  :  -300.8269592 Eh     change       -0.8972385E-03 Eh
   gradient norm :     0.0108902 Eh/α   predicted    -0.8196639E-03 (  -8.65%)
   displ. norm   :     0.6493232 α      lambda       -0.1193076E-02
   maximum displ.:     0.2423978 α      in ANC's #11, #24, #17, ...

........................................................................
.............................. CYCLE   29 ..............................
........................................................................
   1   -304.9229182 -0.304923E+03  0.829E-02    0.79       0.0  T
   2   -304.9229366 -0.183931E-04  0.447E-02    0.79       1.0  T
   3   -304.9229119  0.247540E-04  0.164E-02    0.79       1.0  T
   4   -304.9229390 -0.271259E-04  0.706E-03    0.79       1.1  T
   5   -304.9229421 -0.306250E-05  0.345E-03    0.79       2.2  T
   6   -304.9229429 -0.843581E-06  0.143E-03    0.79       5.4  T
   7   -304.9229431 -0.199308E-06  0.720E-04    0.79      10.7  T
   8   -304.9229431 -0.258256E-07  0.405E-04    0.79      18.9  T
     SCC iter.                  ...        0 min,  0.273 sec
     gradient                   ...        0 min,  0.084 sec
 * total energy  :  -300.8276847 Eh     change       -0.7255848E-03 Eh
   gradient norm :     0.0117597 Eh/α   predicted    -0.8480553E-03 (  16.88%)
   displ. norm   :     0.7675329 α      lambda       -0.1126034E-02
   maximum displ.:     0.2527444 α      in ANC's #11, #24, #17, ...

........................................................................
.............................. CYCLE   30 ..............................
........................................................................
   1   -304.9076822 -0.304908E+03  0.932E-02    0.79       0.0  T
   2   -304.9077044 -0.222167E-04  0.498E-02    0.79       1.0  T
   3   -304.9076887  0.157063E-04  0.152E-02    0.79       1.0  T
   4   -304.9077053 -0.165074E-04  0.801E-03    0.79       1.0  T
   5   -304.9077094 -0.415552E-05  0.368E-03    0.79       2.1  T
   6   -304.9077102 -0.821499E-06  0.151E-03    0.79       5.1  T
   7   -304.9077105 -0.270943E-06  0.711E-04    0.79      10.8  T
   8   -304.9077105 -0.199537E-07  0.435E-04    0.79      17.6  T
     SCC iter.                  ...        0 min,  0.276 sec
     gradient                   ...        0 min,  0.084 sec
 * total energy  :  -300.8283449 Eh     change       -0.6601656E-03 Eh
   gradient norm :     0.0140872 Eh/α   predicted    -0.8947003E-03 (  35.53%)
   displ. norm   :     0.4494928 α      lambda       -0.7164164E-03
   maximum displ.:     0.1762720 α      in ANC's #11, #24, #17, ...

........................................................................
.............................. CYCLE   31 ..............................
........................................................................
   1   -304.9088472 -0.304909E+03  0.542E-02    0.78       0.0  T
   2   -304.9088560 -0.880679E-05  0.289E-02    0.79       1.0  T
   3   -304.9088445  0.115069E-04  0.113E-02    0.79       1.0  T
   4   -304.9088572 -0.127303E-04  0.494E-03    0.79       1.6  T
   5   -304.9088587 -0.152691E-05  0.263E-03    0.79       2.9  T
   6   -304.9088591 -0.431945E-06  0.894E-04    0.79       8.6  T
   7   -304.9088592 -0.803677E-07  0.455E-04    0.79      16.8  T
     SCC iter.                  ...        0 min,  0.239 sec
     gradient                   ...        0 min,  0.084 sec
 * total energy  :  -300.8288782 Eh     change       -0.5333170E-03 Eh
   gradient norm :     0.0109378 Eh/α   predicted    -0.4305822E-03 ( -19.26%)
   displ. norm   :     0.5562765 α      lambda       -0.9970509E-03
   maximum displ.:     0.2218697 α      in ANC's #11, #24, #17, ...

........................................................................
.............................. CYCLE   32 ..............................
........................................................................
   1   -304.9174290 -0.304917E+03  0.633E-02    0.79       0.0  T
   2   -304.9174425 -0.135552E-04  0.342E-02    0.79       1.0  T
   3   -304.9174303  0.121771E-04  0.125E-02    0.79       1.0  T
   4   -304.9174437 -0.134154E-04  0.557E-03    0.79       1.4  T
   5   -304.9174456 -0.189289E-05  0.285E-03    0.79       2.7  T
   6   -304.9174462 -0.542490E-06  0.990E-04    0.79       7.8  T
   7   -304.9174463 -0.100593E-06  0.470E-04    0.79      16.3  T
     SCC iter.                  ...        0 min,  0.241 sec
     gradient                   ...        0 min,  0.084 sec
 * total energy  :  -300.8294753 Eh     change       -0.5971005E-03 Eh
   gradient norm :     0.0103878 Eh/α   predicted    -0.6527923E-03 (   9.33%)
   displ. norm   :     0.7034294 α      lambda       -0.7999418E-03
   maximum displ.:     0.2714875 α      in ANC's #11, #24, #17, ...

........................................................................
.............................. CYCLE   33 ..............................
........................................................................
   1   -304.9140356 -0.304914E+03  0.780E-02    0.80       0.0  T
   2   -304.9140482 -0.126049E-04  0.416E-02    0.80       1.0  T
   3   -304.9140307  0.175577E-04  0.143E-02    0.79       1.0  T
   4   -304.9140506 -0.199229E-04  0.632E-03    0.80       1.2  T
   5   -304.9140523 -0.173660E-05  0.336E-03    0.80       2.3  T
   6   -304.9140533 -0.971905E-06  0.986E-04    0.80       7.8  T
   7   -304.9140534 -0.113522E-06  0.520E-04    0.80      14.8  T
     SCC iter.                  ...        0 min,  0.241 sec
     gradient                   ...        0 min,  0.084 sec
 * total energy  :  -300.8301411 Eh     change       -0.6657232E-03 Eh
   gradient norm :     0.0064194 Eh/α   predicted    -0.5978819E-03 ( -10.19%)
   displ. norm   :     0.7075223 α      lambda       -0.7588420E-03
   maximum displ.:     0.2771967 α      in ANC's #11, #17, #24, ...

........................................................................
.............................. CYCLE   34 ..............................
........................................................................
   1   -304.9166328 -0.304917E+03  0.779E-02    0.80       0.0  T
   2   -304.9166478 -0.149998E-04  0.412E-02    0.80       1.0  T
   3   -304.9166235  0.243004E-04  0.162E-02    0.80       1.0  T
   4   -304.9166515 -0.279786E-04  0.659E-03    0.80       1.2  T
   5   -304.9166535 -0.202414E-05  0.391E-03    0.80       2.0  T
   6   -304.9166547 -0.123094E-05  0.107E-03    0.80       7.2  T
   7   -304.9166549 -0.149719E-06  0.486E-04    0.80      15.8  T
   8   -304.9166549 -0.708002E-08  0.285E-04    0.80      26.9  T
     SCC iter.                  ...        0 min,  0.276 sec
     gradient                   ...        0 min,  0.084 sec
 * total energy  :  -300.8307362 Eh     change       -0.5951358E-03 Eh
   gradient norm :     0.0082521 Eh/α   predicted    -0.5693553E-03 (  -4.33%)
   displ. norm   :     0.7399424 α      lambda       -0.7139351E-03
   maximum displ.:     0.2974354 α      in ANC's #11, #24, #17, ...

........................................................................
.............................. CYCLE   35 ..............................
........................................................................
   1   -304.9159127 -0.304916E+03  0.793E-02    0.79       0.0  T
   2   -304.9159254 -0.126572E-04  0.423E-02    0.79       1.0  T
   3   -304.9159018  0.235624E-04  0.168E-02    0.79       1.0  T
   4   -304.9159296 -0.277768E-04  0.632E-03    0.80       1.2  T
   5   -304.9159304 -0.851683E-06  0.353E-03    0.80       2.2  T
   6   -304.9159315 -0.104031E-05  0.959E-04    0.80       8.0  T
   7   -304.9159316 -0.101385E-06  0.504E-04    0.80      15.2  T
   8   -304.9159316 -0.116246E-07  0.274E-04    0.80      28.0  T
     SCC iter.                  ...        0 min,  0.275 sec
     gradient                   ...        0 min,  0.084 sec
 * total energy  :  -300.8313292 Eh     change       -0.5930137E-03 Eh
   gradient norm :     0.0091383 Eh/α   predicted    -0.5524131E-03 (  -6.85%)
   displ. norm   :     0.6632981 α      lambda       -0.8952040E-03
   maximum displ.:     0.2556710 α      in ANC's #11, #4, #17, ...

........................................................................
.............................. CYCLE   36 ..............................
........................................................................
   1   -304.9364512 -0.304936E+03  0.776E-02    0.80       0.0  T
   2   -304.9364698 -0.186081E-04  0.418E-02    0.80       1.0  T
   3   -304.9364335  0.362413E-04  0.199E-02    0.80       1.0  T
   4   -304.9364749 -0.413941E-04  0.677E-03    0.80       1.1  T
   5   -304.9364766 -0.166915E-05  0.390E-03    0.80       2.0  T
   6   -304.9364775 -0.962808E-06  0.125E-03    0.80       6.1  T
   7   -304.9364777 -0.140811E-06  0.694E-04    0.80      11.0  T
   8   -304.9364777 -0.261504E-07  0.407E-04    0.80      18.8  T
     SCC iter.                  ...        0 min,  0.273 sec
     gradient                   ...        0 min,  0.084 sec
 * total energy  :  -300.8317479 Eh     change       -0.4186869E-03 Eh
   gradient norm :     0.0133360 Eh/α   predicted    -0.6445307E-03 (  53.94%)
   displ. norm   :     0.6552440 α      lambda       -0.1043559E-02
   maximum displ.:     0.2500915 α      in ANC's #11, #17, #24, ...

........................................................................
.............................. CYCLE   37 ..............................
........................................................................
   1   -304.9228614 -0.304923E+03  0.820E-02    0.80       0.0  T
   2   -304.9228865 -0.251159E-04  0.432E-02    0.80       1.0  T
   3   -304.9228502  0.363064E-04  0.199E-02    0.80       1.0  T
   4   -304.9228933 -0.430919E-04  0.769E-03    0.80       1.0  T
   5   -304.9228960 -0.266907E-05  0.444E-03    0.80       1.7  T
   6   -304.9228969 -0.930043E-06  0.155E-03    0.80       4.9  T
   7   -304.9228972 -0.268106E-06  0.798E-04    0.80       9.6  T
   8   -304.9228972 -0.379046E-07  0.466E-04    0.80      16.5  T
     SCC iter.                  ...        0 min,  0.277 sec
     gradient                   ...        0 min,  0.084 sec
 * total energy  :  -300.8322510 Eh     change       -0.5030985E-03 Eh
   gradient norm :     0.0144247 Eh/α   predicted    -0.7458035E-03 (  48.24%)
   displ. norm   :     0.5510701 α      lambda       -0.7382355E-03
   maximum displ.:     0.2345831 α      in ANC's #11, #24, #4, ...

........................................................................
.............................. CYCLE   38 ..............................
........................................................................
   1   -304.9188706 -0.304919E+03  0.621E-02    0.80       0.0  T
   2   -304.9188818 -0.111632E-04  0.324E-02    0.80       1.0  T
   3   -304.9188686  0.132106E-04  0.126E-02    0.80       1.0  T
   4   -304.9188843 -0.157056E-04  0.518E-03    0.80       1.5  T
   5   -304.9188851 -0.870614E-06  0.290E-03    0.80       2.6  T
   6   -304.9188857 -0.553520E-06  0.103E-03    0.80       7.5  T
   7   -304.9188858 -0.117852E-06  0.547E-04    0.80      14.0  T
   8   -304.9188858 -0.139861E-07  0.322E-04    0.80      23.8  T
     SCC iter.                  ...        0 min,  0.276 sec
     gradient                   ...        0 min,  0.084 sec
 * total energy  :  -300.8327558 Eh     change       -0.5048295E-03 Eh
   gradient norm :     0.0093263 Eh/α   predicted    -0.4812159E-03 (  -4.68%)
   displ. norm   :     0.5625426 α      lambda       -0.5749550E-03
   maximum displ.:     0.2396709 α      in ANC's #11, #4, #17, ...

........................................................................
.............................. CYCLE   39 ..............................
........................................................................
   1   -304.9248411 -0.304925E+03  0.598E-02    0.79       0.0  T
   2   -304.9248506 -0.951937E-05  0.314E-02    0.80       1.0  T
   3   -304.9248334  0.171651E-04  0.141E-02    0.80       1.0  T
   4   -304.9248534 -0.199109E-04  0.518E-03    0.80       1.5  T
   5   -304.9248543 -0.991748E-06  0.319E-03    0.80       2.4  T
   6   -304.9248550 -0.648490E-06  0.829E-04    0.80       9.3  T
   7   -304.9248550 -0.465642E-07  0.522E-04    0.80      14.7  T
     SCC iter.                  ...        0 min,  0.239 sec
     gradient                   ...        0 min,  0.084 sec
 * total energy  :  -300.8332300 Eh     change       -0.4741359E-03 Eh
   gradient norm :     0.0060056 Eh/α   predicted    -0.3784527E-03 ( -20.18%)
   displ. norm   :     0.7262107 α      lambda       -0.6944037E-03
   maximum displ.:     0.3101190 α      in ANC's #11, #4, #17, ...

........................................................................
.............................. CYCLE   40 ..............................
........................................................................
   1   -304.9302697 -0.304930E+03  0.791E-02    0.80       0.0  T
   2   -304.9302822 -0.124585E-04  0.413E-02    0.80       1.0  T
   3   -304.9302559  0.263488E-04  0.177E-02    0.80       1.0  T
   4   -304.9302869 -0.310696E-04  0.630E-03    0.80       1.2  T
   5   -304.9302875 -0.569628E-06  0.337E-03    0.80       2.3  T
   6   -304.9302882 -0.742116E-06  0.119E-03    0.80       6.5  T
   7   -304.9302883 -0.910151E-07  0.768E-04    0.80      10.0  T
   8   -304.9302884 -0.274287E-07  0.423E-04    0.80      18.1  T
     SCC iter.                  ...        0 min,  0.273 sec
     gradient                   ...        0 min,  0.084 sec
 * total energy  :  -300.8337791 Eh     change       -0.5491235E-03 Eh
   gradient norm :     0.0067851 Eh/α   predicted    -0.5303129E-03 (  -3.43%)
   displ. norm   :     0.7609474 α      lambda       -0.7214191E-03
   maximum displ.:     0.3191853 α      in ANC's #11, #4, #17, ...

........................................................................
.............................. CYCLE   41 ..............................
........................................................................
   1   -304.9294155 -0.304929E+03  0.869E-02    0.81       0.0  T
   2   -304.9294328 -0.173462E-04  0.453E-02    0.81       1.0  T
   3   -304.9294018  0.309880E-04  0.193E-02    0.81       1.0  T
   4   -304.9294379 -0.360543E-04  0.714E-03    0.81       1.1  T
   5   -304.9294390 -0.117985E-05  0.378E-03    0.81       2.0  T
   6   -304.9294399 -0.881059E-06  0.114E-03    0.81       6.7  T
   7   -304.9294400 -0.701704E-07  0.707E-04    0.81      10.9  T
   8   -304.9294400 -0.185227E-07  0.451E-04    0.81      17.0  T
     SCC iter.                  ...        0 min,  0.278 sec
     gradient                   ...        0 min,  0.084 sec
 * total energy  :  -300.8342713 Eh     change       -0.4921808E-03 Eh
   gradient norm :     0.0110037 Eh/α   predicted    -0.5695810E-03 (  15.73%)
   displ. norm   :     0.6987404 α      lambda       -0.6596653E-03
   maximum displ.:     0.2928720 α      in ANC's #11, #4, #17, ...

........................................................................
.............................. CYCLE   42 ..............................
........................................................................
   1   -304.9252907 -0.304925E+03  0.769E-02    0.80       0.0  T
   2   -304.9253098 -0.191304E-04  0.404E-02    0.80       1.0  T
   3   -304.9252828  0.270184E-04  0.180E-02    0.80       1.0  T
   4   -304.9253140 -0.312439E-04  0.703E-03    0.80       1.1  T
   5   -304.9253164 -0.240831E-05  0.418E-03    0.80       1.8  T
   6   -304.9253175 -0.104445E-05  0.111E-03    0.80       6.9  T
   7   -304.9253176 -0.979405E-07  0.645E-04    0.80      11.9  T
   8   -304.9253176 -0.225993E-07  0.381E-04    0.80      20.1  T
     SCC iter.                  ...        0 min,  0.274 sec
     gradient                   ...        0 min,  0.084 sec
 * total energy  :  -300.8346610 Eh     change       -0.3897443E-03 Eh
   gradient norm :     0.0114606 Eh/α   predicted    -0.4908767E-03 (  25.95%)
   displ. norm   :     0.5386173 α      lambda       -0.6696393E-03
   maximum displ.:     0.2193656 α      in ANC's #11, #4, #24, ...
 * RMSD in coord.:     0.8992300 α      energy gain  -0.1395503E-01 Eh

generating ANC from model Hessian ...
Using Lindh-Hessian (1995)
 Shifting diagonal of input Hessian by   1.014965675333203E-002
 Lowest  eigenvalues of input Hessian
    0.010000    0.000000    0.000000    0.000000    0.000000    0.000000
    0.000000    0.010154    0.010156    0.010160    0.010165    0.010169
    0.010176    0.010180    0.010195    0.010210    0.010221    0.010247
 Highest eigenvalues
    2.194217    2.197938    2.198182    2.600482    2.629880    2.631412
 

........................................................................
.............................. CYCLE   43 ..............................
........................................................................
   1   -304.9279487 -0.304928E+03  0.610E-02    0.79       0.0  T
   2   -304.9279598 -0.110881E-04  0.318E-02    0.80       1.0  T
   3   -304.9279412  0.186042E-04  0.149E-02    0.80       1.0  T
   4   -304.9279635 -0.222553E-04  0.526E-03    0.80       1.5  T
   5   -304.9279642 -0.740746E-06  0.305E-03    0.80       2.5  T
   6   -304.9279648 -0.591998E-06  0.972E-04    0.80       7.9  T
   7   -304.9279649 -0.776333E-07  0.537E-04    0.80      14.3  T
     SCC iter.                  ...        0 min,  0.242 sec
     gradient                   ...        0 min,  0.084 sec
 * total energy  :  -300.8350766 Eh     change       -0.4156224E-03 Eh
   gradient norm :     0.0103721 Eh/α   predicted     0.0000000E+00 (-100.00%)
   displ. norm   :     0.1071878 α      lambda       -0.3159180E-03
   maximum displ.:     0.0317919 α      in ANC's #25, #8, #11, ...

........................................................................
.............................. CYCLE   44 ..............................
........................................................................
   1   -304.9279313 -0.304928E+03  0.205E-02    0.81       0.0  T
   2   -304.9279343 -0.301571E-05  0.115E-02    0.81       1.0  T
   3   -304.9279302  0.409232E-05  0.683E-03    0.80       1.1  T
   4   -304.9279357 -0.555587E-05  0.244E-03    0.80       3.1  T
   5   -304.9279362 -0.474368E-06  0.118E-03    0.80       6.5  T
   6   -304.9279363 -0.595070E-07  0.579E-04    0.80      13.2  T
   7   -304.9279363 -0.300722E-07  0.275E-04    0.80      27.9  T
     SCC iter.                  ...        0 min,  0.241 sec
     gradient                   ...        0 min,  0.083 sec
 * total energy  :  -300.8352849 Eh     change       -0.2082453E-03 Eh
   gradient norm :     0.0051359 Eh/α   predicted    -0.1597747E-03 ( -23.28%)
   displ. norm   :     0.2454654 α      lambda       -0.4106742E-03
   maximum displ.:     0.0757525 α      in ANC's #25, #8, #6, ...

........................................................................
.............................. CYCLE   45 ..............................
........................................................................
   1   -304.9271145 -0.304927E+03  0.358E-02    0.82       0.0  T
   2   -304.9271235 -0.900485E-05  0.192E-02    0.82       1.0  T
   3   -304.9271183  0.521557E-05  0.929E-03    0.81       1.0  T
   4   -304.9271251 -0.681384E-05  0.413E-03    0.81       1.9  T
   5   -304.9271262 -0.111050E-05  0.220E-03    0.81       3.5  T
   6   -304.9271264 -0.222440E-06  0.816E-04    0.81       9.4  T
   7   -304.9271265 -0.400415E-07  0.493E-04    0.81      15.6  T
     SCC iter.                  ...        0 min,  0.242 sec
     gradient                   ...        0 min,  0.084 sec
 * total energy  :  -300.8355292 Eh     change       -0.2443809E-03 Eh
   gradient norm :     0.0077152 Eh/α   predicted    -0.2179692E-03 ( -10.81%)
   displ. norm   :     0.2693531 α      lambda       -0.2904541E-03
   maximum displ.:     0.0845639 α      in ANC's #25, #8, #11, ...

........................................................................
.............................. CYCLE   46 ..............................
........................................................................
   1   -304.9260095 -0.304926E+03  0.336E-02    0.81       0.0  T
   2   -304.9260119 -0.245661E-05  0.177E-02    0.82       1.0  T
   3   -304.9260055  0.636915E-05  0.835E-03    0.81       1.0  T
   4   -304.9260131 -0.759662E-05  0.279E-03    0.81       2.7  T
   5   -304.9260132 -0.981166E-07  0.164E-03    0.81       4.7  T
   6   -304.9260134 -0.190124E-06  0.560E-04    0.81      13.7  T
   7   -304.9260135 -0.312160E-07  0.294E-04    0.81      26.1  T
     SCC iter.                  ...        0 min,  0.242 sec
     gradient                   ...        0 min,  0.083 sec
 * total energy  :  -300.8357654 Eh     change       -0.2361377E-03 Eh
   gradient norm :     0.0099222 Eh/α   predicted    -0.1557867E-03 ( -34.03%)
   displ. norm   :     0.5169918 α      lambda       -0.5433115E-03
   maximum displ.:     0.1663808 α      in ANC's #25, #8, #11, ...

........................................................................
.............................. CYCLE   47 ..............................
........................................................................
   1   -304.9235493 -0.304924E+03  0.623E-02    0.80       0.0  T
   2   -304.9235577 -0.848046E-05  0.327E-02    0.81       1.0  T
   3   -304.9235426  0.151802E-04  0.139E-02    0.81       1.0  T
   4   -304.9235608 -0.182602E-04  0.508E-03    0.81       1.5  T
   5   -304.9235612 -0.375042E-06  0.272E-03    0.81       2.8  T
   6   -304.9235618 -0.562667E-06  0.812E-04    0.81       9.4  T
   7   -304.9235618 -0.556772E-07  0.459E-04    0.81      16.7  T
     SCC iter.                  ...        0 min,  0.243 sec
     gradient                   ...        0 min,  0.083 sec
 * total energy  :  -300.8361551 Eh     change       -0.3896795E-03 Eh
   gradient norm :     0.0108047 Eh/α   predicted    -0.3442697E-03 ( -11.65%)
   displ. norm   :     0.4271338 α      lambda       -0.4779995E-03
   maximum displ.:     0.1396330 α      in ANC's #25, #11, #8, ...

........................................................................
.............................. CYCLE   48 ..............................
........................................................................
   1   -304.9242106 -0.304924E+03  0.522E-02    0.79       0.0  T
   2   -304.9242190 -0.837827E-05  0.271E-02    0.80       1.0  T
   3   -304.9242036  0.154008E-04  0.132E-02    0.80       1.0  T
   4   -304.9242221 -0.185514E-04  0.450E-03    0.80       1.7  T
   5   -304.9242227 -0.540346E-06  0.277E-03    0.80       2.8  T
   6   -304.9242231 -0.458407E-06  0.797E-04    0.80       9.6  T
   7   -304.9242232 -0.638298E-07  0.428E-04    0.80      17.9  T
     SCC iter.                  ...        0 min,  0.241 sec
     gradient                   ...        0 min,  0.084 sec
 * total energy  :  -300.8364993 Eh     change       -0.3442781E-03 Eh
   gradient norm :     0.0087967 Eh/α   predicted    -0.2826049E-03 ( -17.91%)
   displ. norm   :     0.4939105 α      lambda       -0.4508129E-03
   maximum displ.:     0.1663780 α      in ANC's #11, #25, #8, ...

........................................................................
.............................. CYCLE   49 ..............................
........................................................................
   1   -304.9255479 -0.304926E+03  0.593E-02    0.79       0.0  T
   2   -304.9255544 -0.648739E-05  0.306E-02    0.79       1.0  T
   3   -304.9255332  0.212170E-04  0.150E-02    0.79       1.0  T
   4   -304.9255583 -0.251534E-04  0.460E-03    0.79       1.7  T
   5   -304.9255583  0.435140E-07  0.227E-03    0.79       3.4  T
   6   -304.9255587 -0.412480E-06  0.746E-04    0.79      10.3  T
   7   -304.9255587 -0.456044E-07  0.454E-04    0.79      16.9  T
     SCC iter.                  ...        0 min,  0.249 sec
     gradient                   ...        0 min,  0.084 sec
 * total energy  :  -300.8368540 Eh     change       -0.3546204E-03 Eh
   gradient norm :     0.0076861 Eh/α   predicted    -0.2803959E-03 ( -20.93%)
   displ. norm   :     0.6347466 α      lambda       -0.4905384E-03
   maximum displ.:     0.2189168 α      in ANC's #11, #8, #25, ...

........................................................................
.............................. CYCLE   50 ..............................
........................................................................
   1   -304.9252354 -0.304925E+03  0.764E-02    0.79       0.0  T
   2   -304.9252462 -0.107468E-04  0.390E-02    0.79       1.0  T
   3   -304.9252173  0.288262E-04  0.182E-02    0.79       1.0  T
   4   -304.9252517 -0.343059E-04  0.593E-03    0.79       1.3  T
   5   -304.9252517 -0.418504E-07  0.289E-03    0.79       2.7  T
   6   -304.9252524 -0.669865E-06  0.913E-04    0.79       8.4  T
   7   -304.9252524 -0.566844E-07  0.560E-04    0.79      13.7  T
     SCC iter.                  ...        0 min,  0.243 sec
     gradient                   ...        0 min,  0.083 sec
 * total energy  :  -300.8372443 Eh     change       -0.3903474E-03 Eh
   gradient norm :     0.0062279 Eh/α   predicted    -0.3441020E-03 ( -11.85%)
   displ. norm   :     0.5708788 α      lambda       -0.5106036E-03
   maximum displ.:     0.2209950 α      in ANC's #11, #8, #6, ...

........................................................................
.............................. CYCLE   51 ..............................
........................................................................
   1   -304.9328464 -0.304933E+03  0.671E-02    0.80       0.0  T
   2   -304.9328597 -0.133039E-04  0.346E-02    0.80       1.0  T
   3   -304.9328246  0.351680E-04  0.193E-02    0.80       1.0  T
   4   -304.9328661 -0.415427E-04  0.567E-03    0.80       1.4  T
   5   -304.9328664 -0.306080E-06  0.316E-03    0.80       2.4  T
   6   -304.9328670 -0.579235E-06  0.106E-03    0.80       7.2  T
   7   -304.9328671 -0.806122E-07  0.616E-04    0.80      12.5  T
   8   -304.9328671 -0.191296E-07  0.366E-04    0.80      20.9  T
     SCC iter.                  ...        0 min,  0.275 sec
     gradient                   ...        0 min,  0.083 sec
 * total energy  :  -300.8375254 Eh     change       -0.2811364E-03 Eh
   gradient norm :     0.0104835 Eh/α   predicted    -0.3385089E-03 (  20.41%)
   displ. norm   :     0.6691948 α      lambda       -0.5183551E-03
   maximum displ.:     0.2413660 α      in ANC's #11, #8, #25, ...

........................................................................
.............................. CYCLE   52 ..............................
........................................................................
   1   -304.9256871 -0.304926E+03  0.784E-02    0.80       0.0  T
   2   -304.9257025 -0.153798E-04  0.402E-02    0.80       1.0  T
   3   -304.9256696  0.329057E-04  0.198E-02    0.80       1.0  T
   4   -304.9257088 -0.392270E-04  0.625E-03    0.80       1.2  T
   5   -304.9257091 -0.254750E-06  0.300E-03    0.80       2.6  T
   6   -304.9257096 -0.559816E-06  0.988E-04    0.80       7.8  T
   7   -304.9257097 -0.952442E-07  0.524E-04    0.80      14.6  T
     SCC iter.                  ...        0 min,  0.240 sec
     gradient                   ...        0 min,  0.083 sec
 * total energy  :  -300.8378449 Eh     change       -0.3194267E-03 Eh
   gradient norm :     0.0087573 Eh/α   predicted    -0.3752439E-03 (  17.47%)
   displ. norm   :     0.4162666 α      lambda       -0.3120897E-03
   maximum displ.:     0.1642291 α      in ANC's #11, #8, #6, ...

........................................................................
.............................. CYCLE   53 ..............................
........................................................................
   1   -304.9257237 -0.304926E+03  0.468E-02    0.79       0.0  T
   2   -304.9257289 -0.517826E-05  0.237E-02    0.80       1.0  T
   3   -304.9257201  0.877961E-05  0.107E-02    0.80       1.0  T
   4   -304.9257308 -0.106992E-04  0.380E-03    0.80       2.0  T
   5   -304.9257309 -0.148486E-06  0.230E-03    0.80       3.3  T
   6   -304.9257313 -0.361663E-06  0.577E-04    0.80      13.3  T
   7   -304.9257313 -0.204581E-07  0.380E-04    0.80      20.2  T
     SCC iter.                  ...        0 min,  0.242 sec
     gradient                   ...        0 min,  0.084 sec
 * total energy  :  -300.8381146 Eh     change       -0.2697138E-03 Eh
   gradient norm :     0.0078335 Eh/α   predicted    -0.1830853E-03 ( -32.12%)
   displ. norm   :     0.5424157 α      lambda       -0.6312339E-03
   maximum displ.:     0.2312411 α      in ANC's #11, #8, #6, ...

........................................................................
.............................. CYCLE   54 ..............................
........................................................................
   1   -304.9329916 -0.304933E+03  0.602E-02    0.79       0.0  T
   2   -304.9330030 -0.113748E-04  0.314E-02    0.80       1.0  T
   3   -304.9329862  0.168437E-04  0.144E-02    0.79       1.0  T
   4   -304.9330066 -0.204228E-04  0.532E-03    0.80       1.4  T
   5   -304.9330073 -0.727372E-06  0.342E-03    0.80       2.2  T
   6   -304.9330080 -0.711727E-06  0.967E-04    0.80       7.9  T
   7   -304.9330081 -0.755118E-07  0.620E-04    0.80      12.4  T
     SCC iter.                  ...        0 min,  0.240 sec
     gradient                   ...        0 min,  0.084 sec
 * total energy  :  -300.8385064 Eh     change       -0.3918242E-03 Eh
   gradient norm :     0.0063151 Eh/α   predicted    -0.4084842E-03 (   4.25%)
   displ. norm   :     0.7704698 α      lambda       -0.4739517E-03
   maximum displ.:     0.3134586 α      in ANC's #11, #8, #6, ...

........................................................................
.............................. CYCLE   55 ..............................
........................................................................
   1   -304.9277708 -0.304928E+03  0.874E-02    0.79       0.0  T
   2   -304.9277865 -0.156898E-04  0.439E-02    0.79       1.0  T
   3   -304.9277529  0.336123E-04  0.205E-02    0.79       1.0  T
   4   -304.9277936 -0.406892E-04  0.667E-03    0.79       1.1  T
   5   -304.9277936 -0.174209E-07  0.356E-03    0.79       2.2  T
   6   -304.9277945 -0.906001E-06  0.925E-04    0.79       8.3  T
   7   -304.9277946 -0.740532E-07  0.550E-04    0.79      13.9  T
     SCC iter.                  ...        0 min,  0.240 sec
     gradient                   ...        0 min,  0.083 sec
 * total energy  :  -300.8388832 Eh     change       -0.3767601E-03 Eh
   gradient norm :     0.0070147 Eh/α   predicted    -0.3776521E-03 (   0.24%)
   displ. norm   :     0.6748264 α      lambda       -0.4126462E-03
   maximum displ.:     0.2858010 α      in ANC's #11, #8, #6, ...

........................................................................
.............................. CYCLE   56 ..............................
........................................................................
   1   -304.9260242 -0.304926E+03  0.704E-02    0.80       0.0  T
   2   -304.9260347 -0.105083E-04  0.359E-02    0.80       1.0  T
   3   -304.9260050  0.297085E-04  0.185E-02    0.80       1.0  T
   4   -304.9260406 -0.355335E-04  0.548E-03    0.80       1.4  T
   5   -304.9260405  0.101466E-06  0.308E-03    0.80       2.5  T
   6   -304.9260411 -0.681044E-06  0.874E-04    0.80       8.8  T
   7   -304.9260412 -0.720164E-07  0.505E-04    0.80      15.2  T
     SCC iter.                  ...        0 min,  0.240 sec
     gradient                   ...        0 min,  0.084 sec
 * total energy  :  -300.8392061 Eh     change       -0.3229769E-03 Eh
[...]
    82   6 C    3.978 --    83 C    1.488    81 C    1.351   152 H    0.963
    83   6 C    3.976 --    82 C    1.488    75 C    1.335   153 H    0.965
    84   6 C    3.935 --    85 C    1.557    81 C    1.116   108 S    1.093
    85   6 C    3.973 --    84 C    1.557    86 C    1.226   154 H    0.933
    86   6 C    3.982 --   107 C    1.265    87 C    1.260    85 C    1.226
    87   6 C    3.956 --    96 C    1.349    86 C    1.260    88 C    1.109
    88   6 C    3.960 --    89 C    1.520    95 Se   1.148    87 C    1.109
    89   6 C    3.961 --    88 C    1.520    90 C    1.292   155 H    0.955
    90   6 C    3.980 --    91 C    1.559    89 C    1.292   156 H    0.962
    91   6 C    3.926 --    90 C    1.559    95 Se   1.174    92 S    1.039
    92  16 S    2.164 --    91 C    1.039    93 C    0.957
    93   6 C    3.975 --    94 C    1.029   157 H    0.977   158 H    0.972
                            92 S    0.957
    94   6 C    3.993 --    93 C    1.029   160 H    0.980   161 H    0.978
                           159 H    0.977
    95  34 Se   2.909 --    91 C    1.174    88 C    1.148
    96   6 C    3.952 --    87 C    1.349    97 C    1.268   111 S    1.106
    97   6 C    3.971 --    98 C    1.275    96 C    1.268   109 C    1.200
    98   6 C    3.953 --   107 C    1.349    97 C    1.275    99 C    1.098
    99   6 C    3.956 --   100 C    1.548   106 Se   1.108    98 C    1.098
   100   6 C    3.976 --    99 C    1.548   101 C    1.274   162 H    0.955
   101   6 C    3.981 --   102 C    1.550   100 C    1.274   163 H    0.961
   102   6 C    3.920 --   101 C    1.550   106 Se   1.143   103 S    1.075
   103  16 S    2.281 --   102 C    1.075   104 C    0.976
   104   6 C    3.975 --   105 C    1.027   103 S    0.976   164 H    0.971
                           165 H    0.952
   105   6 C    3.993 --   104 C    1.027   167 H    0.985   168 H    0.978
                           166 H    0.975
   106  34 Se   2.710 --   102 C    1.143    99 C    1.108
   107   6 C    3.944 --    98 C    1.349    86 C    1.265   108 S    1.099
   108  16 S    2.504 --   107 C    1.099    84 C    1.093
   109   6 C    3.980 --   110 C    1.672    97 C    1.200   169 H    0.941
   110   6 C    3.929 --   109 C    1.672   111 S    1.155   170 H    0.969
   111  16 S    2.549 --   110 C    1.155    96 C    1.106
   112   1 H    0.996 --     1 C    0.968
   113   1 H    0.993 --     2 C    0.961
   114   1 H    0.996 --     8 C    0.967
   115   1 H    0.996 --     9 C    0.968
   116   1 H    0.997 --    11 C    0.957
   117   1 H    0.997 --    15 C    0.958
   118   1 H    0.997 --    16 C    0.961
   119   1 H    0.996 --    19 C    0.959
   120   1 H    0.996 --    19 C    0.959
   121   1 H    0.997 --    20 C    0.979
   122   1 H    0.997 --    20 C    0.985
   123   1 H    0.997 --    20 C    0.984
   124   1 H    0.997 --    26 C    0.954
   125   1 H    0.997 --    27 C    0.962
   126   1 H    0.996 --    30 C    0.951
   127   1 H    0.996 --    30 C    0.971
   128   1 H    0.997 --    31 C    0.971
   129   1 H    0.997 --    31 C    0.985
   130   1 H    0.995 --    31 C    0.975
   131   1 H    0.995 --    35 C    0.932
   132   1 H    0.993 --    39 C    0.955
   133   1 H    0.995 --    45 C    0.963
   134   1 H    0.995 --    46 C    0.960
   135   1 H    0.994 --    48 C    0.935
   136   1 H    0.998 --    52 C    0.955
   137   1 H    0.998 --    53 C    0.958
   138   1 H    0.995 --    56 C    0.970
   139   1 H    0.997 --    56 C    0.972
   140   1 H    0.997 --    57 C    0.978
   141   1 H    0.997 --    57 C    0.986
   142   1 H    0.998 --    57 C    0.983
   143   1 H    0.998 --    63 C    0.959
   144   1 H    0.997 --    64 C    0.962
   145   1 H    0.996 --    67 C    0.950
   146   1 H    0.996 --    67 C    0.971
   147   1 H    0.996 --    68 C    0.970
   148   1 H    0.997 --    68 C    0.977
   149   1 H    0.997 --    68 C    0.984
   150   1 H    0.997 --    72 C    0.955
   151   1 H    0.994 --    76 C    0.956
   152   1 H    0.994 --    82 C    0.963
   153   1 H    0.996 --    83 C    0.965
   154   1 H    0.996 --    85 C    0.933
   155   1 H    0.998 --    89 C    0.955
   156   1 H    0.998 --    90 C    0.962
   157   1 H    0.998 --    93 C    0.977
   158   1 H    0.997 --    93 C    0.972
   159   1 H    0.998 --    94 C    0.977
   160   1 H    0.995 --    94 C    0.980
   161   1 H    0.998 --    94 C    0.978
   162   1 H    0.997 --   100 C    0.955
   163   1 H    0.997 --   101 C    0.961
   164   1 H    0.996 --   104 C    0.971
   165   1 H    0.996 --   104 C    0.952
   166   1 H    0.997 --   105 C    0.975
   167   1 H    0.997 --   105 C    0.985
   168   1 H    0.997 --   105 C    0.978
   169   1 H    0.996 --   109 C    0.941
   170   1 H    0.997 --   110 C    0.969
 ---------------------------------------------------------------------------

Topologies differ in total number of bonds
Writing corrected topology to xtbtopo.mol

molecular dipole:
                 x           y           z       tot (Debye)
 q only:       -0.924       4.358       1.960
   full:       -1.659       3.829       2.242      12.040
molecular quadrupole (traceless):
                xx          xy          yy          xz          yz          zz
 q only:      -90.322      15.602      38.738     -79.466       8.058      51.584
  q+dip:      -77.486      12.829      36.628     -49.816      12.356      40.858
   full:      -84.807      11.513      43.918     -50.770      12.805      40.889

           -------------------------------------------------
          |                Geometry Summary                 |
           -------------------------------------------------

      molecular mass/u    :     2064.9206393
   center of mass at/Å    :       -0.1332716      -0.5249264      -0.2996671
  moments of inertia/u·Å² :        0.3816237E+05   0.2218172E+06   0.2419534E+06
rotational constants/cm⁻¹ :        0.4417345E-03   0.7599785E-04   0.6967306E-04

 * 164 selected distances

     #   Z          #   Z                                           value/Å
     1   6 C        2   6 C                                       1.3801713
     2   6 C        3   6 C                                       1.3898338
     4   7 N        5   8 O                                       1.2120894
     4   7 N        6   8 O                                       1.2130145
     3   6 C        7   6 C                                       1.4010926
     7   6 C        8   6 C                                       1.3968399
     1   6 C        9   6 C                                       1.3878663
     8   6 C        9   6 C                                       1.3811276
    10   6 C       11   6 C                                       1.3585993
    11   6 C       12   6 C                                       1.4194903
    12   6 C       13   6 C                                       1.4105513
    14   6 C       15   6 C                                       1.3685020
    15   6 C       16   6 C                                       1.4070031
    16   6 C       17   6 C                                       1.3669878
    17   6 C       18  16 S                                       1.7458098
    19   6 C       20   6 C                                       1.5143577
    14   6 C       21  34 Se                                      1.8871861
    17   6 C       21  34 Se                                      1.8841126
    13   6 C       22   6 C                                       1.3914074
    22   6 C       23   6 C                                       1.4128964
    23   6 C       24   6 C                                       1.4112869
    25   6 C       26   6 C                                       1.3689005
    26   6 C       27   6 C                                       1.4077938
    27   6 C       28   6 C                                       1.3660644
    28   6 C       29  16 S                                       1.7467678
    30   6 C       31   6 C                                       1.5146583
    25   6 C       32  34 Se                                      1.8882719
    28   6 C       32  34 Se                                      1.8796277
    12   6 C       33   6 C                                       1.4153392
    24   6 C       33   6 C                                       1.3942370
    10   6 C       34  16 S                                       1.7469616
    33   6 C       34  16 S                                       1.7393474
    23   6 C       35   6 C                                       1.4171155
    35   6 C       36   6 C                                       1.3617431
    22   6 C       37  16 S                                       1.7414227
    36   6 C       37  16 S                                       1.7524853
    38   6 C       39   6 C                                       1.3936828
    39   6 C       40   6 C                                       1.3847893
    41   7 N       42   8 O                                       1.2126330
    41   7 N       43   8 O                                       1.2148264
    40   6 C       44   6 C                                       1.4047774
    44   6 C       45   6 C                                       1.4008167
    38   6 C       46   6 C                                       1.4003717
    45   6 C       46   6 C                                       1.3751627
    47   6 C       48   6 C                                       1.3613027
    48   6 C       49   6 C                                       1.4177896
    49   6 C       50   6 C                                       1.4090719
    51   6 C       52   6 C                                       1.3674766
    52   6 C       53   6 C                                       1.4094796
    53   6 C       54   6 C                                       1.3630941
    54   6 C       55  16 S                                       1.7480749
    56   6 C       57   6 C                                       1.5157135
    54   6 C       58  34 Se                                      1.8733702
    50   6 C       59   6 C                                       1.3941606
    59   6 C       60   6 C                                       1.4140421
    60   6 C       61   6 C                                       1.4130995
    62   6 C       63   6 C                                       1.3714348
    63   6 C       64   6 C                                       1.4055755
    64   6 C       65   6 C                                       1.3674931
    65   6 C       66  16 S                                       1.7464312
    67   6 C       68   6 C                                       1.5147808
    62   6 C       69  34 Se                                      1.8840958
    65   6 C       69  34 Se                                      1.8849301
    49   6 C       70   6 C                                       1.4145639
    61   6 C       70   6 C                                       1.3930585
    47   6 C       71  16 S                                       1.7494332
    70   6 C       71  16 S                                       1.7366949
    60   6 C       72   6 C                                       1.4176846
    72   6 C       73   6 C                                       1.3629975
    59   6 C       74  16 S                                       1.7408098
    73   6 C       74  16 S                                       1.7521521
    75   6 C       76   6 C                                       1.3957089
    76   6 C       77   6 C                                       1.3816112
    78   7 N       79   8 O                                       1.2130849
    78   7 N       80   8 O                                       1.2132220
    77   6 C       81   6 C                                       1.4065891
    81   6 C       82   6 C                                       1.3970774
    75   6 C       83   6 C                                       1.4017054
    82   6 C       83   6 C                                       1.3757387
    84   6 C       85   6 C                                       1.3610576
    85   6 C       86   6 C                                       1.4131970
    86   6 C       87   6 C                                       1.4078770
    88   6 C       89   6 C                                       1.3707553
    89   6 C       90   6 C                                       1.4058476
    90   6 C       91   6 C                                       1.3629842
    93   6 C       94   6 C                                       1.5143489
    88   6 C       95  34 Se                                      1.8924494 (max)
    91   6 C       95  34 Se                                      1.8690565
    87   6 C       96   6 C                                       1.3929110
    96   6 C       97   6 C                                       1.4165335
    97   6 C       98   6 C                                       1.4098603
    99   6 C      100   6 C                                       1.3662059
   100   6 C      101   6 C                                       1.4091388
   101   6 C      102   6 C                                       1.3642856
   104   6 C      105   6 C                                       1.5148282
    99   6 C      106  34 Se                                      1.8872644
   102   6 C      106  34 Se                                      1.8849590
    86   6 C      107   6 C                                       1.4113052
    98   6 C      107   6 C                                       1.3930265
    84   6 C      108  16 S                                       1.7505661
   107   6 C      108  16 S                                       1.7466806
    97   6 C      109   6 C                                       1.4263952
   109   6 C      110   6 C                                       1.3483257
    96   6 C      111  16 S                                       1.7429477
   110   6 C      111  16 S                                       1.7269930
     1   6 C      112   1 H                                       1.0784222
     2   6 C      113   1 H                                       1.0796314
     8   6 C      114   1 H                                       1.0792760
     9   6 C      115   1 H                                       1.0793987
    11   6 C      116   1 H                                       1.0746599
    15   6 C      117   1 H                                       1.0772053
    16   6 C      118   1 H                                       1.0762148
    19   6 C      119   1 H                                       1.0939492
    19   6 C      120   1 H                                       1.0942245
    20   6 C      121   1 H                                       1.0876896
    20   6 C      122   1 H                                       1.0874521
    20   6 C      123   1 H                                       1.0873842
    26   6 C      124   1 H                                       1.0768458
    27   6 C      125   1 H                                       1.0761081
    30   6 C      126   1 H                                       1.0947030
    30   6 C      127   1 H                                       1.0891022
    31   6 C      128   1 H                                       1.0904573
    31   6 C      129   1 H                                       1.0872881
    31   6 C      130   1 H                                       1.0878483
    35   6 C      131   1 H                                       1.0756806
    39   6 C      132   1 H                                       1.0790875
    45   6 C      133   1 H                                       1.0792955
    46   6 C      134   1 H                                       1.0798873
    48   6 C      135   1 H                                       1.0768331
    52   6 C      136   1 H                                       1.0769860
    53   6 C      137   1 H                                       1.0759288
    56   6 C      138   1 H                                       1.0899173
    56   6 C      139   1 H                                       1.0892580
    57   6 C      140   1 H                                       1.0881012
    57   6 C      141   1 H                                       1.0876283
    57   6 C      142   1 H                                       1.0880406
    63   6 C      143   1 H                                       1.0772197
    64   6 C      144   1 H                                       1.0762922
    67   6 C      145   1 H                                       1.0948780
    67   6 C      146   1 H                                       1.0895161
    68   6 C      147   1 H                                       1.0901329
    68   6 C      148   1 H                                       1.0877800
    68   6 C      149   1 H                                       1.0874345
    72   6 C      150   1 H                                       1.0739254
    76   6 C      151   1 H                                       1.0803431
    82   6 C      152   1 H                                       1.0796490
    83   6 C      153   1 H                                       1.0781603
    85   6 C      154   1 H                                       1.0768981
    89   6 C      155   1 H                                       1.0770028
    90   6 C      156   1 H                                       1.0770528
    93   6 C      157   1 H                                       1.0903311
    93   6 C      158   1 H                                       1.0893202
    94   6 C      159   1 H                                       1.0897745
    94   6 C      160   1 H                                       1.0880534
    94   6 C      161   1 H                                       1.0882671
   100   6 C      162   1 H                                       1.0767814
   101   6 C      163   1 H                                       1.0761145
   104   6 C      164   1 H                                       1.0894050
   104   6 C      165   1 H                                       1.0946777
   105   6 C      166   1 H                                       1.0896605
   105   6 C      167   1 H                                       1.0875233
   105   6 C      168   1 H                                       1.0879735
   109   6 C      169   1 H                                       1.0766196
   110   6 C      170   1 H                                       1.0724307 (min)

 * 5 distinct bonds (by element types)

   Z      Z             #   av. dist./Å        max./Å        min./Å
   1 H    6 C          59     1.0835207     1.0948780     1.0724307
   6 C    6 C          72     1.4022722     1.5157135     1.3483257
   7 N    8 O           6     1.2131450     1.2148264     1.2120894
   6 C   16 S          16     1.7445986     1.7524853     1.7269930
   6 C   34 Se         11     1.8832112     1.8924494     1.8690565


optimized geometry written to: xtbopt.mol


           -------------------------------------------------
          | TOTAL ENERGY             -300.855507571359 Eh   |
          | GRADIENT NORM               0.000192448810 Eh/α |
          | HOMO-LUMO GAP               0.797824042760 eV   |
           -------------------------------------------------

------------------------------------------------------------------------
 * finished run on 2022/03/08 at 09:58:57.352     
------------------------------------------------------------------------
 total:
 * wall-time:     0 d,  0 h,  2 min,  0.858 sec
 *  cpu-time:     0 d,  0 h, 16 min,  6.396 sec
 * ratio c/w:     7.996 speedup
 SCF:
 * wall-time:     0 d,  0 h,  0 min,  0.727 sec
 *  cpu-time:     0 d,  0 h,  0 min,  5.792 sec
 * ratio c/w:     7.972 speedup
 ANC optimizer:
 * wall-time:     0 d,  0 h,  2 min,  0.041 sec
 *  cpu-time:     0 d,  0 h, 15 min, 59.962 sec
 * ratio c/w:     7.997 speedup

