      -----------------------------------------------------------      
     |                   =====================                   |     
     |                           x T B                           |     
     |                   =====================                   |     
     |                         S. Grimme                         |     
     |          Mulliken Center for Theoretical Chemistry        |     
     |                    University of Bonn                     |     
      -----------------------------------------------------------      

   * xtb version 6.4.1 (unknown) compiled by 'oda6@login1.crc.pitt.edu' on 2021-06-25

   xtb is free software: you can redistribute it and/or modify it under
   the terms of the GNU Lesser General Public License as published by
   the Free Software Foundation, either version 3 of the License, or
   (at your option) any later version.
   
   xtb is distributed in the hope that it will be useful,
   but WITHOUT ANY WARRANTY; without even the implied warranty of
   MERCHANTABILITY or FITNESS FOR A PARTICULAR PURPOSE.  See the
   GNU Lesser General Public License for more details.
   
   Cite this work as:
   * C. Bannwarth, E. Caldeweyher, S. Ehlert, A. Hansen, P. Pracht,
     J. Seibert, S. Spicher, S. Grimme, WIREs Comput. Mol. Sci., 2020, 11,
     e01493. DOI: 10.1002/wcms.1493
   
   for GFN2-xTB:
   * C. Bannwarth, S. Ehlert and S. Grimme., J. Chem. Theory Comput., 2019,
     15, 1652-1671. DOI: 10.1021/acs.jctc.8b01176
   for GFN1-xTB:
   * S. Grimme, C. Bannwarth, P. Shushkov, J. Chem. Theory Comput., 2017,
     13, 1989-2009. DOI: 10.1021/acs.jctc.7b00118
   for GFN0-xTB:
   * P. Pracht, E. Caldeweyher, S. Ehlert, S. Grimme, ChemRxiv, 2019, preprint.
     DOI: 10.26434/chemrxiv.8326202.v1
   for GFN-FF:
   * S. Spicher and S. Grimme, Angew. Chem. Int. Ed., 2020, 59, 15665-15673.
     DOI: 10.1002/anie.202004239
   
   for DFT-D4:
   * E. Caldeweyher, C. Bannwarth and S. Grimme, J. Chem. Phys., 2017,
     147, 034112. DOI: 10.1063/1.4993215
   * E. Caldeweyher, S. Ehlert, A. Hansen, H. Neugebauer, S. Spicher,
     C. Bannwarth and S. Grimme, J. Chem. Phys., 2019, 150, 154122.
     DOI: 10.1063/1.5090222
   * E. Caldeweyher, J.-M. Mewes, S. Ehlert and S. Grimme, Phys. Chem. Chem. Phys.
     2020, 22, 8499-8512. DOI: 10.1039/D0CP00502A
   
   for sTDA-xTB:
   * S. Grimme and C. Bannwarth, J. Chem. Phys., 2016, 145, 054103.
     DOI: 10.1063/1.4959605
   
   in the mass-spec context:
   * V. Asgeirsson, C. Bauer and S. Grimme, Chem. Sci., 2017, 8, 4879.
     DOI: 10.1039/c7sc00601b
   * J. Koopman and S. Grimme, ACS Omega 2019, 4, 12, 15120-15133.
     DOI: 10.1021/acsomega.9b02011
   
   for metadynamics refer to:
   * S. Grimme, J. Chem. Theory Comput., 2019, 155, 2847-2862
     DOI: 10.1021/acs.jctc.9b00143
   
   for SPH calculations refer to:
   * S. Spicher and S. Grimme, J. Chem. Theory Comput., 2021, 17, 1701-1714
     DOI: 10.1021/acs.jctc.0c01306
   
   with help from (in alphabetical order)
   P. Atkinson, C. Bannwarth, F. Bohle, G. Brandenburg, E. Caldeweyher
   M. Checinski, S. Dohm, S. Ehlert, S. Ehrlich, I. Gerasimov, J. Koopman
   C. Lavigne, S. Lehtola, F. März, M. Müller, F. Musil, H. Neugebauer
   J. Pisarek, C. Plett, P. Pracht, J. Seibert, P. Shushkov, S. Spicher
   M. Stahn, M. Steiner, T. Strunk, J. Stückrath, T. Rose, and J. Unsleber
   
 * started run on 2022/03/01 at 23:04:47.916     

           -------------------------------------------------
          |                Calculation Setup                |
           -------------------------------------------------

          program call               : /ihome/ghutchison/oda6/xtb/xtb-641/bin/xtb ../../FF_optimized/1050_784_110111.mol -opt
          hostname                   : smp-n90
          coordinate file            : ../../FF_optimized/1050_784_110111.mol
          omp threads                :                     8
          number of atoms            :                   128
          number of electrons        :                   398
          charge                     :                     0
          spin                       :                   0.0
          first test random number   :      0.05406891489209

   ID    Z sym.   atoms
    1    6 C      1, 3-5, 7, 8, 10, 11, 14, 16-18, 20, 21, 23, 24, 27, 29-33,
                  35, 36, 38-40, 42-44, 46, 47, 49, 50, 53, 55-57, 59, 60,
                  62, 63, 66, 68-70, 72, 73, 75, 76
    2   16 S      2, 15, 28, 41, 54, 67
    3    7 N      6, 9, 12, 13, 19, 22, 25, 26, 45, 48, 51, 52, 58, 61, 64,
                  65, 71, 74, 77, 78
    4    8 O      34, 37
    5    1 H      79-128
########################################################################
[WARNING] Please study the warnings concerning your input carefully
-1- prog_main_parseArguments: the use of '-opt' is discouraged, please use '--opt' next time
########################################################################

           -------------------------------------------------
          |                 G F N 2 - x T B                 |
           -------------------------------------------------

        Reference                      10.1021/acs.jctc.8b01176
      * Hamiltonian:
        H0-scaling (s, p, d)           1.850000    2.230000    2.230000
        zeta-weighting                 0.500000
      * Dispersion:
        s8                             2.700000
        a1                             0.520000
        a2                             5.000000
        s9                             5.000000
      * Repulsion:
        kExp                           1.500000    1.000000
        rExp                           1.000000
      * Coulomb:
        alpha                          2.000000
        third order                    shell-resolved
        anisotropic                    true
        a3                             3.000000
        a5                             4.000000
        cn-shift                       1.200000
        cn-exp                         4.000000
        max-rad                        5.000000


          ...................................................
          :                      SETUP                      :
          :.................................................:
          :  # basis functions                 398          :
          :  # atomic orbitals                 392          :
          :  # shells                          212          :
          :  # electrons                       398          :
          :  max. iterations                   250          :
          :  Hamiltonian                  GFN2-xTB          :
          :  restarted?                      false          :
          :  GBSA solvation                  false          :
          :  PC potential                    false          :
          :  electronic temp.          300.0000000     K    :
          :  accuracy                    1.0000000          :
          :  -> integral cutoff          0.2500000E+02      :
          :  -> integral neglect         0.1000000E-07      :
          :  -> SCF convergence          0.1000000E-05 Eh   :
          :  -> wf. convergence          0.1000000E-03 e    :
          :  Broyden damping             0.4000000          :
          ...................................................

 iter      E             dE          RMSdq      gap      omega  full diag
   1   -220.7729036 -0.220773E+03  0.384E+00    0.96       0.0  T
   2   -220.9773407 -0.204437E+00  0.227E+00    0.84       1.0  T
   3   -220.9523091  0.250317E-01  0.108E+00    0.80       1.0  T
   4   -221.0033715 -0.510625E-01  0.449E-01    0.80       1.0  T
   5   -221.0208384 -0.174669E-01  0.207E-01    0.81       1.0  T
   6   -221.0244934 -0.365503E-02  0.967E-02    0.79       1.0  T
   7   -221.0254203 -0.926831E-03  0.474E-02    0.81       1.0  T
   8   -221.0255627 -0.142481E-03  0.247E-02    0.80       1.0  T
   9   -221.0256061 -0.433258E-04  0.135E-02    0.80       1.0  T
  10   -221.0256322 -0.261221E-04  0.582E-03    0.80       1.5  T
  11   -221.0256340 -0.178870E-05  0.286E-03    0.80       3.1  T
  12   -221.0256348 -0.783051E-06  0.143E-03    0.80       6.2  T
  13   -221.0256350 -0.206197E-06  0.695E-04    0.80      12.7  T
  14   -221.0256350 -0.242893E-07  0.365E-04    0.80      24.2  T

   *** convergence criteria satisfied after 14 iterations ***

         #    Occupation            Energy/Eh            Energy/eV
      -------------------------------------------------------------
         1        2.0000           -0.7343956             -19.9839
       ...           ...                  ...                  ...
       193        2.0000           -0.3462933              -9.4231
       194        2.0000           -0.3433350              -9.3426
       195        2.0000           -0.3429539              -9.3323
       196        2.0000           -0.3399247              -9.2498
       197        2.0000           -0.3394138              -9.2359
       198        2.0000           -0.3364685              -9.1558
       199        2.0000           -0.3336749              -9.0798 (HOMO)
       200        0.0000           -0.3042521              -8.2791 (LUMO)
       201                         -0.2997413              -8.1564
       202                         -0.2888393              -7.8597
       203                         -0.2844766              -7.7410
       204                         -0.2813731              -7.6566
       ...                                ...                  ...
       392                          0.8016178              21.8131
      -------------------------------------------------------------
                  HL-Gap            0.0294228 Eh            0.8006 eV
             Fermi-level           -0.3189414 Eh           -8.6788 eV

 SCC (total)                   0 d,  0 h,  0 min,  0.313 sec
 SCC setup                      ...        0 min,  0.001 sec (  0.243%)
 Dispersion                     ...        0 min,  0.003 sec (  1.114%)
 classical contributions        ...        0 min,  0.000 sec (  0.053%)
 integral evaluation            ...        0 min,  0.016 sec (  4.999%)
 iterations                     ...        0 min,  0.244 sec ( 77.903%)
 molecular gradient             ...        0 min,  0.048 sec ( 15.277%)
 printout                       ...        0 min,  0.001 sec (  0.387%)

         :::::::::::::::::::::::::::::::::::::::::::::::::::::
         ::                     SUMMARY                     ::
         :::::::::::::::::::::::::::::::::::::::::::::::::::::
         :: total energy            -218.384858742278 Eh    ::
         :: gradient norm              0.339258202186 Eh/a0 ::
         :: HOMO-LUMO gap              0.800635265757 eV    ::
         ::.................................................::
         :: SCC energy              -221.025634993708 Eh    ::
         :: -> isotropic ES            0.214365487249 Eh    ::
         :: -> anisotropic ES          0.066043462868 Eh    ::
         :: -> anisotropic XC          0.163976058001 Eh    ::
         :: -> dispersion             -0.184543908950 Eh    ::
         :: repulsion energy           2.640621362593 Eh    ::
         :: add. restraining           0.000000000000 Eh    ::
         :: total charge               0.000000000003 e     ::
         :::::::::::::::::::::::::::::::::::::::::::::::::::::

      ----------------------------------------------------------- 
     |                   =====================                   |
     |                        A N C O P T                        |
     |                   =====================                   |
     |               Approximate Normal Coordinate               |
     |                Rational Function Optimizer                |
      ----------------------------------------------------------- 

          ...................................................
          :                      SETUP                      :
          :.................................................:
          :   optimization level            normal          :
          :   max. optcycles                   384          :
          :   ANC micro-cycles                  20          :
          :   degrees of freedom               378          :
          :.................................................:
          :   RF solver                   davidson          :
          :   write xtbopt.log                true          :
          :   linear?                        false          :
          :   energy convergence         0.5000000E-05 Eh   :
          :   grad. convergence          0.1000000E-02 Eh/α :
          :   maximium RF displ.         1.0000000          :
          :   Hlow (freq-cutoff)         0.1000000E-01      :
          :   Hmax (freq-cutoff)         5.0000000          :
          :   S6 in model hess.         20.0000000          :
          ...................................................

generating ANC from model Hessian ...
Using Lindh-Hessian (1995)
 Shifting diagonal of input Hessian by   9.978619832874175E-003
 Lowest  eigenvalues of input Hessian
    0.000000    0.000000    0.000000    0.000000    0.000000    0.000000
    0.010000    0.010004    0.010034    0.010085    0.010113    0.010157
    0.010185    0.010243    0.010258    0.010265    0.010276    0.010306
 Highest eigenvalues
    2.110901    2.161540    2.166554    2.183756    2.193339    2.197410
 

........................................................................
.............................. CYCLE    1 ..............................
........................................................................
   1   -221.0256350 -0.221026E+03  0.191E-04    0.80       0.0  T
   2   -221.0256350  0.553888E-08  0.248E-04    0.80      35.6  T
   3   -221.0256350 -0.103837E-07  0.586E-05    0.80     150.8  T
     SCC iter.                  ...        0 min,  0.053 sec
     gradient                   ...        0 min,  0.046 sec
 * total energy  :  -218.3848588 Eh     change       -0.1086218E-07 Eh
   gradient norm :     0.3392584 Eh/α   predicted     0.0000000E+00 (-100.00%)
   displ. norm   :     0.4592741 α      lambda       -0.1152032E+00
   maximum displ.:     0.1463460 α      in ANC's #247, #335, #272, ...

........................................................................
.............................. CYCLE    2 ..............................
........................................................................
   1   -221.1693938 -0.221169E+03  0.287E-01    0.77       0.0  T
   2   -221.1704273 -0.103347E-02  0.180E-01    0.76       1.0  T
   3   -221.1693042  0.112309E-02  0.112E-01    0.79       1.0  T
   4   -221.1705410 -0.123681E-02  0.685E-02    0.77       1.0  T
   5   -221.1710721 -0.531031E-03  0.373E-02    0.78       1.0  T
   6   -221.1712776 -0.205533E-03  0.738E-03    0.78       1.2  T
   7   -221.1712780 -0.398204E-06  0.409E-03    0.78       2.2  T
   8   -221.1712787 -0.724602E-06  0.255E-03    0.78       3.5  T
   9   -221.1712795 -0.792868E-06  0.809E-04    0.78      10.9  T
  10   -221.1712795 -0.256769E-07  0.487E-04    0.78      18.2  T
     SCC iter.                  ...        0 min,  0.167 sec
     gradient                   ...        0 min,  0.046 sec
 * total energy  :  -218.4702312 Eh     change       -0.8537243E-01 Eh
   gradient norm :     0.1649252 Eh/α   predicted    -0.6977324E-01 ( -18.27%)
   displ. norm   :     0.4802645 α      lambda       -0.5052748E-01
   maximum displ.:     0.1171298 α      in ANC's #76, #56, #247, ...

........................................................................
.............................. CYCLE    3 ..............................
........................................................................
   1   -221.2819636 -0.221282E+03  0.255E-01    0.74       0.0  T
   2   -221.2827772 -0.813631E-03  0.148E-01    0.74       1.0  T
   3   -221.2818898  0.887395E-03  0.103E-01    0.77       1.0  T
   4   -221.2828115 -0.921663E-03  0.682E-02    0.75       1.0  T
   5   -221.2834122 -0.600712E-03  0.315E-02    0.76       1.0  T
   6   -221.2835450 -0.132848E-03  0.665E-03    0.75       1.3  T
   7   -221.2835449  0.974989E-07  0.469E-03    0.75       1.9  T
   8   -221.2835466 -0.168004E-05  0.231E-03    0.75       3.8  T
   9   -221.2835473 -0.663270E-06  0.896E-04    0.75       9.9  T
  10   -221.2835473 -0.200877E-07  0.576E-04    0.75      15.3  T
     SCC iter.                  ...        0 min,  0.169 sec
     gradient                   ...        0 min,  0.047 sec
 * total energy  :  -218.5018716 Eh     change       -0.3164047E-01 Eh
   gradient norm :     0.0502343 Eh/α   predicted    -0.3109092E-01 (  -1.74%)
   displ. norm   :     0.5450871 α      lambda       -0.1358679E-01
   maximum displ.:     0.1959733 α      in ANC's #56, #30, #76, ...

........................................................................
.............................. CYCLE    4 ..............................
........................................................................
   1   -221.3186357 -0.221319E+03  0.127E-01    0.73       0.0  T
   2   -221.3187671 -0.131476E-03  0.713E-02    0.73       1.0  T
   3   -221.3184650  0.302137E-03  0.514E-02    0.74       1.0  T
   4   -221.3187033 -0.238282E-03  0.328E-02    0.73       1.0  T
   5   -221.3188706 -0.167275E-03  0.129E-02    0.74       1.0  T
   6   -221.3188902 -0.196688E-04  0.309E-03    0.74       2.9  T
   7   -221.3188903 -0.256593E-07  0.211E-03    0.74       4.2  T
   8   -221.3188907 -0.438851E-06  0.100E-03    0.74       8.8  T
   9   -221.3188908 -0.128234E-06  0.426E-04    0.74      20.8  T
  10   -221.3188908 -0.587062E-08  0.254E-04    0.74      34.8  T
     SCC iter.                  ...        0 min,  0.173 sec
     gradient                   ...        0 min,  0.046 sec
 * total energy  :  -218.5123579 Eh     change       -0.1048629E-01 Eh
   gradient norm :     0.0302920 Eh/α   predicted    -0.8813538E-02 ( -15.95%)
   displ. norm   :     0.6441399 α      lambda       -0.9059739E-02
   maximum displ.:     0.2623484 α      in ANC's #30, #56, #52, ...

........................................................................
.............................. CYCLE    5 ..............................
........................................................................
   1   -221.3454293 -0.221345E+03  0.103E-01    0.72       0.0  T
   2   -221.3455032 -0.739295E-04  0.574E-02    0.72       1.0  T
   3   -221.3453643  0.138919E-03  0.358E-02    0.73       1.0  T
   4   -221.3454514 -0.871017E-04  0.224E-02    0.72       1.0  T
   5   -221.3455312 -0.797890E-04  0.102E-02    0.72       1.0  T
   6   -221.3455455 -0.143814E-04  0.273E-03    0.72       3.2  T
   7   -221.3455456 -0.947306E-07  0.185E-03    0.72       4.8  T
   8   -221.3455461 -0.411941E-06  0.711E-04    0.72      12.4  T
   9   -221.3455461 -0.526411E-07  0.349E-04    0.72      25.3  T
     SCC iter.                  ...        0 min,  0.155 sec
     gradient                   ...        0 min,  0.047 sec
 * total energy  :  -218.5193282 Eh     change       -0.6970294E-02 Eh
   gradient norm :     0.0217098 Eh/α   predicted    -0.6409516E-02 (  -8.05%)
   displ. norm   :     0.6448957 α      lambda       -0.5658697E-02
   maximum displ.:     0.3041366 α      in ANC's #30, #56, #29, ...

........................................................................
.............................. CYCLE    6 ..............................
........................................................................
   1   -221.3674425 -0.221367E+03  0.847E-02    0.71       0.0  T
   2   -221.3674669 -0.244185E-04  0.484E-02    0.71       1.0  T
   3   -221.3674142  0.527030E-04  0.223E-02    0.71       1.0  T
   4   -221.3674705 -0.563113E-04  0.882E-03    0.71       1.0  T
   5   -221.3674751 -0.462423E-05  0.524E-03    0.71       1.7  T
   6   -221.3674784 -0.325578E-05  0.179E-03    0.71       4.9  T
   7   -221.3674785 -0.130760E-06  0.108E-03    0.71       8.2  T
   8   -221.3674787 -0.160092E-06  0.604E-04    0.71      14.6  T
   9   -221.3674787 -0.427083E-07  0.254E-04    0.71      34.8  T
     SCC iter.                  ...        0 min,  0.150 sec
     gradient                   ...        0 min,  0.047 sec
 * total energy  :  -218.5239191 Eh     change       -0.4590892E-02 Eh
   gradient norm :     0.0262729 Eh/α   predicted    -0.4006150E-02 ( -12.74%)
   displ. norm   :     0.6729102 α      lambda       -0.4699509E-02
   maximum displ.:     0.3439583 α      in ANC's #30, #56, #29, ...

........................................................................
.............................. CYCLE    7 ..............................
........................................................................
   1   -221.3843655 -0.221384E+03  0.867E-02    0.70       0.0  T
   2   -221.3843768 -0.113378E-04  0.506E-02    0.70       1.0  T
   3   -221.3842041  0.172695E-03  0.350E-02    0.70       1.0  T
   4   -221.3843827 -0.178615E-03  0.844E-03    0.70       1.0  T
   5   -221.3843857 -0.292980E-05  0.586E-03    0.70       1.5  T
   6   -221.3843906 -0.493020E-05  0.250E-03    0.70       3.5  T
   7   -221.3843914 -0.817573E-06  0.112E-03    0.70       7.9  T
   8   -221.3843916 -0.151643E-06  0.469E-04    0.70      18.8  T
   9   -221.3843916 -0.301753E-08  0.253E-04    0.70      34.9  T
     SCC iter.                  ...        0 min,  0.155 sec
     gradient                   ...        0 min,  0.047 sec
 * total energy  :  -218.5278688 Eh     change       -0.3949720E-02 Eh
   gradient norm :     0.0271327 Eh/α   predicted    -0.3413753E-02 ( -13.57%)
   displ. norm   :     0.6945530 α      lambda       -0.4341194E-02
   maximum displ.:     0.3640983 α      in ANC's #30, #29, #56, ...

........................................................................
.............................. CYCLE    8 ..............................
........................................................................
   1   -221.3965912 -0.221397E+03  0.928E-02    0.69       0.0  T
   2   -221.3966055 -0.142922E-04  0.543E-02    0.69       1.0  T
   3   -221.3963244  0.281087E-03  0.445E-02    0.69       1.0  T
   4   -221.3966146 -0.290199E-03  0.112E-02    0.69       1.0  T
   5   -221.3966232 -0.855954E-05  0.707E-03    0.69       1.2  T
   6   -221.3966311 -0.786434E-05  0.297E-03    0.69       3.0  T
   7   -221.3966321 -0.993981E-06  0.117E-03    0.69       7.6  T
   8   -221.3966322 -0.117476E-06  0.597E-04    0.69      14.8  T
   9   -221.3966322 -0.225073E-07  0.306E-04    0.69      28.9  T
     SCC iter.                  ...        0 min,  0.154 sec
     gradient                   ...        0 min,  0.047 sec
 * total energy  :  -218.5315482 Eh     change       -0.3679400E-02 Eh
   gradient norm :     0.0218966 Eh/α   predicted    -0.3217723E-02 ( -12.55%)
   displ. norm   :     0.7035243 α      lambda       -0.3921980E-02
   maximum displ.:     0.3549095 α      in ANC's #30, #29, #24, ...

........................................................................
.............................. CYCLE    9 ..............................
........................................................................
   1   -221.4044522 -0.221404E+03  0.949E-02    0.68       0.0  T
   2   -221.4044720 -0.198009E-04  0.554E-02    0.68       1.0  T
   3   -221.4042012  0.270840E-03  0.447E-02    0.68       1.0  T
   4   -221.4044781 -0.276939E-03  0.126E-02    0.68       1.0  T
   5   -221.4044903 -0.121308E-04  0.776E-03    0.68       1.1  T
   6   -221.4045002 -0.989853E-05  0.306E-03    0.68       2.9  T
   7   -221.4045012 -0.993933E-06  0.124E-03    0.68       7.1  T
   8   -221.4045013 -0.947186E-07  0.674E-04    0.68      13.1  T
   9   -221.4045013 -0.409030E-07  0.316E-04    0.68      28.0  T
     SCC iter.                  ...        0 min,  0.153 sec
     gradient                   ...        0 min,  0.047 sec
 * total energy  :  -218.5348705 Eh     change       -0.3322269E-02 Eh
   gradient norm :     0.0160134 Eh/α   predicted    -0.2931581E-02 ( -11.76%)
   displ. norm   :     0.7062393 α      lambda       -0.3450072E-02
   maximum displ.:     0.3230677 α      in ANC's #30, #24, #29, ...

........................................................................
.............................. CYCLE   10 ..............................
........................................................................
   1   -221.4109663 -0.221411E+03  0.931E-02    0.68       0.0  T
   2   -221.4109866 -0.203370E-04  0.542E-02    0.68       1.0  T
   3   -221.4107960  0.190681E-03  0.374E-02    0.67       1.0  T
   4   -221.4109899 -0.193947E-03  0.107E-02    0.68       1.0  T
   5   -221.4109975 -0.763402E-05  0.693E-03    0.67       1.3  T
   6   -221.4110051 -0.753939E-05  0.287E-03    0.68       3.1  T
   7   -221.4110060 -0.878549E-06  0.121E-03    0.68       7.3  T
   8   -221.4110060 -0.909260E-07  0.648E-04    0.68      13.6  T
   9   -221.4110061 -0.405481E-07  0.303E-04    0.68      29.1  T
     SCC iter.                  ...        0 min,  0.149 sec
     gradient                   ...        0 min,  0.047 sec
 * total energy  :  -218.5378133 Eh     change       -0.2942836E-02 Eh
   gradient norm :     0.0156504 Eh/α   predicted    -0.2585439E-02 ( -12.14%)
   displ. norm   :     0.7425824 α      lambda       -0.3158863E-02
   maximum displ.:     0.2961011 α      in ANC's #30, #24, #39, ...

........................................................................
.............................. CYCLE   11 ..............................
........................................................................
   1   -221.4090025 -0.221409E+03  0.958E-02    0.67       0.0  T
   2   -221.4090238 -0.213350E-04  0.556E-02    0.67       1.0  T
   3   -221.4089690  0.548612E-04  0.213E-02    0.67       1.0  T
   4   -221.4090265 -0.574717E-04  0.832E-03    0.67       1.1  T
   5   -221.4090307 -0.422634E-05  0.474E-03    0.67       1.9  T
   6   -221.4090321 -0.143833E-05  0.299E-03    0.67       3.0  T
   7   -221.4090334 -0.131350E-05  0.121E-03    0.67       7.3  T
   8   -221.4090336 -0.130734E-06  0.611E-04    0.67      14.5  T
   9   -221.4090336 -0.200473E-07  0.384E-04    0.67      23.0  T
     SCC iter.                  ...        0 min,  0.149 sec
     gradient                   ...        0 min,  0.047 sec
 * total energy  :  -218.5404519 Eh     change       -0.2638521E-02 Eh
   gradient norm :     0.0236284 Eh/α   predicted    -0.2450386E-02 (  -7.13%)
   displ. norm   :     0.7270218 α      lambda       -0.4089685E-02
   maximum displ.:     0.2301714 α      in ANC's #24, #30, #39, ...

........................................................................
.............................. CYCLE   12 ..............................
........................................................................
   1   -221.4344573 -0.221434E+03  0.105E-01    0.66       0.0  T
   2   -221.4344887 -0.314438E-04  0.597E-02    0.66       1.0  T
   3   -221.4344412  0.475135E-04  0.194E-02    0.66       1.0  T
   4   -221.4344792 -0.380115E-04  0.113E-02    0.66       1.0  T
   5   -221.4344956 -0.163304E-04  0.496E-03    0.66       1.8  T
   6   -221.4344978 -0.221737E-05  0.288E-03    0.66       3.1  T
   7   -221.4344987 -0.876611E-06  0.150E-03    0.66       5.9  T
   8   -221.4344989 -0.247532E-06  0.639E-04    0.66      13.8  T
   9   -221.4344989 -0.282783E-07  0.311E-04    0.66      28.4  T
     SCC iter.                  ...        0 min,  0.151 sec
     gradient                   ...        0 min,  0.047 sec
 * total energy  :  -218.5426312 Eh     change       -0.2179305E-02 Eh
   gradient norm :     0.0306205 Eh/α   predicted    -0.3125678E-02 (  43.43%)
   displ. norm   :     0.7063363 α      lambda       -0.3766712E-02
   maximum displ.:     0.2307832 α      in ANC's #30, #39, #24, ...

........................................................................
.............................. CYCLE   13 ..............................
........................................................................
   1   -221.4062820 -0.221406E+03  0.101E-01    0.65       0.0  T
   2   -221.4062977 -0.157015E-04  0.592E-02    0.65       1.0  T
   3   -221.4060029  0.294769E-03  0.419E-02    0.66       1.0  T
   4   -221.4063042 -0.301268E-03  0.109E-02    0.65       1.0  T
   5   -221.4063153 -0.111422E-04  0.614E-03    0.66       1.4  T
   6   -221.4063186 -0.334804E-05  0.337E-03    0.66       2.6  T
   7   -221.4063198 -0.119832E-05  0.159E-03    0.66       5.6  T
   8   -221.4063201 -0.249397E-06  0.663E-04    0.66      13.3  T
   9   -221.4063201 -0.764058E-08  0.468E-04    0.66      18.9  T
     SCC iter.                  ...        0 min,  0.160 sec
     gradient                   ...        0 min,  0.047 sec
 * total energy  :  -218.5449616 Eh     change       -0.2330404E-02 Eh
   gradient norm :     0.0314551 Eh/α   predicted    -0.2822985E-02 (  21.14%)
   displ. norm   :     0.5189932 α      lambda       -0.3951764E-02
   maximum displ.:     0.2140338 α      in ANC's #32, #24, #39, ...

........................................................................
.............................. CYCLE   14 ..............................
........................................................................
   1   -221.4126731 -0.221413E+03  0.102E-01    0.65       0.0  T
   2   -221.4126860 -0.129659E-04  0.597E-02    0.65       1.0  T
   3   -221.4123189  0.367118E-03  0.517E-02    0.65       1.0  T
   4   -221.4127194 -0.400521E-03  0.111E-02    0.65       1.0  T
   5   -221.4127242 -0.480955E-05  0.729E-03    0.65       1.2  T
   6   -221.4127318 -0.753735E-05  0.364E-03    0.65       2.4  T
   7   -221.4127333 -0.147809E-05  0.168E-03    0.65       5.3  T
   8   -221.4127334 -0.154524E-06  0.869E-04    0.65      10.2  T
   9   -221.4127335 -0.617309E-07  0.452E-04    0.65      19.6  T
     SCC iter.                  ...        0 min,  0.158 sec
     gradient                   ...        0 min,  0.047 sec
 * total energy  :  -218.5437302 Eh     change        0.1231327E-02 Eh
   gradient norm :     0.0614467 Eh/α   predicted    -0.2508093E-02 (-303.69%)
   displ. norm   :     0.2544709 α      lambda       -0.6336896E-02
   maximum displ.:     0.0842803 α      in ANC's #39, #47, #35, ...

........................................................................
.............................. CYCLE   15 ..............................
........................................................................
   1   -221.4140242 -0.221414E+03  0.659E-02    0.65       0.0  T
   2   -221.4140272 -0.303358E-05  0.382E-02    0.65       1.0  T
   3   -221.4138437  0.183511E-03  0.296E-02    0.66       1.0  T
   4   -221.4140343 -0.190596E-03  0.569E-03    0.65       1.6  T
   5   -221.4140362 -0.186350E-05  0.415E-03    0.65       2.1  T
   6   -221.4140386 -0.246298E-05  0.133E-03    0.65       6.6  T
   7   -221.4140387 -0.956155E-07  0.699E-04    0.65      12.6  T
   8   -221.4140387 -0.229423E-07  0.375E-04    0.65      23.6  T
     SCC iter.                  ...        0 min,  0.141 sec
     gradient                   ...        0 min,  0.047 sec
 * total energy  :  -218.5474505 Eh     change       -0.3720242E-02 Eh
   gradient norm :     0.0224493 Eh/α   predicted    -0.3373631E-02 (  -9.32%)
   displ. norm   :     0.4503450 α      lambda       -0.2965776E-02
   maximum displ.:     0.1847022 α      in ANC's #39, #32, #24, ...

........................................................................
.............................. CYCLE   16 ..............................
........................................................................
   1   -221.4205202 -0.221421E+03  0.893E-02    0.65       0.0  T
   2   -221.4205346 -0.144729E-04  0.514E-02    0.65       1.0  T
   3   -221.4204209  0.113783E-03  0.264E-02    0.66       1.0  T
   4   -221.4205390 -0.118129E-03  0.698E-03    0.65       1.3  T
   5   -221.4205398 -0.804947E-06  0.535E-03    0.65       1.7  T
   6   -221.4205442 -0.445260E-05  0.215E-03    0.65       4.1  T
   7   -221.4205446 -0.381608E-06  0.110E-03    0.65       8.0  T
   8   -221.4205447 -0.704246E-07  0.536E-04    0.65      16.5  T
   9   -221.4205447 -0.262720E-07  0.304E-04    0.65      29.0  T
     SCC iter.                  ...        0 min,  0.160 sec
     gradient                   ...        0 min,  0.047 sec
 * total energy  :  -218.5457072 Eh     change        0.1743241E-02 Eh
   gradient norm :     0.0626079 Eh/α   predicted    -0.1783640E-02 (-202.32%)
   displ. norm   :     0.2729415 α      lambda       -0.6728320E-02
   maximum displ.:     0.1200422 α      in ANC's #40, #56, #68, ...

........................................................................
.............................. CYCLE   17 ..............................
........................................................................
   1   -221.4212042 -0.221421E+03  0.684E-02    0.65       0.0  T
   2   -221.4212046 -0.332620E-06  0.401E-02    0.65       1.0  T
   3   -221.4209510  0.253629E-03  0.369E-02    0.65       1.0  T
   4   -221.4212141 -0.263159E-03  0.674E-03    0.65       1.3  T
   5   -221.4212188 -0.470905E-05  0.372E-03    0.65       2.4  T
   6   -221.4212204 -0.162619E-05  0.160E-03    0.65       5.5  T
   7   -221.4212206 -0.185266E-06  0.811E-04    0.65      10.9  T
   8   -221.4212207 -0.355159E-07  0.372E-04    0.65      23.8  T
     SCC iter.                  ...        0 min,  0.142 sec
     gradient                   ...        0 min,  0.047 sec
 * total energy  :  -218.5494549 Eh     change       -0.3747634E-02 Eh
   gradient norm :     0.0190092 Eh/α   predicted    -0.3614784E-02 (  -3.54%)
   displ. norm   :     0.5077676 α      lambda       -0.2483150E-02
   maximum displ.:     0.1592902 α      in ANC's #32, #24, #39, ...

........................................................................
.............................. CYCLE   18 ..............................
........................................................................
   1   -221.4146671 -0.221415E+03  0.921E-02    0.65       0.0  T
   2   -221.4146728 -0.565840E-05  0.537E-02    0.65       1.0  T
   3   -221.4142276  0.445227E-03  0.480E-02    0.65       1.0  T
   4   -221.4146913 -0.463700E-03  0.810E-03    0.65       1.1  T
   5   -221.4146959 -0.464937E-05  0.501E-03    0.65       1.8  T
   6   -221.4146985 -0.257609E-05  0.228E-03    0.65       3.9  T
   7   -221.4146988 -0.340232E-06  0.124E-03    0.65       7.1  T
   8   -221.4146990 -0.134186E-06  0.454E-04    0.65      19.5  T
   9   -221.4146990 -0.692413E-08  0.298E-04    0.65      29.6  T
     SCC iter.                  ...        0 min,  0.156 sec
     gradient                   ...        0 min,  0.047 sec
 * total energy  :  -218.5478400 Eh     change        0.1614891E-02 Eh
   gradient norm :     0.0635723 Eh/α   predicted    -0.1561692E-02 (-196.71%)
   displ. norm   :     0.2587916 α      lambda       -0.6405176E-02
   maximum displ.:     0.1046725 α      in ANC's #39, #32, #40, ...

........................................................................
.............................. CYCLE   19 ..............................
........................................................................
   1   -221.4186739 -0.221419E+03  0.654E-02    0.65       0.0  T
   2   -221.4186816 -0.773800E-05  0.376E-02    0.65       1.0  T
   3   -221.4186388  0.428292E-04  0.169E-02    0.65       1.0  T
   4   -221.4186836 -0.447807E-04  0.468E-03    0.65       1.9  T
   5   -221.4186845 -0.932282E-06  0.297E-03    0.65       3.0  T
   6   -221.4186855 -0.103066E-05  0.157E-03    0.65       5.6  T
   7   -221.4186858 -0.220687E-06  0.876E-04    0.65      10.1  T
   8   -221.4186858 -0.895740E-07  0.366E-04    0.65      24.1  T
     SCC iter.                  ...        0 min,  0.141 sec
     gradient                   ...        0 min,  0.047 sec
 * total energy  :  -218.5512869 Eh     change       -0.3446908E-02 Eh
   gradient norm :     0.0197460 Eh/α   predicted    -0.3417076E-02 (  -0.87%)
   displ. norm   :     0.3873634 α      lambda       -0.2005123E-02
   maximum displ.:     0.1211030 α      in ANC's #39, #3, #13, ...

........................................................................
.............................. CYCLE   20 ..............................
........................................................................
   1   -221.4309640 -0.221431E+03  0.667E-02    0.65       0.0  T
   2   -221.4309713 -0.729942E-05  0.386E-02    0.65       1.0  T
   3   -221.4308417  0.129630E-03  0.258E-02    0.65       1.0  T
   4   -221.4309747 -0.133032E-03  0.587E-03    0.65       1.5  T
   5   -221.4309776 -0.286427E-05  0.356E-03    0.65       2.5  T
   6   -221.4309790 -0.136027E-05  0.164E-03    0.65       5.4  T
   7   -221.4309792 -0.183541E-06  0.848E-04    0.65      10.4  T
   8   -221.4309792 -0.490791E-07  0.437E-04    0.65      20.2  T
     SCC iter.                  ...        0 min,  0.142 sec
     gradient                   ...        0 min,  0.047 sec
 * total energy  :  -218.5510840 Eh     change        0.2029294E-03 Eh
   gradient norm :     0.0425862 Eh/α   predicted    -0.1152996E-02 (-668.18%)
   displ. norm   :     0.3915904 α      lambda       -0.4231764E-02
   maximum displ.:     0.1504711 α      in ANC's #39, #32, #3, ...
 * RMSD in coord.:     0.7386960 α      energy gain  -0.1662252E+00 Eh

generating ANC from model Hessian ...
Using Lindh-Hessian (1995)
 Shifting diagonal of input Hessian by   9.973933255119312E-003
 Lowest  eigenvalues of input Hessian
    0.000000    0.000000    0.000000    0.000000    0.000000    0.000000
    0.010000    0.010002    0.010028    0.010091    0.010105    0.010166
    0.010206    0.010262    0.010280    0.010288    0.010303    0.010320
 Highest eigenvalues
    2.199347    2.202927    2.210054    2.222012    2.233172    2.238538
 

........................................................................
.............................. CYCLE   21 ..............................
........................................................................
   1   -221.4379773 -0.221438E+03  0.743E-02    0.65       0.0  T
   2   -221.4379793 -0.200377E-05  0.434E-02    0.65       1.0  T
   3   -221.4376788  0.300478E-03  0.381E-02    0.66       1.0  T
   4   -221.4379912 -0.312426E-03  0.585E-03    0.65       1.5  T
   5   -221.4379936 -0.240986E-05  0.346E-03    0.65       2.6  T
   6   -221.4379948 -0.117534E-05  0.147E-03    0.65       6.0  T
   7   -221.4379949 -0.931242E-07  0.847E-04    0.65      10.4  T
   8   -221.4379950 -0.578002E-07  0.321E-04    0.65      27.5  T
     SCC iter.                  ...        0 min,  0.140 sec
     gradient                   ...        0 min,  0.047 sec
 * total energy  :  -218.5522620 Eh     change       -0.1178007E-02 Eh
   gradient norm :     0.0409070 Eh/α   predicted     0.0000000E+00 (-100.00%)
   displ. norm   :     0.1733975 α      lambda       -0.2236823E-02
   maximum displ.:     0.0559079 α      in ANC's #32, #37, #39, ...

........................................................................
.............................. CYCLE   22 ..............................
........................................................................
   1   -221.4328501 -0.221433E+03  0.376E-02    0.65       0.0  T
   2   -221.4328544 -0.427393E-05  0.218E-02    0.65       1.0  T
   3   -221.4328401  0.143014E-04  0.965E-03    0.65       1.0  T
   4   -221.4328537 -0.136066E-04  0.387E-03    0.65       2.3  T
   5   -221.4328554 -0.175109E-05  0.217E-03    0.65       4.1  T
   6   -221.4328560 -0.620985E-06  0.119E-03    0.65       7.4  T
   7   -221.4328562 -0.149411E-06  0.585E-04    0.65      15.1  T
   8   -221.4328562 -0.287164E-07  0.250E-04    0.65      35.3  T
     SCC iter.                  ...        0 min,  0.141 sec
     gradient                   ...        0 min,  0.047 sec
 * total energy  :  -218.5537664 Eh     change       -0.1504446E-02 Eh
   gradient norm :     0.0102490 Eh/α   predicted    -0.1152117E-02 ( -23.42%)
   displ. norm   :     0.2609143 α      lambda       -0.8563914E-03
   maximum displ.:     0.0881452 α      in ANC's #32, #37, #39, ...

........................................................................
.............................. CYCLE   23 ..............................
........................................................................
   1   -221.4299634 -0.221430E+03  0.370E-02    0.65       0.0  T
   2   -221.4299680 -0.457545E-05  0.213E-02    0.65       1.0  T
   3   -221.4299598  0.821309E-05  0.810E-03    0.65       1.1  T
   4   -221.4299678 -0.806690E-05  0.364E-03    0.65       2.4  T
   5   -221.4299693 -0.146036E-05  0.176E-03    0.65       5.0  T
   6   -221.4299695 -0.192495E-06  0.107E-03    0.65       8.2  T
   7   -221.4299696 -0.820998E-07  0.704E-04    0.65      12.5  T
   8   -221.4299696 -0.637696E-07  0.287E-04    0.65      30.8  T
     SCC iter.                  ...        0 min,  0.138 sec
     gradient                   ...        0 min,  0.047 sec
 * total energy  :  -218.5543963 Eh     change       -0.6298885E-03 Eh
   gradient norm :     0.0081158 Eh/α   predicted    -0.4574379E-03 ( -27.38%)
   displ. norm   :     0.4085971 α      lambda       -0.8311825E-03
   maximum displ.:     0.1345634 α      in ANC's #32, #37, #39, ...

........................................................................
.............................. CYCLE   24 ..............................
........................................................................
   1   -221.4258853 -0.221426E+03  0.523E-02    0.65       0.0  T
   2   -221.4258928 -0.756762E-05  0.302E-02    0.65       1.0  T
   3   -221.4258791  0.137737E-04  0.105E-02    0.65       1.0  T
   4   -221.4258933 -0.142094E-04  0.477E-03    0.65       1.9  T
   5   -221.4258953 -0.200619E-05  0.252E-03    0.65       3.5  T
   6   -221.4258956 -0.356007E-06  0.142E-03    0.65       6.2  T
   7   -221.4258957 -0.907716E-07  0.893E-04    0.65       9.9  T
   8   -221.4258958 -0.124355E-06  0.365E-04    0.65      24.2  T
     SCC iter.                  ...        0 min,  0.140 sec
     gradient                   ...        0 min,  0.047 sec
 * total energy  :  -218.5550643 Eh     change       -0.6680120E-03 Eh
   gradient norm :     0.0179240 Eh/α   predicted    -0.4850624E-03 ( -27.39%)
   displ. norm   :     0.5678992 α      lambda       -0.1101505E-02
   maximum displ.:     0.1841471 α      in ANC's #37, #32, #39, ...

........................................................................
.............................. CYCLE   25 ..............................
........................................................................
   1   -221.4204723 -0.221420E+03  0.702E-02    0.65       0.0  T
   2   -221.4204840 -0.117489E-04  0.407E-02    0.65       1.0  T
   3   -221.4204610  0.230006E-04  0.134E-02    0.65       1.0  T
   4   -221.4204845 -0.234572E-04  0.635E-03    0.65       1.4  T
   5   -221.4204871 -0.260716E-05  0.390E-03    0.65       2.3  T
   6   -221.4204884 -0.128285E-05  0.199E-03    0.65       4.4  T
   7   -221.4204888 -0.465919E-06  0.997E-04    0.65       8.9  T
   8   -221.4204890 -0.142536E-06  0.417E-04    0.65      21.2  T
     SCC iter.                  ...        0 min,  0.140 sec
     gradient                   ...        0 min,  0.047 sec
 * total energy  :  -218.5559450 Eh     change       -0.8806900E-03 Eh
   gradient norm :     0.0219327 Eh/α   predicted    -0.7285405E-03 ( -17.28%)
   displ. norm   :     0.5292613 α      lambda       -0.1240984E-02
   maximum displ.:     0.1634903 α      in ANC's #37, #13, #3, ...

........................................................................
.............................. CYCLE   26 ..............................
........................................................................
   1   -221.4219912 -0.221422E+03  0.640E-02    0.65       0.0  T
   2   -221.4219998 -0.854805E-05  0.370E-02    0.65       1.0  T
   3   -221.4219789  0.209160E-04  0.125E-02    0.65       1.0  T
   4   -221.4219999 -0.210706E-04  0.555E-03    0.65       1.6  T
   5   -221.4220020 -0.210909E-05  0.339E-03    0.65       2.6  T
   6   -221.4220032 -0.117541E-05  0.162E-03    0.65       5.5  T
   7   -221.4220036 -0.357689E-06  0.666E-04    0.65      13.3  T
   8   -221.4220036 -0.401013E-07  0.338E-04    0.65      26.1  T
     SCC iter.                  ...        0 min,  0.143 sec
     gradient                   ...        0 min,  0.047 sec
 * total energy  :  -218.5569164 Eh     change       -0.9713369E-03 Eh
   gradient norm :     0.0155491 Eh/α   predicted    -0.7943133E-03 ( -18.22%)
   displ. norm   :     0.4694118 α      lambda       -0.1065419E-02
   maximum displ.:     0.1601453 α      in ANC's #3, #13, #10, ...

........................................................................
.............................. CYCLE   27 ..............................
........................................................................
   1   -221.4323083 -0.221432E+03  0.556E-02    0.65       0.0  T
   2   -221.4323140 -0.560548E-05  0.319E-02    0.65       1.0  T
   3   -221.4322676  0.463208E-04  0.170E-02    0.65       1.0  T
   4   -221.4323149 -0.472221E-04  0.483E-03    0.65       1.8  T
   5   -221.4323169 -0.204695E-05  0.282E-03    0.65       3.1  T
   6   -221.4323177 -0.831388E-06  0.147E-03    0.65       6.0  T
   7   -221.4323180 -0.272665E-06  0.551E-04    0.65      16.0  T
   8   -221.4323180 -0.205825E-07  0.294E-04    0.65      30.1  T
     SCC iter.                  ...        0 min,  0.140 sec
     gradient                   ...        0 min,  0.047 sec
 * total energy  :  -218.5576769 Eh     change       -0.7604991E-03 Eh
   gradient norm :     0.0076966 Eh/α   predicted    -0.6501587E-03 ( -14.51%)
   displ. norm   :     0.6755183 α      lambda       -0.8226007E-03
   maximum displ.:     0.2200993 α      in ANC's #3, #13, #10, ...

........................................................................
.............................. CYCLE   28 ..............................
........................................................................
   1   -221.4263836 -0.221426E+03  0.766E-02    0.64       0.0  T
   2   -221.4263948 -0.112624E-04  0.443E-02    0.64       1.0  T
   3   -221.4262860  0.108863E-03  0.261E-02    0.64       1.0  T
   4   -221.4263978 -0.111816E-03  0.707E-03    0.64       1.3  T
   5   -221.4264007 -0.296380E-05  0.467E-03    0.64       1.9  T
   6   -221.4264034 -0.268889E-05  0.223E-03    0.64       4.0  T
   7   -221.4264040 -0.564691E-06  0.936E-04    0.64       9.4  T
   8   -221.4264041 -0.651686E-07  0.476E-04    0.64      18.6  T
     SCC iter.                  ...        0 min,  0.141 sec
     gradient                   ...        0 min,  0.047 sec
 * total energy  :  -218.5582545 Eh     change       -0.5776296E-03 Eh
   gradient norm :     0.0127144 Eh/α   predicted    -0.5989928E-03 (   3.70%)
   displ. norm   :     0.4827005 α      lambda       -0.7158606E-03
   maximum displ.:     0.1896386 α      in ANC's #3, #13, #10, ...

........................................................................
.............................. CYCLE   29 ..............................
........................................................................
   1   -221.4342423 -0.221434E+03  0.511E-02    0.64       0.0  T
   2   -221.4342483 -0.602591E-05  0.291E-02    0.64       1.0  T
   3   -221.4341843  0.640082E-04  0.200E-02    0.64       1.0  T
   4   -221.4342479 -0.635735E-04  0.580E-03    0.64       1.5  T
   5   -221.4342518 -0.384543E-05  0.305E-03    0.64       2.9  T
   6   -221.4342531 -0.129496E-05  0.144E-03    0.64       6.1  T
   7   -221.4342532 -0.198186E-06  0.623E-04    0.64      14.2  T
   8   -221.4342533 -0.199160E-07  0.333E-04    0.64      26.6  T
     SCC iter.                  ...        0 min,  0.138 sec
     gradient                   ...        0 min,  0.047 sec
 * total energy  :  -218.5587777 Eh     change       -0.5231760E-03 Eh
   gradient norm :     0.0057376 Eh/α   predicted    -0.4413578E-03 ( -15.64%)
   displ. norm   :     0.5709002 α      lambda       -0.4729511E-03
   maximum displ.:     0.2289978 α      in ANC's #3, #13, #10, ...

........................................................................
.............................. CYCLE   30 ..............................
........................................................................
   1   -221.4351339 -0.221435E+03  0.538E-02    0.63       0.0  T
   2   -221.4351403 -0.640950E-05  0.308E-02    0.63       1.0  T
   3   -221.4351090  0.313391E-04  0.145E-02    0.63       1.0  T
   4   -221.4351383 -0.292787E-04  0.579E-03    0.63       1.5  T
   5   -221.4351424 -0.414397E-05  0.277E-03    0.63       3.2  T
   6   -221.4351431 -0.743191E-06  0.163E-03    0.63       5.4  T
   7   -221.4351435 -0.323666E-06  0.641E-04    0.63      13.8  T
   8   -221.4351435 -0.305567E-07  0.317E-04    0.63      27.9  T
     SCC iter.                  ...        0 min,  0.137 sec
     gradient                   ...        0 min,  0.047 sec
 * total energy  :  -218.5591470 Eh     change       -0.3693704E-03 Eh
   gradient norm :     0.0066231 Eh/α   predicted    -0.3135503E-03 ( -15.11%)
   displ. norm   :     0.5833567 α      lambda       -0.4714993E-03
   maximum displ.:     0.2549476 α      in ANC's #3, #13, #10, ...

........................................................................
.............................. CYCLE   31 ..............................
........................................................................
   1   -221.4386127 -0.221439E+03  0.501E-02    0.63       0.0  T
   2   -221.4386178 -0.512089E-05  0.287E-02    0.63       1.0  T
   3   -221.4386087  0.909354E-05  0.876E-03    0.62       1.0  T
   4   -221.4386181 -0.935166E-05  0.389E-03    0.63       2.3  T
   5   -221.4386192 -0.111413E-05  0.227E-03    0.63       3.9  T
   6   -221.4386196 -0.389764E-06  0.142E-03    0.63       6.2  T
   7   -221.4386199 -0.302815E-06  0.646E-04    0.63      13.7  T
   8   -221.4386199 -0.507989E-07  0.268E-04    0.63      32.9  T
     SCC iter.                  ...        0 min,  0.135 sec
     gradient                   ...        0 min,  0.047 sec
 * total energy  :  -218.5594868 Eh     change       -0.3397894E-03 Eh
   gradient norm :     0.0068049 Eh/α   predicted    -0.3159828E-03 (  -7.01%)
   displ. norm   :     0.5947796 α      lambda       -0.4438369E-03
   maximum displ.:     0.2718359 α      in ANC's #3, #13, #10, ...

........................................................................
.............................. CYCLE   32 ..............................
........................................................................
   1   -221.4416778 -0.221442E+03  0.480E-02    0.62       0.0  T
   2   -221.4416819 -0.400843E-05  0.276E-02    0.62       1.0  T
   3   -221.4416685  0.133869E-04  0.983E-03    0.62       1.0  T
   4   -221.4416829 -0.144766E-04  0.345E-03    0.62       2.6  T
   5   -221.4416837 -0.767776E-06  0.212E-03    0.62       4.2  T
   6   -221.4416842 -0.440006E-06  0.721E-04    0.62      12.3  T
   7   -221.4416842 -0.265893E-07  0.410E-04    0.62      21.6  T
     SCC iter.                  ...        0 min,  0.124 sec
     gradient                   ...        0 min,  0.047 sec
 * total energy  :  -218.5597918 Eh     change       -0.3049455E-03 Eh
   gradient norm :     0.0086347 Eh/α   predicted    -0.3004264E-03 (  -1.48%)
   displ. norm   :     0.6223354 α      lambda       -0.4179341E-03
   maximum displ.:     0.2777575 α      in ANC's #3, #10, #13, ...

........................................................................
.............................. CYCLE   33 ..............................
........................................................................
   1   -221.4362029 -0.221436E+03  0.509E-02    0.62       0.0  T
   2   -221.4362070 -0.410462E-05  0.292E-02    0.62       1.0  T
   3   -221.4361886  0.183710E-04  0.117E-02    0.61       1.0  T
   4   -221.4362075 -0.188663E-04  0.414E-03    0.62       2.1  T
   5   -221.4362084 -0.930228E-06  0.277E-03    0.62       3.2  T
   6   -221.4362093 -0.854204E-06  0.140E-03    0.62       6.3  T
   7   -221.4362096 -0.298267E-06  0.545E-04    0.62      16.2  T
   8   -221.4362096 -0.353435E-07  0.240E-04    0.62      36.9  T
     SCC iter.                  ...        0 min,  0.139 sec
     gradient                   ...        0 min,  0.047 sec
 * total energy  :  -218.5600928 Eh     change       -0.3010431E-03 Eh
   gradient norm :     0.0069777 Eh/α   predicted    -0.2899019E-03 (  -3.70%)
   displ. norm   :     0.5354688 α      lambda       -0.4746917E-03
   maximum displ.:     0.2605362 α      in ANC's #3, #10, #13, ...

........................................................................
.............................. CYCLE   34 ..............................
........................................................................
   1   -221.4438580 -0.221444E+03  0.407E-02    0.61       0.0  T
   2   -221.4438575  0.490650E-06  0.236E-02    0.61       1.0  T
   3   -221.4437690  0.885571E-04  0.231E-02    0.61       1.0  T
   4   -221.4438601 -0.911846E-04  0.495E-03    0.61       1.8  T
   5   -221.4438639 -0.375924E-05  0.231E-03    0.61       3.8  T
   6   -221.4438646 -0.727391E-06  0.102E-03    0.61       8.7  T
   7   -221.4438647 -0.110981E-06  0.447E-04    0.61      19.8  T
   8   -221.4438648 -0.172722E-07  0.199E-04    0.61      44.4  T
     SCC iter.                  ...        0 min,  0.137 sec
     gradient                   ...        0 min,  0.047 sec
 * total energy  :  -218.5603979 Eh     change       -0.3051346E-03 Eh
   gradient norm :     0.0112219 Eh/α   predicted    -0.3054008E-03 (   0.09%)
   displ. norm   :     0.5910902 α      lambda       -0.5637194E-03
   maximum displ.:     0.2889886 α      in ANC's #3, #10, #13, ...

........................................................................
.............................. CYCLE   35 ..............................
........................................................................
   1   -221.4385791 -0.221439E+03  0.489E-02    0.61       0.0  T
   2   -221.4385813 -0.214338E-05  0.282E-02    0.61       1.0  T
   3   -221.4385228  0.585230E-04  0.187E-02    0.61       1.0  T
   4   -221.4385810 -0.581946E-04  0.499E-03    0.61       1.8  T
   5   -221.4385845 -0.358084E-05  0.252E-03    0.61       3.5  T
   6   -221.4385853 -0.784187E-06  0.117E-03    0.61       7.6  T
   7   -221.4385855 -0.146590E-06  0.499E-04    0.61      17.7  T
   8   -221.4385855 -0.256753E-07  0.218E-04    0.61      40.5  T
     SCC iter.                  ...        0 min,  0.137 sec
     gradient                   ...        0 min,  0.047 sec
 * total energy  :  -218.5607178 Eh     change       -0.3198539E-03 Eh
   gradient norm :     0.0129567 Eh/α   predicted    -0.3803419E-03 (  18.91%)
   displ. norm   :     0.4863512 α      lambda       -0.5767802E-03
   maximum displ.:     0.2398047 α      in ANC's #3, #10, #13, ...

........................................................................
.............................. CYCLE   36 ..............................
........................................................................
   1   -221.4422497 -0.221442E+03  0.403E-02    0.61       0.0  T
   2   -221.4422520 -0.229344E-05  0.231E-02    0.61       1.0  T
   3   -221.4422383  0.137096E-04  0.940E-03    0.61       1.0  T
   4   -221.4422515 -0.131795E-04  0.349E-03    0.61       2.5  T
   5   -221.4422529 -0.144775E-05  0.197E-03    0.61       4.5  T
   6   -221.4422534 -0.491956E-06  0.924E-04    0.61       9.6  T
   7   -221.4422535 -0.103662E-06  0.415E-04    0.61      21.3  T
     SCC iter.                  ...        0 min,  0.120 sec
     gradient                   ...        0 min,  0.047 sec
 * total energy  :  -218.5610154 Eh     change       -0.2975652E-03 Eh
   gradient norm :     0.0150632 Eh/α   predicted    -0.3566063E-03 (  19.84%)
   displ. norm   :     0.4947023 α      lambda       -0.6046732E-03
   maximum displ.:     0.2469243 α      in ANC's #3, #10, #13, ...

........................................................................
.............................. CYCLE   37 ..............................
........................................................................
   1   -221.4414969 -0.221441E+03  0.389E-02    0.60       0.0  T
   2   -221.4414989 -0.208542E-05  0.223E-02    0.61       1.0  T
   3   -221.4414847  0.142827E-04  0.988E-03    0.60       1.0  T
   4   -221.4414998 -0.151429E-04  0.263E-03    0.61       3.4  T
   5   -221.4415003 -0.517316E-06  0.137E-03    0.61       6.5  T
   6   -221.4415004 -0.122117E-06  0.703E-04    0.61      12.6  T
   7   -221.4415005 -0.383336E-07  0.413E-04    0.61      21.4  T
     SCC iter.                  ...        0 min,  0.121 sec
     gradient                   ...        0 min,  0.047 sec
 * total energy  :  -218.5614257 Eh     change       -0.4103718E-03 Eh
   gradient norm :     0.0093213 Eh/α   predicted    -0.3763297E-03 (  -8.30%)
   displ. norm   :     0.5887623 α      lambda       -0.5157131E-03
   maximum displ.:     0.3020926 α      in ANC's #3, #10, #13, ...

........................................................................
.............................. CYCLE   38 ..............................
........................................................................
   1   -221.4394200 -0.221439E+03  0.455E-02    0.60       0.0  T
   2   -221.4394228 -0.277004E-05  0.260E-02    0.60       1.0  T
   3   -221.4394078  0.149917E-04  0.104E-02    0.60       1.0  T
   4   -221.4394239 -0.161019E-04  0.287E-03    0.60       3.1  T
   5   -221.4394245 -0.583247E-06  0.156E-03    0.60       5.7  T
   6   -221.4394246 -0.150855E-06  0.873E-04    0.60      10.1  T
   7   -221.4394247 -0.899978E-07  0.480E-04    0.60      18.4  T
     SCC iter.                  ...        0 min,  0.121 sec
     gradient                   ...        0 min,  0.047 sec
 * total energy  :  -218.5617987 Eh     change       -0.3729697E-03 Eh
   gradient norm :     0.0101628 Eh/α   predicted    -0.3472420E-03 (  -6.90%)
   displ. norm   :     0.6392079 α      lambda       -0.6477676E-03
   maximum displ.:     0.3325362 α      in ANC's #3, #10, #2, ...

........................................................................
.............................. CYCLE   39 ..............................
........................................................................
   1   -221.4398326 -0.221440E+03  0.514E-02    0.60       0.0  T
   2   -221.4398347 -0.206936E-05  0.298E-02    0.60       1.0  T
   3   -221.4397659  0.687233E-04  0.211E-02    0.60       1.0  T
   4   -221.4398393 -0.733422E-04  0.355E-03    0.60       2.5  T
   5   -221.4398390  0.252919E-06  0.301E-03    0.60       2.9  T
   6   -221.4398404 -0.135827E-05  0.148E-03    0.60       6.0  T
   7   -221.4398407 -0.337542E-06  0.557E-04    0.60      15.9  T
   8   -221.4398408 -0.296569E-07  0.263E-04    0.60      33.6  T
     SCC iter.                  ...        0 min,  0.137 sec
     gradient                   ...        0 min,  0.047 sec
 * total energy  :  -218.5622204 Eh     change       -0.4216769E-03 Eh
   gradient norm :     0.0106918 Eh/α   predicted    -0.4562301E-03 (   8.19%)
   displ. norm   :     0.6296423 α      lambda       -0.5298959E-03
   maximum displ.:     0.3373764 α      in ANC's #3, #10, #13, ...

........................................................................
.............................. CYCLE   40 ..............................
........................................................................
   1   -221.4377646 -0.221438E+03  0.470E-02    0.59       0.0  T
   2   -221.4377663 -0.169992E-05  0.272E-02    0.60       1.0  T
   3   -221.4377117  0.545369E-04  0.185E-02    0.60       1.0  T
   4   -221.4377683 -0.565721E-04  0.388E-03    0.60       2.3  T
   5   -221.4377692 -0.943790E-06  0.268E-03    0.60       3.3  T
   6   -221.4377703 -0.101430E-05  0.124E-03    0.60       7.1  T
   7   -221.4377705 -0.228167E-06  0.536E-04    0.60      16.5  T
   8   -221.4377705 -0.272211E-07  0.291E-04    0.60      30.4  T
     SCC iter.                  ...        0 min,  0.138 sec
     gradient                   ...        0 min,  0.047 sec
 * total energy  :  -218.5626377 Eh     change       -0.4173487E-03 Eh
   gradient norm :     0.0092753 Eh/α   predicted    -0.3699876E-03 ( -11.35%)
   displ. norm   :     0.6193376 α      lambda       -0.6591102E-03
   maximum displ.:     0.3478446 α      in ANC's #3, #2, #10, ...

........................................................................
.............................. CYCLE   41 ..............................
........................................................................
   1   -221.4400665 -0.221440E+03  0.519E-02    0.59       0.0  T
   2   -221.4400683 -0.183620E-05  0.300E-02    0.59       1.0  T
   3   -221.4399577  0.110677E-03  0.246E-02    0.60       1.0  T
   4   -221.4400725 -0.114861E-03  0.417E-03    0.59       2.1  T
   5   -221.4400736 -0.108980E-05  0.281E-03    0.59       3.1  T
   6   -221.4400747 -0.110706E-05  0.110E-03    0.59       8.1  T
   7   -221.4400748 -0.964752E-07  0.582E-04    0.59      15.2  T
   8   -221.4400748 -0.325212E-07  0.318E-04    0.59      27.8  T
     SCC iter.                  ...        0 min,  0.139 sec
     gradient                   ...        0 min,  0.047 sec
 * total energy  :  -218.5630514 Eh     change       -0.4136540E-03 Eh
   gradient norm :     0.0135054 Eh/α   predicted    -0.4559665E-03 (  10.23%)
   displ. norm   :     0.6842436 α      lambda       -0.5647870E-03
   maximum displ.:     0.3802309 α      in ANC's #3, #10, #2, ...

........................................................................
.............................. CYCLE   42 ..............................
........................................................................
   1   -221.4375285 -0.221438E+03  0.474E-02    0.59       0.0  T
   2   -221.4375314 -0.295719E-05  0.271E-02    0.59       1.0  T
   3   -221.4375178  0.136767E-04  0.986E-03    0.59       1.0  T
   4   -221.4375323 -0.145085E-04  0.320E-03    0.59       2.8  T
   5   -221.4375330 -0.719801E-06  0.210E-03    0.59       4.2  T
   6   -221.4375335 -0.460213E-06  0.793E-04    0.59      11.2  T
   7   -221.4375335 -0.450668E-07  0.466E-04    0.59      19.0  T
     SCC iter.                  ...        0 min,  0.121 sec
     gradient                   ...        0 min,  0.047 sec
 * total energy  :  -218.5635635 Eh     change       -0.5121432E-03 Eh
   gradient norm :     0.0112941 Eh/α   predicted    -0.4146092E-03 ( -19.04%)
   displ. norm   :     0.6437629 α      lambda       -0.8813826E-03
   maximum displ.:     0.3906734 α      in ANC's #3, #2, #1, ...
 * RMSD in coord.:     0.9095202 α      energy gain  -0.1247955E-01 Eh

generating ANC from model Hessian ...
Using Lindh-Hessian (1995)
 Shifting diagonal of input Hessian by   9.973637461328179E-003
 Lowest  eigenvalues of input Hessian
    0.000000    0.000000    0.000000    0.000000    0.000000    0.000000
    0.010000    0.010008    0.010029    0.010084    0.010118    0.010188
    0.010208    0.010268    0.010298    0.010308    0.010330    0.010355
 Highest eigenvalues
    2.202989    2.204620    2.213139    2.223760    2.236691    2.241227
 

........................................................................
.............................. CYCLE   43 ..............................
........................................................................
   1   -221.4470159 -0.221447E+03  0.504E-02    0.59       0.0  T
   2   -221.4470206 -0.472857E-05  0.289E-02    0.59       1.0  T
   3   -221.4469950  0.256271E-04  0.131E-02    0.59       1.0  T
   4   -221.4470195 -0.244897E-04  0.494E-03    0.59       1.8  T
   5   -221.4470227 -0.316273E-05  0.224E-03    0.59       3.9  T
   6   -221.4470231 -0.399285E-06  0.139E-03    0.59       6.4  T
   7   -221.4470233 -0.250037E-06  0.662E-04    0.59      13.4  T
   8   -221.4470234 -0.603067E-07  0.248E-04    0.59      35.7  T
     SCC iter.                  ...        0 min,  0.138 sec
     gradient                   ...        0 min,  0.047 sec
 * total energy  :  -218.5640702 Eh     change       -0.5067037E-03 Eh
   gradient norm :     0.0132691 Eh/α   predicted     0.0000000E+00 (-100.00%)
   displ. norm   :     0.1177829 α      lambda       -0.5046058E-03
   maximum displ.:     0.0364230 α      in ANC's #3, #49, #72, ...

........................................................................
.............................. CYCLE   44 ..............................
........................................................................
   1   -221.4447815 -0.221445E+03  0.200E-02    0.59       0.0  T
   2   -221.4447819 -0.406493E-06  0.119E-02    0.59       1.0  T
   3   -221.4447632  0.186778E-04  0.104E-02    0.59       1.0  T
   4   -221.4447822 -0.189928E-04  0.266E-03    0.59       3.3  T
   5   -221.4447832 -0.100202E-05  0.124E-03    0.59       7.1  T
   6   -221.4447834 -0.200863E-06  0.641E-04    0.59      13.8  T
   7   -221.4447834 -0.432147E-07  0.314E-04    0.59      28.2  T
     SCC iter.                  ...        0 min,  0.123 sec
     gradient                   ...        0 min,  0.047 sec
 * total energy  :  -218.5644793 Eh     change       -0.4090884E-03 Eh
   gradient norm :     0.0051454 Eh/α   predicted    -0.2558246E-03 ( -37.46%)
   displ. norm   :     0.3467899 α      lambda       -0.8904998E-03
   maximum displ.:     0.1097180 α      in ANC's #3, #72, #49, ...

........................................................................
.............................. CYCLE   45 ..............................
........................................................................
   1   -221.4397209 -0.221440E+03  0.516E-02    0.59       0.0  T
   2   -221.4397232 -0.230782E-05  0.306E-02    0.59       1.0  T
   3   -221.4396160  0.107207E-03  0.248E-02    0.58       1.0  T
   4   -221.4397242 -0.108147E-03  0.635E-03    0.59       1.4  T
   5   -221.4397300 -0.585246E-05  0.287E-03    0.59       3.1  T
   6   -221.4397310 -0.955483E-06  0.161E-03    0.59       5.5  T
   7   -221.4397313 -0.295445E-06  0.744E-04    0.59      11.9  T
   8   -221.4397313 -0.478782E-07  0.388E-04    0.59      22.8  T
     SCC iter.                  ...        0 min,  0.137 sec
     gradient                   ...        0 min,  0.047 sec
 * total energy  :  -218.5650846 Eh     change       -0.6052437E-03 Eh
   gradient norm :     0.0143296 Eh/α   predicted    -0.4988304E-03 ( -17.58%)
   displ. norm   :     0.3127888 α      lambda       -0.5807787E-03
   maximum displ.:     0.1097874 α      in ANC's #3, #72, #2, ...

........................................................................
.............................. CYCLE   46 ..............................
........................................................................
   1   -221.4366892 -0.221437E+03  0.425E-02    0.59       0.0  T
   2   -221.4366911 -0.186051E-05  0.251E-02    0.59       1.0  T
   3   -221.4366324  0.586553E-04  0.182E-02    0.58       1.0  T
   4   -221.4366907 -0.582664E-04  0.501E-03    0.59       1.8  T
   5   -221.4366945 -0.381202E-05  0.217E-03    0.59       4.1  T
   6   -221.4366950 -0.490482E-06  0.127E-03    0.59       7.0  T
   7   -221.4366952 -0.187896E-06  0.572E-04    0.59      15.5  T
   8   -221.4366952 -0.245277E-07  0.319E-04    0.59      27.7  T
     SCC iter.                  ...        0 min,  0.136 sec
     gradient                   ...        0 min,  0.047 sec
 * total energy  :  -218.5655588 Eh     change       -0.4742104E-03 Eh
   gradient norm :     0.0224067 Eh/α   predicted    -0.3188023E-03 ( -32.77%)
   displ. norm   :     0.5248216 α      lambda       -0.1336646E-02
   maximum displ.:     0.1961099 α      in ANC's #3, #72, #2, ...

........................................................................
.............................. CYCLE   47 ..............................
........................................................................
   1   -221.4333510 -0.221433E+03  0.692E-02    0.58       0.0  T
   2   -221.4333586 -0.756318E-05  0.407E-02    0.59       1.0  T
   3   -221.4332371  0.121475E-03  0.263E-02    0.58       1.0  T
   4   -221.4333534 -0.116279E-03  0.872E-03    0.59       1.0  T
   5   -221.4333659 -0.124893E-04  0.344E-03    0.58       2.6  T
   6   -221.4333671 -0.118614E-05  0.198E-03    0.58       4.5  T
   7   -221.4333675 -0.444766E-06  0.926E-04    0.58       9.5  T
   8   -221.4333676 -0.618400E-07  0.509E-04    0.58      17.4  T
     SCC iter.                  ...        0 min,  0.135 sec
     gradient                   ...        0 min,  0.047 sec
 * total energy  :  -218.5666375 Eh     change       -0.1078683E-02 Eh
   gradient norm :     0.0301553 Eh/α   predicted    -0.8524153E-03 ( -20.98%)
   displ. norm   :     0.4971853 α      lambda       -0.2289952E-02
   maximum displ.:     0.1960574 α      in ANC's #3, #72, #2, ...

........................................................................
.............................. CYCLE   48 ..............................
........................................................................
   1   -221.4379494 -0.221438E+03  0.656E-02    0.58       0.0  T
   2   -221.4379582 -0.878516E-05  0.387E-02    0.58       1.0  T
   3   -221.4378936  0.646498E-04  0.196E-02    0.58       1.0  T
   4   -221.4379494 -0.558680E-04  0.855E-03    0.58       1.0  T
   5   -221.4379628 -0.133341E-04  0.308E-03    0.58       2.9  T
   6   -221.4379638 -0.983626E-06  0.163E-03    0.58       5.4  T
   7   -221.4379640 -0.251627E-06  0.825E-04    0.58      10.7  T
   8   -221.4379641 -0.649873E-07  0.379E-04    0.58      23.3  T
     SCC iter.                  ...        0 min,  0.135 sec
     gradient                   ...        0 min,  0.047 sec
 * total energy  :  -218.5684460 Eh     change       -0.1808529E-02 Eh
   gradient norm :     0.0250354 Eh/α   predicted    -0.1428008E-02 ( -21.04%)
   displ. norm   :     0.5159311 α      lambda       -0.2556174E-02
   maximum displ.:     0.2000780 α      in ANC's #3, #2, #72, ...

........................................................................
.............................. CYCLE   49 ..............................
........................................................................
   1   -221.4471193 -0.221447E+03  0.651E-02    0.58       0.0  T
   2   -221.4471265 -0.714666E-05  0.386E-02    0.58       1.0  T
   3   -221.4471058  0.207113E-04  0.130E-02    0.58       1.0  T
   4   -221.4471272 -0.214267E-04  0.455E-03    0.58       1.9  T
   5   -221.4471292 -0.201933E-05  0.269E-03    0.58       3.3  T
   6   -221.4471299 -0.695976E-06  0.140E-03    0.58       6.3  T
   7   -221.4471301 -0.206872E-06  0.739E-04    0.58      12.0  T
   8   -221.4471302 -0.719126E-07  0.319E-04    0.58      27.7  T
     SCC iter.                  ...        0 min,  0.134 sec
     gradient                   ...        0 min,  0.047 sec
 * total energy  :  -218.5705053 Eh     change       -0.2059348E-02 Eh
   gradient norm :     0.0161835 Eh/α   predicted    -0.1618336E-02 ( -21.42%)
   displ. norm   :     0.7988904 α      lambda       -0.3042144E-02
   maximum displ.:     0.2755326 α      in ANC's #3, #72, #2, ...

........................................................................
.............................. CYCLE   50 ..............................
........................................................................
   1   -221.4365133 -0.221437E+03  0.108E-01    0.58       0.0  T
   2   -221.4365439 -0.306117E-04  0.624E-02    0.58       1.0  T
   3   -221.4364967  0.471907E-04  0.207E-02    0.58       1.0  T
   4   -221.4365458 -0.490675E-04  0.787E-03    0.58       1.1  T
   5   -221.4365511 -0.533342E-05  0.446E-03    0.58       2.0  T
   6   -221.4365538 -0.269213E-05  0.169E-03    0.58       5.2  T
   7   -221.4365537  0.466454E-07  0.133E-03    0.58       6.7  T
   8   -221.4365540 -0.242002E-06  0.702E-04    0.58      12.6  T
   9   -221.4365541 -0.950517E-07  0.192E-04    0.58      46.1  T
     SCC iter.                  ...        0 min,  0.150 sec
     gradient                   ...        0 min,  0.047 sec
 * total energy  :  -218.5725094 Eh     change       -0.2004096E-02 Eh
   gradient norm :     0.0376046 Eh/α   predicted    -0.2491866E-02 (  24.34%)
   displ. norm   :     0.4650853 α      lambda       -0.4181822E-02
   maximum displ.:     0.1265779 α      in ANC's #75, #72, #74, ...

........................................................................
.............................. CYCLE   51 ..............................
........................................................................
   1   -221.4595895 -0.221460E+03  0.931E-02    0.58       0.0  T
   2   -221.4595967 -0.719154E-05  0.541E-02    0.58       1.0  T
   3   -221.4592928  0.303852E-03  0.439E-02    0.58       1.0  T
   4   -221.4596017 -0.308908E-03  0.982E-03    0.58       1.0  T
   5   -221.4596141 -0.123347E-04  0.529E-03    0.58       1.7  T
   6   -221.4596184 -0.427744E-05  0.248E-03    0.58       3.6  T
   7   -221.4596191 -0.785088E-06  0.119E-03    0.58       7.5  T
   8   -221.4596193 -0.111936E-06  0.600E-04    0.58      14.7  T
   9   -221.4596193 -0.274626E-07  0.283E-04    0.58      31.3  T
     SCC iter.                  ...        0 min,  0.150 sec
     gradient                   ...        0 min,  0.047 sec
 * total energy  :  -218.5743191 Eh     change       -0.1809712E-02 Eh
   gradient norm :     0.0334778 Eh/α   predicted    -0.2543202E-02 (  40.53%)
   displ. norm   :     0.5563231 α      lambda       -0.5073178E-02
   maximum displ.:     0.2102028 α      in ANC's #72, #75, #3, ...

........................................................................
.............................. CYCLE   52 ..............................
........................................................................
   1   -221.4570702 -0.221457E+03  0.114E-01    0.58       0.0  T
   2   -221.4571088 -0.386564E-04  0.647E-02    0.58       1.0  T
   3   -221.4570375  0.713240E-04  0.245E-02    0.58       1.0  T
   4   -221.4571086 -0.710862E-04  0.967E-03    0.58       1.0  T
   5   -221.4571171 -0.847649E-05  0.488E-03    0.58       1.8  T
   6   -221.4571203 -0.323781E-05  0.220E-03    0.58       4.0  T
   7   -221.4571205 -0.175891E-06  0.166E-03    0.58       5.3  T
   8   -221.4571210 -0.479458E-06  0.540E-04    0.58      16.4  T
   9   -221.4571210 -0.404404E-07  0.184E-04    0.58      48.2  T
     SCC iter.                  ...        0 min,  0.150 sec
     gradient                   ...        0 min,  0.047 sec
 * total energy  :  -218.5742038 Eh     change        0.1153384E-03 Eh
   gradient norm :     0.0577676 Eh/α   predicted    -0.3321666E-02 (*******%)
   displ. norm   :     0.3158179 α      lambda       -0.6096589E-02
   maximum displ.:     0.0859307 α      in ANC's #74, #3, #68, ...

........................................................................
.............................. CYCLE   53 ..............................
........................................................................
   1   -221.4425281 -0.221443E+03  0.840E-02    0.58       0.0  T
   2   -221.4425623 -0.341653E-04  0.458E-02    0.58       1.0  T
   3   -221.4425541  0.824216E-05  0.126E-02    0.58       1.0  T
   4   -221.4425549 -0.845801E-06  0.811E-03    0.58       1.1  T
   5   -221.4425631 -0.824244E-05  0.426E-03    0.58       2.1  T
   6   -221.4425662 -0.309594E-05  0.151E-03    0.58       5.9  T
   7   -221.4425664 -0.132182E-06  0.961E-04    0.58       9.2  T
   8   -221.4425665 -0.935914E-07  0.478E-04    0.58      18.5  T
     SCC iter.                  ...        0 min,  0.133 sec
     gradient                   ...        0 min,  0.047 sec
 * total energy  :  -218.5767211 Eh     change       -0.2517321E-02 Eh
   gradient norm :     0.0348897 Eh/α   predicted    -0.3352339E-02 (  33.17%)
   displ. norm   :     0.2320111 α      lambda       -0.2779672E-02
   maximum displ.:     0.0569795 α      in ANC's #52, #31, #66, ...

........................................................................
.............................. CYCLE   54 ..............................
........................................................................
   1   -221.4587385 -0.221459E+03  0.749E-02    0.58       0.0  T
   2   -221.4587575 -0.190415E-04  0.417E-02    0.58       1.0  T
   3   -221.4587141  0.434628E-04  0.161E-02    0.58       1.0  T
   4   -221.4587414 -0.273911E-04  0.101E-02    0.58       1.0  T
   5   -221.4587607 -0.192142E-04  0.284E-03    0.58       3.1  T
   6   -221.4587617 -0.101163E-05  0.117E-03    0.58       7.5  T
   7   -221.4587617 -0.740195E-07  0.698E-04    0.58      12.7  T
   8   -221.4587618 -0.326841E-07  0.319E-04    0.58      27.7  T
     SCC iter.                  ...        0 min,  0.133 sec
     gradient                   ...        0 min,  0.047 sec
 * total energy  :  -218.5762136 Eh     change        0.5075298E-03 Eh
   gradient norm :     0.0432803 Eh/α   predicted    -0.1464656E-02 (-388.59%)
   displ. norm   :     0.2649046 α      lambda       -0.4132215E-02
   maximum displ.:     0.1139730 α      in ANC's #75, #3, #2, ...

........................................................................
.............................. CYCLE   55 ..............................
........................................................................
   1   -221.4618786 -0.221462E+03  0.696E-02    0.58       0.0  T
   2   -221.4618961 -0.174727E-04  0.386E-02    0.58       1.0  T
   3   -221.4618893  0.677735E-05  0.958E-03    0.58       1.0  T
   4   -221.4618907 -0.135377E-05  0.706E-03    0.58       1.3  T
   5   -221.4618982 -0.755365E-05  0.192E-03    0.58       4.6  T
   6   -221.4618984 -0.213063E-06  0.122E-03    0.58       7.3  T
   7   -221.4618985 -0.752070E-07  0.861E-04    0.58      10.3  T
   8   -221.4618986 -0.127141E-06  0.320E-04    0.58      27.6  T
     SCC iter.                  ...        0 min,  0.132 sec
     gradient                   ...        0 min,  0.047 sec
 * total energy  :  -218.5779369 Eh     change       -0.1723345E-02 Eh
   gradient norm :     0.0265192 Eh/α   predicted    -0.2211100E-02 (  28.30%)
   displ. norm   :     0.5758692 α      lambda       -0.3108668E-02
   maximum displ.:     0.1903488 α      in ANC's #72, #3, #75, ...

........................................................................
.............................. CYCLE   56 ..............................
........................................................................
   1   -221.4385038 -0.221439E+03  0.999E-02    0.58       0.0  T
   2   -221.4385396 -0.357818E-04  0.564E-02    0.58       1.0  T
   3   -221.4385238  0.158068E-04  0.149E-02    0.58       1.0  T
   4   -221.4385385 -0.147207E-04  0.788E-03    0.58       1.1  T
   5   -221.4385439 -0.539750E-05  0.409E-03    0.58       2.2  T
   6   -221.4385459 -0.203597E-05  0.181E-03    0.58       4.9  T
   7   -221.4385461 -0.160291E-06  0.116E-03    0.58       7.6  T
   8   -221.4385463 -0.196891E-06  0.571E-04    0.58      15.5  T
   9   -221.4385464 -0.549493E-07  0.191E-04    0.58      46.3  T
     SCC iter.                  ...        0 min,  0.149 sec
     gradient                   ...        0 min,  0.047 sec
 * total energy  :  -218.5780176 Eh     change       -0.8064496E-04 Eh
   gradient norm :     0.0436922 Eh/α   predicted    -0.2069795E-02 (2466.55%)
   displ. norm   :     0.1863037 α      lambda       -0.3104818E-02
[...]
    11   6 C    3.988 --    12 N    1.033    10 C    0.998    84 H    0.956
                            85 H    0.951
    12   7 N    3.010 --    11 C    1.033    87 H    0.963    86 H    0.956
    13   7 N    3.097 --    10 C    1.520     4 C    1.292
    14   6 C    3.872 --     3 C    1.275    18 C    1.275    15 S    1.108
    15  16 S    2.588 --    16 C    1.116    14 C    1.108
    16   6 C    3.906 --    27 C    1.320    17 C    1.246    15 S    1.116
    17   6 C    3.953 --    26 N    1.300    16 C    1.246    18 C    1.185
    18   6 C    3.967 --    19 N    1.280    14 C    1.275    17 C    1.185
    19   7 N    3.072 --    20 C    1.514    18 C    1.280
    20   6 C    3.954 --    19 N    1.514    23 C    1.212    21 C    1.011
    21   6 C    3.989 --    22 N    1.034    20 C    1.011    89 H    0.953
                            88 H    0.940
    22   7 N    3.006 --    21 C    1.034    90 H    0.968    91 H    0.948
    23   6 C    3.928 --    26 N    1.498    20 C    1.212    24 C    0.997
    24   6 C    3.988 --    25 N    1.037    23 C    0.997    92 H    0.954
                            93 H    0.946
    25   7 N    3.019 --    24 C    1.037    95 H    0.963    94 H    0.949
    26   7 N    3.153 --    23 C    1.498    17 C    1.300    28 S    0.108
    27   6 C    3.897 --    16 C    1.320    31 C    1.252    28 S    1.110
    28  16 S    2.668 --    29 C    1.115    27 C    1.110    26 N    0.108
    29   6 C    3.884 --    40 C    1.301    30 C    1.260    28 S    1.115
    30   6 C    3.965 --    39 C    1.273    29 C    1.260    31 C    1.222
    31   6 C    3.962 --    32 C    1.280    27 C    1.252    30 C    1.222
    32   6 C    3.962 --    33 C    1.470    31 C    1.280    96 H    0.953
    33   6 C    3.913 --    32 C    1.470    36 C    1.164    34 O    1.099
    34   8 O    2.262 --    33 C    1.099    35 C    0.976
    35   6 C    3.933 --    98 H    0.978    34 O    0.976    97 H    0.976
                            99 H    0.967
    36   6 C    3.913 --    39 C    1.481    33 C    1.164    37 O    1.088
    37   8 O    2.252 --    36 C    1.088    38 C    0.980
    38   6 C    3.939 --    37 O    0.980   100 H    0.979   101 H    0.976
                           102 H    0.969
    39   6 C    3.967 --    36 C    1.481    30 C    1.273   103 H    0.949
    40   6 C    3.887 --    29 C    1.301    44 C    1.257    41 S    1.111
    41  16 S    2.588 --    42 C    1.128    40 C    1.111
    42   6 C    3.896 --    53 C    1.310    43 C    1.247    41 S    1.128
    43   6 C    3.955 --    52 N    1.305    42 C    1.247    44 C    1.177
    44   6 C    3.956 --    45 N    1.293    40 C    1.257    43 C    1.177
    45   7 N    3.068 --    46 C    1.510    44 C    1.293
    46   6 C    3.948 --    45 N    1.510    49 C    1.223    47 C    0.990
    47   6 C    3.988 --    48 N    1.035    46 C    0.990   105 H    0.966
                           104 H    0.947
    48   7 N    3.008 --    47 C    1.035   106 H    0.967   107 H    0.948
    49   6 C    3.947 --    52 N    1.501    46 C    1.223    50 C    1.006
    50   6 C    3.989 --    51 N    1.031    49 C    1.006   108 H    0.963
                           109 H    0.940
    51   7 N    3.003 --    50 C    1.031   111 H    0.965   110 H    0.948
    52   7 N    3.102 --    49 C    1.501    43 C    1.305
    53   6 C    3.915 --    42 C    1.310    57 C    1.252    54 S    1.123
    54  16 S    2.652 --    55 C    1.132    53 C    1.123
    55   6 C    3.880 --    66 C    1.273    56 C    1.269    54 S    1.132
    56   6 C    3.967 --    65 N    1.280    55 C    1.269    57 C    1.187
    57   6 C    3.953 --    58 N    1.293    53 C    1.252    56 C    1.187
    58   7 N    3.077 --    59 C    1.515    57 C    1.293
    59   6 C    3.939 --    58 N    1.515    62 C    1.204    60 C    0.996
    60   6 C    3.990 --    61 N    1.043    59 C    0.996   112 H    0.954
                           113 H    0.947
    61   7 N    3.008 --    60 C    1.043   114 H    0.961   115 H    0.945
    62   6 C    3.949 --    65 N    1.522    59 C    1.204    63 C    0.996
    63   6 C    3.989 --    64 N    1.040    62 C    0.996   116 H    0.952
                           117 H    0.951
    64   7 N    3.012 --    63 C    1.040   119 H    0.962   118 H    0.962
    65   7 N    3.074 --    62 C    1.522    56 C    1.280
    66   6 C    3.947 --    70 C    1.289    55 C    1.273    67 S    1.144
    67  16 S    2.682 --    68 C    1.222    66 C    1.144
    68   6 C    3.841 --    69 C    1.434    67 S    1.222   120 H    0.967
    69   6 C    3.977 --    68 C    1.434    78 N    1.230    70 C    1.144
    70   6 C    3.947 --    71 N    1.291    66 C    1.289    69 C    1.144
    71   7 N    3.096 --    72 C    1.524    70 C    1.291
    72   6 C    3.932 --    71 N    1.524    75 C    1.186    73 C    1.007
    73   6 C    3.989 --    74 N    1.031    72 C    1.007   122 H    0.961
                           121 H    0.940
    74   7 N    3.004 --    73 C    1.031   124 H    0.966   123 H    0.947
    75   6 C    3.969 --    78 N    1.566    72 C    1.186    76 C    0.992
    76   6 C    3.990 --    77 N    1.039    75 C    0.992   125 H    0.956
                           126 H    0.950
    77   7 N    3.011 --    76 C    1.039   127 H    0.963   128 H    0.961
    78   7 N    3.041 --    75 C    1.566    69 C    1.230
    79   1 H    0.996 --     1 C    0.967
    80   1 H    0.994 --     8 C    0.952
    81   1 H    0.994 --     8 C    0.954
    82   1 H    0.978 --     9 N    0.963
    83   1 H    0.977 --     9 N    0.962
    84   1 H    0.993 --    11 C    0.956
    85   1 H    0.992 --    11 C    0.951
    86   1 H    0.976 --    12 N    0.956
    87   1 H    0.978 --    12 N    0.963
    88   1 H    0.993 --    21 C    0.940
    89   1 H    0.994 --    21 C    0.953
    90   1 H    0.980 --    22 N    0.968
    91   1 H    0.972 --    22 N    0.948
    92   1 H    0.994 --    24 C    0.954
    93   1 H    0.991 --    24 C    0.946
    94   1 H    0.972 --    25 N    0.949
    95   1 H    0.978 --    25 N    0.963
    96   1 H    0.996 --    32 C    0.953
    97   1 H    0.997 --    35 C    0.976
    98   1 H    0.994 --    35 C    0.978
    99   1 H    0.994 --    35 C    0.967
   100   1 H    0.995 --    38 C    0.979
   101   1 H    0.997 --    38 C    0.976
   102   1 H    0.995 --    38 C    0.969
   103   1 H    0.994 --    39 C    0.949
   104   1 H    0.993 --    47 C    0.947
   105   1 H    0.996 --    47 C    0.966
   106   1 H    0.980 --    48 N    0.967
   107   1 H    0.974 --    48 N    0.948
   108   1 H    0.996 --    50 C    0.963
   109   1 H    0.995 --    50 C    0.940
   110   1 H    0.971 --    51 N    0.948
   111   1 H    0.980 --    51 N    0.965
   112   1 H    0.994 --    60 C    0.954
   113   1 H    0.993 --    60 C    0.947
   114   1 H    0.978 --    61 N    0.961
   115   1 H    0.971 --    61 N    0.945
   116   1 H    0.994 --    63 C    0.952
   117   1 H    0.994 --    63 C    0.951
   118   1 H    0.977 --    64 N    0.962
   119   1 H    0.978 --    64 N    0.962
   120   1 H    0.995 --    68 C    0.967
   121   1 H    0.994 --    73 C    0.940
   122   1 H    0.995 --    73 C    0.961
   123   1 H    0.971 --    74 N    0.947
   124   1 H    0.981 --    74 N    0.966
   125   1 H    0.995 --    76 C    0.956
   126   1 H    0.994 --    76 C    0.950
   127   1 H    0.978 --    77 N    0.963
   128   1 H    0.977 --    77 N    0.961
 ---------------------------------------------------------------------------

Topologies differ in bond orders
Writing corrected topology to xtbtopo.mol

molecular dipole:
                 x           y           z       tot (Debye)
 q only:        0.513       0.139       0.475
   full:        0.381       0.069       0.285       1.221
molecular quadrupole (traceless):
                xx          xy          yy          xz          yz          zz
 q only:      -14.231       0.296      -9.087      14.668      17.947      23.318
  q+dip:      -34.886     -25.153       4.535       3.649      10.952      30.351
   full:      -37.782     -29.679      11.427       3.985       7.224      26.354

           -------------------------------------------------
          |                Geometry Summary                 |
           -------------------------------------------------

      molecular mass/u    :     1155.4554310
   center of mass at/Å    :        0.1405364      -0.5687070      -0.3393818
  moments of inertia/u·Å² :        0.1234444E+05   0.5245753E+05   0.6316538E+05
rotational constants/cm⁻¹ :        0.1365605E-02   0.3213577E-03   0.2668809E-03

 * 128 selected distances

     #   Z          #   Z                                           value/Å
     1   6 C        2  16 S                                       1.7201598
     2  16 S        3   6 C                                       1.7322521
     3   6 C        4   6 C                                       1.3963052
     1   6 C        5   6 C                                       1.3751665
     4   6 C        5   6 C                                       1.4330715
     5   6 C        6   7 N                                       1.3560813
     6   7 N        7   6 C                                       1.3066498
     8   6 C        9   7 N                                       1.4468053
     7   6 C       10   6 C                                       1.4336294
    11   6 C       12   7 N                                       1.4512050
     4   6 C       13   7 N                                       1.3379520
    10   6 C       13   7 N                                       1.3112465
     3   6 C       14   6 C                                       1.3962653
    14   6 C       15  16 S                                       1.7453607
    15  16 S       16   6 C                                       1.7471556
    16   6 C       17   6 C                                       1.4076903
    14   6 C       18   6 C                                       1.3979081
    17   6 C       18   6 C                                       1.4177859
    18   6 C       19   7 N                                       1.3425836
    19   7 N       20   6 C                                       1.3127439
    21   6 C       22   7 N                                       1.4492718
    20   6 C       23   6 C                                       1.4301032
    24   6 C       25   7 N                                       1.4490594
    17   6 C       26   7 N                                       1.3353716
    23   6 C       26   7 N                                       1.3136253
    16   6 C       27   6 C                                       1.3927342
    27   6 C       28  16 S                                       1.7424356
    28  16 S       29   6 C                                       1.7443791
    29   6 C       30   6 C                                       1.4101433
    27   6 C       31   6 C                                       1.4111182
    30   6 C       31   6 C                                       1.4224678
    31   6 C       32   6 C                                       1.4059004
    32   6 C       33   6 C                                       1.3739561
    33   6 C       34   8 O                                       1.3488219
    34   8 O       35   6 C                                       1.4094301
    36   6 C       37   8 O                                       1.3531464
    37   8 O       38   6 C                                       1.4079403
    30   6 C       39   6 C                                       1.4058440
    36   6 C       39   6 C                                       1.3711541
    29   6 C       40   6 C                                       1.3990074
    40   6 C       41  16 S                                       1.7593168 (max)
    41  16 S       42   6 C                                       1.7324745
    42   6 C       43   6 C                                       1.4030500
    40   6 C       44   6 C                                       1.4076869
    43   6 C       44   6 C                                       1.4251753
    44   6 C       45   7 N                                       1.3415922
    45   7 N       46   6 C                                       1.3134998
    47   6 C       48   7 N                                       1.4507509
    46   6 C       49   6 C                                       1.4244940
    50   6 C       51   7 N                                       1.4494963
    43   6 C       52   7 N                                       1.3364900
    49   6 C       52   7 N                                       1.3129991
    42   6 C       53   6 C                                       1.3893194
    53   6 C       54  16 S                                       1.7433337
    54  16 S       55   6 C                                       1.7383910
    55   6 C       56   6 C                                       1.3998683
    53   6 C       57   6 C                                       1.4044484
    56   6 C       57   6 C                                       1.4203149
    57   6 C       58   7 N                                       1.3411306
    58   7 N       59   6 C                                       1.3132874
    60   6 C       61   7 N                                       1.4449915
    59   6 C       62   6 C                                       1.4312213
    63   6 C       64   7 N                                       1.4471408
    56   6 C       65   7 N                                       1.3424018
    62   6 C       65   7 N                                       1.3115215
    55   6 C       66   6 C                                       1.3969400
    66   6 C       67  16 S                                       1.7339134
    67  16 S       68   6 C                                       1.7163732
    68   6 C       69   6 C                                       1.3756689
    66   6 C       70   6 C                                       1.3974074
    69   6 C       70   6 C                                       1.4340129
    70   6 C       71   7 N                                       1.3397185
    71   7 N       72   6 C                                       1.3108642
    73   6 C       74   7 N                                       1.4497751
    72   6 C       75   6 C                                       1.4352017
    76   6 C       77   7 N                                       1.4470875
    69   6 C       78   7 N                                       1.3543931
    75   6 C       78   7 N                                       1.3060282
     1   6 C       79   1 H                                       1.0703678
     8   6 C       80   1 H                                       1.0963244
     8   6 C       81   1 H                                       1.0958012
     9   7 N       82   1 H                                       1.0152024
     9   7 N       83   1 H                                       1.0152579
    11   6 C       84   1 H                                       1.0945506
    11   6 C       85   1 H                                       1.0963255
    12   7 N       86   1 H                                       1.0166413
    12   7 N       87   1 H                                       1.0165456
    21   6 C       88   1 H                                       1.1060001
    21   6 C       89   1 H                                       1.0966329
    22   7 N       90   1 H                                       1.0125383 (min)
    22   7 N       91   1 H                                       1.0149281
    24   6 C       92   1 H                                       1.0945519
    24   6 C       93   1 H                                       1.0972186
    25   7 N       94   1 H                                       1.0157665
    25   7 N       95   1 H                                       1.0153971
    32   6 C       96   1 H                                       1.0773174
    35   6 C       97   1 H                                       1.0939808
    35   6 C       98   1 H                                       1.0883597
    35   6 C       99   1 H                                       1.0931249
    38   6 C      100   1 H                                       1.0887968
    38   6 C      101   1 H                                       1.0946520
    38   6 C      102   1 H                                       1.0933561
    39   6 C      103   1 H                                       1.0756942
    47   6 C      104   1 H                                       1.0987162
    47   6 C      105   1 H                                       1.0924005
    48   7 N      106   1 H                                       1.0150026
    48   7 N      107   1 H                                       1.0164652
    50   6 C      108   1 H                                       1.0954073
    50   6 C      109   1 H                                       1.1081106
    51   7 N      110   1 H                                       1.0149119
    51   7 N      111   1 H                                       1.0126425
    60   6 C      112   1 H                                       1.0948809
    60   6 C      113   1 H                                       1.0988749
    61   7 N      114   1 H                                       1.0157029
    61   7 N      115   1 H                                       1.0169234
    63   6 C      116   1 H                                       1.0959301
    63   6 C      117   1 H                                       1.0961899
    64   7 N      118   1 H                                       1.0153935
    64   7 N      119   1 H                                       1.0153862
    68   6 C      120   1 H                                       1.0705560
    73   6 C      121   1 H                                       1.1081191
    73   6 C      122   1 H                                       1.0949487
    74   7 N      123   1 H                                       1.0150281
    74   7 N      124   1 H                                       1.0127049
    76   6 C      125   1 H                                       1.0958227
    76   6 C      126   1 H                                       1.0961473
    77   7 N      127   1 H                                       1.0154114
    77   7 N      128   1 H                                       1.0153095

 * 6 distinct bonds (by element types)

   Z      Z             #   av. dist./Å        max./Å        min./Å
   1 H    6 C          30     1.0933053     1.1081191     1.0703678
   6 C    6 C          32     1.4070331     1.4352017     1.3711541
   1 H    7 N          20     1.0151580     1.0169234     1.0125383
   6 C    7 N          30     1.3675255     1.4512050     1.3060282
   6 C    8 O           4     1.3798347     1.4094301     1.3488219
   6 C   16 S          12     1.7379621     1.7593168     1.7163732


optimized geometry written to: xtbopt.mol


           -------------------------------------------------
          | TOTAL ENERGY             -218.610111794374 Eh   |
          | GRADIENT NORM               0.000584452803 Eh/α |
          | HOMO-LUMO GAP               0.405456304948 eV   |
           -------------------------------------------------

------------------------------------------------------------------------
 * finished run on 2022/03/01 at 23:05:32.436     
------------------------------------------------------------------------
 total:
 * wall-time:     0 d,  0 h,  0 min, 44.520 sec
 *  cpu-time:     0 d,  0 h,  5 min, 52.375 sec
 * ratio c/w:     7.915 speedup
 SCF:
 * wall-time:     0 d,  0 h,  0 min,  0.315 sec
 *  cpu-time:     0 d,  0 h,  0 min,  2.513 sec
 * ratio c/w:     7.979 speedup
 ANC optimizer:
 * wall-time:     0 d,  0 h,  0 min, 43.573 sec
 *  cpu-time:     0 d,  0 h,  5 min, 48.296 sec
 * ratio c/w:     7.993 speedup

