      -----------------------------------------------------------      
     |                   =====================                   |     
     |                           x T B                           |     
     |                   =====================                   |     
     |                         S. Grimme                         |     
     |          Mulliken Center for Theoretical Chemistry        |     
     |                    University of Bonn                     |     
      -----------------------------------------------------------      

   * xtb version 6.4.1 (unknown) compiled by 'oda6@login1.crc.pitt.edu' on 2021-06-25

   xtb is free software: you can redistribute it and/or modify it under
   the terms of the GNU Lesser General Public License as published by
   the Free Software Foundation, either version 3 of the License, or
   (at your option) any later version.
   
   xtb is distributed in the hope that it will be useful,
   but WITHOUT ANY WARRANTY; without even the implied warranty of
   MERCHANTABILITY or FITNESS FOR A PARTICULAR PURPOSE.  See the
   GNU Lesser General Public License for more details.
   
   Cite this work as:
   * C. Bannwarth, E. Caldeweyher, S. Ehlert, A. Hansen, P. Pracht,
     J. Seibert, S. Spicher, S. Grimme, WIREs Comput. Mol. Sci., 2020, 11,
     e01493. DOI: 10.1002/wcms.1493
   
   for GFN2-xTB:
   * C. Bannwarth, S. Ehlert and S. Grimme., J. Chem. Theory Comput., 2019,
     15, 1652-1671. DOI: 10.1021/acs.jctc.8b01176
   for GFN1-xTB:
   * S. Grimme, C. Bannwarth, P. Shushkov, J. Chem. Theory Comput., 2017,
     13, 1989-2009. DOI: 10.1021/acs.jctc.7b00118
   for GFN0-xTB:
   * P. Pracht, E. Caldeweyher, S. Ehlert, S. Grimme, ChemRxiv, 2019, preprint.
     DOI: 10.26434/chemrxiv.8326202.v1
   for GFN-FF:
   * S. Spicher and S. Grimme, Angew. Chem. Int. Ed., 2020, 59, 15665-15673.
     DOI: 10.1002/anie.202004239
   
   for DFT-D4:
   * E. Caldeweyher, C. Bannwarth and S. Grimme, J. Chem. Phys., 2017,
     147, 034112. DOI: 10.1063/1.4993215
   * E. Caldeweyher, S. Ehlert, A. Hansen, H. Neugebauer, S. Spicher,
     C. Bannwarth and S. Grimme, J. Chem. Phys., 2019, 150, 154122.
     DOI: 10.1063/1.5090222
   * E. Caldeweyher, J.-M. Mewes, S. Ehlert and S. Grimme, Phys. Chem. Chem. Phys.
     2020, 22, 8499-8512. DOI: 10.1039/D0CP00502A
   
   for sTDA-xTB:
   * S. Grimme and C. Bannwarth, J. Chem. Phys., 2016, 145, 054103.
     DOI: 10.1063/1.4959605
   
   in the mass-spec context:
   * V. Asgeirsson, C. Bauer and S. Grimme, Chem. Sci., 2017, 8, 4879.
     DOI: 10.1039/c7sc00601b
   * J. Koopman and S. Grimme, ACS Omega 2019, 4, 12, 15120-15133.
     DOI: 10.1021/acsomega.9b02011
   
   for metadynamics refer to:
   * S. Grimme, J. Chem. Theory Comput., 2019, 155, 2847-2862
     DOI: 10.1021/acs.jctc.9b00143
   
   for SPH calculations refer to:
   * S. Spicher and S. Grimme, J. Chem. Theory Comput., 2021, 17, 1701-1714
     DOI: 10.1021/acs.jctc.0c01306
   
   with help from (in alphabetical order)
   P. Atkinson, C. Bannwarth, F. Bohle, G. Brandenburg, E. Caldeweyher
   M. Checinski, S. Dohm, S. Ehlert, S. Ehrlich, I. Gerasimov, J. Koopman
   C. Lavigne, S. Lehtola, F. März, M. Müller, F. Musil, H. Neugebauer
   J. Pisarek, C. Plett, P. Pracht, J. Seibert, P. Shushkov, S. Spicher
   M. Stahn, M. Steiner, T. Strunk, J. Stückrath, T. Rose, and J. Unsleber
   
 * started run on 2022/03/01 at 08:38:11.255     

           -------------------------------------------------
          |                Calculation Setup                |
           -------------------------------------------------

          program call               : /ihome/ghutchison/oda6/xtb/xtb-641/bin/xtb ../../FF_optimized/121_564_110111.mol -opt
          hostname                   : smp-n90
          coordinate file            : ../../FF_optimized/121_564_110111.mol
          omp threads                :                     8
          number of atoms            :                   160
          number of electrons        :                   444
          charge                     :                     0
          spin                       :                   0.0
          first test random number   :      0.99320976828357

   ID    Z sym.   atoms
    1    6 C      1, 3-7, 9-15, 17-21, 23-29, 31-33, 35-43, 45, 47-51, 53-59,
                  61-65, 67-73, 75-79, 81-86
    2   16 S      2, 16, 30, 44, 46, 60, 74
    3    8 O      8, 22, 34, 52, 66, 80
    4    1 H      87-160
########################################################################
[WARNING] Please study the warnings concerning your input carefully
-1- prog_main_parseArguments: the use of '-opt' is discouraged, please use '--opt' next time
########################################################################

           -------------------------------------------------
          |                 G F N 2 - x T B                 |
           -------------------------------------------------

        Reference                      10.1021/acs.jctc.8b01176
      * Hamiltonian:
        H0-scaling (s, p, d)           1.850000    2.230000    2.230000
        zeta-weighting                 0.500000
      * Dispersion:
        s8                             2.700000
        a1                             0.520000
        a2                             5.000000
        s9                             5.000000
      * Repulsion:
        kExp                           1.500000    1.000000
        rExp                           1.000000
      * Coulomb:
        alpha                          2.000000
        third order                    shell-resolved
        anisotropic                    true
        a3                             3.000000
        a5                             4.000000
        cn-shift                       1.200000
        cn-exp                         4.000000
        max-rad                        5.000000


          ...................................................
          :                      SETUP                      :
          :.................................................:
          :  # basis functions                 460          :
          :  # atomic orbitals                 453          :
          :  # shells                          253          :
          :  # electrons                       444          :
          :  max. iterations                   250          :
          :  Hamiltonian                  GFN2-xTB          :
          :  restarted?                      false          :
          :  GBSA solvation                  false          :
          :  PC potential                    false          :
          :  electronic temp.          300.0000000     K    :
          :  accuracy                    1.0000000          :
          :  -> integral cutoff          0.2500000E+02      :
          :  -> integral neglect         0.1000000E-07      :
          :  -> SCF convergence          0.1000000E-05 Eh   :
          :  -> wf. convergence          0.1000000E-03 e    :
          :  Broyden damping             0.4000000          :
          ...................................................

 iter      E             dE          RMSdq      gap      omega  full diag
   1   -243.9688579 -0.243969E+03  0.385E+00    1.68       0.0  T
   2   -244.2805554 -0.311697E+00  0.212E+00    1.68       1.0  T
   3   -244.2771791  0.337625E-02  0.123E+00    1.72       1.0  T
   4   -244.3450542 -0.678751E-01  0.342E-01    1.64       1.0  T
   5   -244.3528112 -0.775693E-02  0.176E-01    1.69       1.0  T
   6   -244.3564469 -0.363568E-02  0.687E-02    1.67       1.0  T
   7   -244.3566273 -0.180457E-03  0.346E-02    1.67       1.0  T
   8   -244.3567389 -0.111573E-03  0.153E-02    1.67       1.0  T
   9   -244.3567431 -0.424162E-05  0.815E-03    1.67       1.0  T
  10   -244.3567489 -0.577492E-05  0.383E-03    1.67       2.1  T
  11   -244.3567502 -0.129140E-05  0.153E-03    1.67       5.2  T
  12   -244.3567502 -0.235410E-07  0.897E-04    1.67       8.8  T
  13   -244.3567503 -0.425848E-07  0.458E-04    1.67      17.3  T

   *** convergence criteria satisfied after 13 iterations ***

         #    Occupation            Energy/Eh            Energy/eV
      -------------------------------------------------------------
         1        2.0000           -0.7430181             -20.2186
       ...           ...                  ...                  ...
       216        2.0000           -0.3819348             -10.3930
       217        2.0000           -0.3800642             -10.3421
       218        2.0000           -0.3749691             -10.2034
       219        2.0000           -0.3716719             -10.1137
       220        2.0000           -0.3586636              -9.7597
       221        2.0000           -0.3536074              -9.6221
       222        2.0000           -0.3479623              -9.4685 (HOMO)
       223                         -0.2864925              -7.7959 (LUMO)
       224                         -0.2779439              -7.5632
       225                         -0.2723237              -7.4103
       226                         -0.2585153              -7.0346
       227                         -0.2576177              -7.0101
       ...                                ...                  ...
       453                          0.7734639              21.0470
      -------------------------------------------------------------
                  HL-Gap            0.0614698 Eh            1.6727 eV
             Fermi-level           -0.3172274 Eh           -8.6322 eV

 SCC (total)                   0 d,  0 h,  0 min,  0.408 sec
 SCC setup                      ...        0 min,  0.002 sec (  0.447%)
 Dispersion                     ...        0 min,  0.007 sec (  1.651%)
 classical contributions        ...        0 min,  0.000 sec (  0.063%)
 integral evaluation            ...        0 min,  0.023 sec (  5.662%)
 iterations                     ...        0 min,  0.296 sec ( 72.467%)
 molecular gradient             ...        0 min,  0.079 sec ( 19.243%)
 printout                       ...        0 min,  0.002 sec (  0.446%)

         :::::::::::::::::::::::::::::::::::::::::::::::::::::
         ::                     SUMMARY                     ::
         :::::::::::::::::::::::::::::::::::::::::::::::::::::
         :: total energy            -241.131166317720 Eh    ::
         :: gradient norm              0.274073804359 Eh/a0 ::
         :: HOMO-LUMO gap              1.672678642651 eV    ::
         ::.................................................::
         :: SCC energy              -244.356750260880 Eh    ::
         :: -> isotropic ES            0.163902013154 Eh    ::
         :: -> anisotropic ES          0.021110461148 Eh    ::
         :: -> anisotropic XC          0.099372381143 Eh    ::
         :: -> dispersion             -0.240671859431 Eh    ::
         :: repulsion energy           3.216182319296 Eh    ::
         :: add. restraining           0.000000000000 Eh    ::
         :: total charge              -0.000000000000 e     ::
         :::::::::::::::::::::::::::::::::::::::::::::::::::::

      ----------------------------------------------------------- 
     |                   =====================                   |
     |                        A N C O P T                        |
     |                   =====================                   |
     |               Approximate Normal Coordinate               |
     |                Rational Function Optimizer                |
      ----------------------------------------------------------- 

          ...................................................
          :                      SETUP                      :
          :.................................................:
          :   optimization level            normal          :
          :   max. optcycles                   480          :
          :   ANC micro-cycles                  20          :
          :   degrees of freedom               474          :
          :.................................................:
          :   RF solver                   davidson          :
          :   write xtbopt.log                true          :
          :   linear?                        false          :
          :   energy convergence         0.5000000E-05 Eh   :
          :   grad. convergence          0.1000000E-02 Eh/α :
          :   maximium RF displ.         1.0000000          :
          :   Hlow (freq-cutoff)         0.1000000E-01      :
          :   Hmax (freq-cutoff)         5.0000000          :
          :   S6 in model hess.         20.0000000          :
          ...................................................

generating ANC from model Hessian ...
Using Lindh-Hessian (1995)
 Shifting diagonal of input Hessian by   1.000701007775072E-002
 Lowest  eigenvalues of input Hessian
    0.010000    0.000000    0.000000    0.000000    0.000000    0.000000
    0.000000    0.010045    0.010057    0.010077    0.010109    0.010130
    0.010178    0.010205    0.010222    0.010253    0.010279    0.010363
 Highest eigenvalues
    2.033676    2.058029    2.058714    2.065193    2.067824    2.071598
 

........................................................................
.............................. CYCLE    1 ..............................
........................................................................
   1   -244.3567503 -0.244357E+03  0.235E-04    1.67       0.0  T
   2   -244.3567503 -0.595833E-09  0.188E-04    1.67      42.1  T
   3   -244.3567503 -0.321953E-08  0.118E-04    1.67      67.1  T
     SCC iter.                  ...        0 min,  0.073 sec
     gradient                   ...        0 min,  0.078 sec
 * total energy  :  -241.1311663 Eh     change       -0.1288728E-07 Eh
   gradient norm :     0.2740722 Eh/α   predicted     0.0000000E+00 (-100.00%)
   displ. norm   :     0.4381503 α      lambda       -0.7683787E-01
   maximum displ.:     0.0857590 α      in ANC's #169, #105, #255, ...

........................................................................
.............................. CYCLE    2 ..............................
........................................................................
   1   -244.5087344 -0.244509E+03  0.264E-01    1.54       0.0  T
   2   -244.5096484 -0.913997E-03  0.150E-01    1.56       1.0  T
   3   -244.5092405  0.407841E-03  0.902E-02    1.56       1.0  T
   4   -244.5100317 -0.791185E-03  0.371E-02    1.56       1.0  T
   5   -244.5101293 -0.975470E-04  0.154E-02    1.56       1.0  T
   6   -244.5101447 -0.154319E-04  0.707E-03    1.56       1.1  T
   7   -244.5101493 -0.459620E-05  0.291E-03    1.56       2.7  T
   8   -244.5101498 -0.480172E-06  0.170E-03    1.56       4.6  T
   9   -244.5101499 -0.138526E-06  0.867E-04    1.56       9.1  T
  10   -244.5101500 -0.414535E-07  0.364E-04    1.56      21.7  T
     SCC iter.                  ...        0 min,  0.232 sec
     gradient                   ...        0 min,  0.079 sec
 * total energy  :  -241.1887673 Eh     change       -0.5760100E-01 Eh
   gradient norm :     0.1449995 Eh/α   predicted    -0.4583130E-01 ( -20.43%)
   displ. norm   :     0.4546370 α      lambda       -0.3792150E-01
   maximum displ.:     0.1012621 α      in ANC's #70, #64, #60, ...

........................................................................
.............................. CYCLE    3 ..............................
........................................................................
   1   -244.6206468 -0.244621E+03  0.235E-01    1.43       0.0  T
   2   -244.6215580 -0.911225E-03  0.129E-01    1.45       1.0  T
   3   -244.6213980  0.160032E-03  0.831E-02    1.46       1.0  T
   4   -244.6219954 -0.597361E-03  0.379E-02    1.45       1.0  T
   5   -244.6221022 -0.106818E-03  0.165E-02    1.45       1.0  T
   6   -244.6221256 -0.234169E-04  0.648E-03    1.45       1.2  T
   7   -244.6221289 -0.327946E-05  0.287E-03    1.45       2.8  T
   8   -244.6221295 -0.664647E-06  0.145E-03    1.45       5.4  T
   9   -244.6221296 -0.102938E-06  0.794E-04    1.45      10.0  T
  10   -244.6221297 -0.225877E-07  0.367E-04    1.45      21.5  T
     SCC iter.                  ...        0 min,  0.226 sec
     gradient                   ...        0 min,  0.078 sec
 * total energy  :  -241.2125588 Eh     change       -0.2379146E-01 Eh
   gradient norm :     0.0379153 Eh/α   predicted    -0.2287984E-01 (  -3.83%)
   displ. norm   :     0.4998848 α      lambda       -0.8786191E-02
   maximum displ.:     0.1617342 α      in ANC's #70, #64, #60, ...

........................................................................
.............................. CYCLE    4 ..............................
........................................................................
   1   -244.6534915 -0.244653E+03  0.994E-02    1.40       0.0  T
   2   -244.6535789 -0.873723E-04  0.568E-02    1.41       1.0  T
   3   -244.6534680  0.110836E-03  0.378E-02    1.41       1.0  T
   4   -244.6536322 -0.164179E-03  0.148E-02    1.41       1.0  T
   5   -244.6536530 -0.207824E-04  0.616E-03    1.41       1.3  T
   6   -244.6536565 -0.345611E-05  0.231E-03    1.41       3.4  T
   7   -244.6536568 -0.374258E-06  0.103E-03    1.41       7.7  T
   8   -244.6536569 -0.936321E-07  0.506E-04    1.41      15.6  T
   9   -244.6536569 -0.117568E-07  0.281E-04    1.41      28.2  T
     SCC iter.                  ...        0 min,  0.211 sec
     gradient                   ...        0 min,  0.078 sec
 * total energy  :  -241.2190532 Eh     change       -0.6494362E-02 Eh
   gradient norm :     0.0158699 Eh/α   predicted    -0.5490887E-02 ( -15.45%)
   displ. norm   :     0.5610714 α      lambda       -0.5035412E-02
   maximum displ.:     0.1919676 α      in ANC's #70, #53, #56, ...

........................................................................
.............................. CYCLE    5 ..............................
........................................................................
   1   -244.6723626 -0.244672E+03  0.847E-02    1.38       0.0  T
   2   -244.6723813 -0.187344E-04  0.508E-02    1.38       1.0  T
   3   -244.6722149  0.166424E-03  0.332E-02    1.38       1.0  T
   4   -244.6724037 -0.188834E-03  0.807E-03    1.38       1.0  T
   5   -244.6724102 -0.646326E-05  0.351E-03    1.38       2.3  T
   6   -244.6724111 -0.931279E-06  0.140E-03    1.38       5.6  T
   7   -244.6724113 -0.173192E-06  0.604E-04    1.38      13.1  T
   8   -244.6724113 -0.282428E-07  0.322E-04    1.38      24.6  T
     SCC iter.                  ...        0 min,  0.183 sec
     gradient                   ...        0 min,  0.078 sec
 * total energy  :  -241.2227842 Eh     change       -0.3731092E-02 Eh
   gradient norm :     0.0144306 Eh/α   predicted    -0.3310365E-02 ( -11.28%)
   displ. norm   :     0.5345726 α      lambda       -0.2777100E-02
   maximum displ.:     0.1790465 α      in ANC's #70, #53, #56, ...

........................................................................
.............................. CYCLE    6 ..............................
........................................................................
   1   -244.6837580 -0.244684E+03  0.785E-02    1.36       0.0  T
   2   -244.6837629 -0.488449E-05  0.469E-02    1.36       1.0  T
   3   -244.6836303  0.132540E-03  0.275E-02    1.36       1.0  T
   4   -244.6837752 -0.144875E-03  0.424E-03    1.36       1.9  T
   5   -244.6837763 -0.106724E-05  0.239E-03    1.36       3.3  T
   6   -244.6837768 -0.464309E-06  0.972E-04    1.36       8.1  T
   7   -244.6837769 -0.103193E-06  0.415E-04    1.36      19.0  T
     SCC iter.                  ...        0 min,  0.154 sec
     gradient                   ...        0 min,  0.078 sec
 * total energy  :  -241.2248670 Eh     change       -0.2082712E-02 Eh
   gradient norm :     0.0139254 Eh/α   predicted    -0.1785354E-02 ( -14.28%)
   displ. norm   :     0.5164449 α      lambda       -0.1788243E-02
   maximum displ.:     0.1462505 α      in ANC's #70, #30, #27, ...

........................................................................
.............................. CYCLE    7 ..............................
........................................................................
   1   -244.6911459 -0.244691E+03  0.760E-02    1.35       0.0  T
   2   -244.6911516 -0.572517E-05  0.448E-02    1.35       1.0  T
   3   -244.6910660  0.856471E-04  0.224E-02    1.35       1.0  T
   4   -244.6911594 -0.934929E-04  0.372E-03    1.35       2.1  T
   5   -244.6911603 -0.863370E-06  0.226E-03    1.35       3.5  T
   6   -244.6911609 -0.577579E-06  0.830E-04    1.35       9.5  T
   7   -244.6911609 -0.541229E-07  0.386E-04    1.35      20.5  T
     SCC iter.                  ...        0 min,  0.162 sec
     gradient                   ...        0 min,  0.078 sec
 * total energy  :  -241.2262317 Eh     change       -0.1364742E-02 Eh
   gradient norm :     0.0107567 Eh/α   predicted    -0.1132598E-02 ( -17.01%)
   displ. norm   :     0.5191285 α      lambda       -0.1347119E-02
   maximum displ.:     0.1704057 α      in ANC's #30, #27, #25, ...

........................................................................
.............................. CYCLE    8 ..............................
........................................................................
   1   -244.6951211 -0.244695E+03  0.747E-02    1.34       0.0  T
   2   -244.6951275 -0.641861E-05  0.438E-02    1.34       1.0  T
   3   -244.6950569  0.706877E-04  0.205E-02    1.34       1.0  T
   4   -244.6951344 -0.775307E-04  0.364E-03    1.34       2.2  T
   5   -244.6951353 -0.878978E-06  0.221E-03    1.34       3.6  T
   6   -244.6951358 -0.581978E-06  0.802E-04    1.34       9.9  T
   7   -244.6951359 -0.459243E-07  0.373E-04    1.34      21.2  T
     SCC iter.                  ...        0 min,  0.162 sec
     gradient                   ...        0 min,  0.078 sec
 * total energy  :  -241.2272698 Eh     change       -0.1038120E-02 Eh
   gradient norm :     0.0083152 Eh/α   predicted    -0.8550953E-03 ( -17.63%)
   displ. norm   :     0.5208967 α      lambda       -0.1085532E-02
   maximum displ.:     0.2015366 α      in ANC's #30, #27, #25, ...

........................................................................
.............................. CYCLE    9 ..............................
........................................................................
   1   -244.6960093 -0.244696E+03  0.721E-02    1.33       0.0  T
   2   -244.6960139 -0.456428E-05  0.423E-02    1.33       1.0  T
   3   -244.6959490  0.649313E-04  0.196E-02    1.33       1.0  T
   4   -244.6960205 -0.715462E-04  0.306E-03    1.33       2.6  T
   5   -244.6960209 -0.394991E-06  0.199E-03    1.33       4.0  T
   6   -244.6960214 -0.439403E-06  0.743E-04    1.33      10.6  T
   7   -244.6960214 -0.443349E-07  0.347E-04    1.33      22.8  T
     SCC iter.                  ...        0 min,  0.163 sec
     gradient                   ...        0 min,  0.078 sec
 * total energy  :  -241.2281041 Eh     change       -0.8343135E-03 Eh
   gradient norm :     0.0083095 Eh/α   predicted    -0.6900385E-03 ( -17.29%)
   displ. norm   :     0.5218545 α      lambda       -0.8851215E-03
   maximum displ.:     0.2163566 α      in ANC's #30, #27, #40, ...

........................................................................
.............................. CYCLE   10 ..............................
........................................................................
   1   -244.6941773 -0.244694E+03  0.705E-02    1.33       0.0  T
   2   -244.6941802 -0.292750E-05  0.415E-02    1.33       1.0  T
   3   -244.6941143  0.659402E-04  0.196E-02    1.33       1.0  T
   4   -244.6941866 -0.723639E-04  0.276E-03    1.33       2.9  T
   5   -244.6941869 -0.266061E-06  0.179E-03    1.33       4.4  T
   6   -244.6941872 -0.293380E-06  0.719E-04    1.33      11.0  T
   7   -244.6941872 -0.531431E-07  0.316E-04    1.33      25.0  T
     SCC iter.                  ...        0 min,  0.161 sec
     gradient                   ...        0 min,  0.078 sec
 * total energy  :  -241.2287806 Eh     change       -0.6764680E-03 Eh
   gradient norm :     0.0090094 Eh/α   predicted    -0.5631115E-03 ( -16.76%)
   displ. norm   :     0.5223929 α      lambda       -0.7645296E-03
   maximum displ.:     0.2312345 α      in ANC's #30, #5, #22, ...

........................................................................
.............................. CYCLE   11 ..............................
........................................................................
   1   -244.6915738 -0.244692E+03  0.684E-02    1.33       0.0  T
   2   -244.6915773 -0.352847E-05  0.403E-02    1.33       1.0  T
   3   -244.6915140  0.632774E-04  0.192E-02    1.33       1.0  T
   4   -244.6915832 -0.691861E-04  0.274E-03    1.33       2.9  T
   5   -244.6915837 -0.432540E-06  0.159E-03    1.33       5.0  T
   6   -244.6915839 -0.202850E-06  0.761E-04    1.33      10.4  T
   7   -244.6915839 -0.518828E-07  0.315E-04    1.33      25.1  T
     SCC iter.                  ...        0 min,  0.162 sec
     gradient                   ...        0 min,  0.079 sec
 * total energy  :  -241.2293591 Eh     change       -0.5785398E-03 Eh
   gradient norm :     0.0078113 Eh/α   predicted    -0.4865876E-03 ( -15.89%)
   displ. norm   :     0.5227639 α      lambda       -0.6787887E-03
   maximum displ.:     0.2209437 α      in ANC's #30, #5, #9, ...

........................................................................
.............................. CYCLE   12 ..............................
........................................................................
   1   -244.6888765 -0.244689E+03  0.684E-02    1.32       0.0  T
   2   -244.6888807 -0.425625E-05  0.403E-02    1.33       1.0  T
   3   -244.6888079  0.728643E-04  0.206E-02    1.32       1.0  T
   4   -244.6888872 -0.793356E-04  0.304E-03    1.33       2.6  T
   5   -244.6888880 -0.797802E-06  0.154E-03    1.33       5.1  T
   6   -244.6888882 -0.200996E-06  0.769E-04    1.33      10.3  T
   7   -244.6888882 -0.417209E-07  0.337E-04    1.33      23.5  T
     SCC iter.                  ...        0 min,  0.164 sec
     gradient                   ...        0 min,  0.079 sec
 * total energy  :  -241.2298745 Eh     change       -0.5153899E-03 Eh
   gradient norm :     0.0075751 Eh/α   predicted    -0.4321771E-03 ( -16.15%)
   displ. norm   :     0.5004504 α      lambda       -0.6344751E-03
   maximum displ.:     0.1921035 α      in ANC's #30, #5, #9, ...

........................................................................
.............................. CYCLE   13 ..............................
........................................................................
   1   -244.6916971 -0.244692E+03  0.596E-02    1.32       0.0  T
   2   -244.6917034 -0.627398E-05  0.351E-02    1.33       1.0  T
   3   -244.6916557  0.476320E-04  0.170E-02    1.32       1.0  T
   4   -244.6917070 -0.512525E-04  0.347E-03    1.33       2.3  T
   5   -244.6917084 -0.141290E-05  0.127E-03    1.33       6.2  T
   6   -244.6917085 -0.956079E-07  0.708E-04    1.33      11.2  T
   7   -244.6917085 -0.430719E-07  0.321E-04    1.33      24.6  T
     SCC iter.                  ...        0 min,  0.164 sec
     gradient                   ...        0 min,  0.078 sec
 * total energy  :  -241.2303146 Eh     change       -0.4400600E-03 Eh
   gradient norm :     0.0101390 Eh/α   predicted    -0.3966948E-03 (  -9.85%)
   displ. norm   :     0.5641826 α      lambda       -0.6227565E-03
   maximum displ.:     0.2124219 α      in ANC's #30, #5, #9, ...

........................................................................
.............................. CYCLE   14 ..............................
........................................................................
   1   -244.6871384 -0.244687E+03  0.748E-02    1.32       0.0  T
   2   -244.6871519 -0.134363E-04  0.446E-02    1.32       1.0  T
   3   -244.6870424  0.109509E-03  0.260E-02    1.32       1.0  T
   4   -244.6871619 -0.119527E-03  0.468E-03    1.32       1.7  T
   5   -244.6871646 -0.269837E-05  0.174E-03    1.32       4.5  T
   6   -244.6871648 -0.208792E-06  0.103E-03    1.32       7.7  T
   7   -244.6871649 -0.858083E-07  0.468E-04    1.32      16.9  T
   8   -244.6871649 -0.977442E-08  0.216E-04    1.32      36.7  T
     SCC iter.                  ...        0 min,  0.183 sec
     gradient                   ...        0 min,  0.079 sec
 * total energy  :  -241.2305949 Eh     change       -0.2803446E-03 Eh
   gradient norm :     0.0168633 Eh/α   predicted    -0.4104920E-03 (  46.42%)
   displ. norm   :     0.2728371 α      lambda       -0.5094559E-03
   maximum displ.:     0.1006047 α      in ANC's #9, #5, #3, ...

........................................................................
.............................. CYCLE   15 ..............................
........................................................................
   1   -244.6948136 -0.244695E+03  0.303E-02    1.32       0.0  T
   2   -244.6948192 -0.563400E-05  0.180E-02    1.32       1.0  T
   3   -244.6948121  0.717339E-05  0.800E-03    1.32       1.0  T
   4   -244.6948195 -0.743130E-05  0.283E-03    1.32       2.8  T
   5   -244.6948206 -0.109137E-05  0.933E-04    1.32       8.5  T
   6   -244.6948207 -0.696809E-07  0.477E-04    1.32      16.6  T
   7   -244.6948207 -0.149738E-07  0.254E-04    1.32      31.1  T
     SCC iter.                  ...        0 min,  0.161 sec
     gradient                   ...        0 min,  0.078 sec
 * total energy  :  -241.2309378 Eh     change       -0.3428485E-03 Eh
   gradient norm :     0.0084220 Eh/α   predicted    -0.2737248E-03 ( -20.16%)
   displ. norm   :     0.4114727 α      lambda       -0.4168831E-03
   maximum displ.:     0.1542673 α      in ANC's #9, #5, #3, ...

........................................................................
.............................. CYCLE   16 ..............................
........................................................................
   1   -244.6972740 -0.244697E+03  0.388E-02    1.32       0.0  T
   2   -244.6972800 -0.602977E-05  0.229E-02    1.32       1.0  T
   3   -244.6972580  0.220335E-04  0.118E-02    1.32       1.0  T
   4   -244.6972817 -0.237341E-04  0.311E-03    1.32       2.5  T
   5   -244.6972829 -0.121395E-05  0.120E-03    1.32       6.6  T
   6   -244.6972830 -0.138431E-06  0.538E-04    1.32      14.7  T
   7   -244.6972831 -0.256476E-07  0.245E-04    1.32      32.3  T
     SCC iter.                  ...        0 min,  0.158 sec
     gradient                   ...        0 min,  0.078 sec
 * total energy  :  -241.2312311 Eh     change       -0.2932925E-03 Eh
   gradient norm :     0.0094457 Eh/α   predicted    -0.2437345E-03 ( -16.90%)
   displ. norm   :     0.4798414 α      lambda       -0.4908490E-03
   maximum displ.:     0.1936824 α      in ANC's #9, #5, #3, ...

........................................................................
.............................. CYCLE   17 ..............................
........................................................................
   1   -244.7044830 -0.244704E+03  0.442E-02    1.31       0.0  T
   2   -244.7044874 -0.441445E-05  0.260E-02    1.31       1.0  T
   3   -244.7044570  0.303993E-04  0.135E-02    1.31       1.0  T
   4   -244.7044902 -0.332069E-04  0.293E-03    1.31       2.7  T
   5   -244.7044912 -0.967460E-06  0.139E-03    1.31       5.7  T
   6   -244.7044914 -0.210714E-06  0.539E-04    1.31      14.7  T
   7   -244.7044914 -0.187485E-07  0.252E-04    1.31      31.3  T
     SCC iter.                  ...        0 min,  0.159 sec
     gradient                   ...        0 min,  0.078 sec
 * total energy  :  -241.2315701 Eh     change       -0.3390510E-03 Eh
   gradient norm :     0.0101838 Eh/α   predicted    -0.3019370E-03 ( -10.95%)
   displ. norm   :     0.6178028 α      lambda       -0.5278505E-03
   maximum displ.:     0.2452180 α      in ANC's #9, #5, #3, ...

........................................................................
.............................. CYCLE   18 ..............................
........................................................................
   1   -244.6977418 -0.244698E+03  0.613E-02    1.30       0.0  T
   2   -244.6977485 -0.675028E-05  0.363E-02    1.30       1.0  T
   3   -244.6976806  0.678982E-04  0.199E-02    1.30       1.0  T
   4   -244.6977550 -0.743565E-04  0.338E-03    1.30       2.3  T
   5   -244.6977561 -0.109667E-05  0.170E-03    1.30       4.7  T
   6   -244.6977564 -0.264679E-06  0.780E-04    1.30      10.1  T
   7   -244.6977564 -0.471216E-07  0.353E-04    1.30      22.4  T
     SCC iter.                  ...        0 min,  0.159 sec
     gradient                   ...        0 min,  0.079 sec
 * total energy  :  -241.2319143 Eh     change       -0.3441392E-03 Eh
   gradient norm :     0.0123796 Eh/α   predicted    -0.3646614E-03 (   5.96%)
   displ. norm   :     0.4544676 α      lambda       -0.4869351E-03
   maximum displ.:     0.1881348 α      in ANC's #9, #5, #3, ...

........................................................................
.............................. CYCLE   19 ..............................
........................................................................
   1   -244.6974373 -0.244697E+03  0.406E-02    1.29       0.0  T
   2   -244.6974401 -0.282821E-05  0.242E-02    1.29       1.0  T
   3   -244.6974067  0.333499E-04  0.142E-02    1.29       1.0  T
   4   -244.6974437 -0.369560E-04  0.243E-03    1.29       3.2  T
   5   -244.6974442 -0.487129E-06  0.125E-03    1.29       6.3  T
   6   -244.6974443 -0.123517E-06  0.588E-04    1.29      13.4  T
   7   -244.6974443 -0.305609E-07  0.260E-04    1.29      30.5  T
     SCC iter.                  ...        0 min,  0.159 sec
     gradient                   ...        0 min,  0.079 sec
 * total energy  :  -241.2322815 Eh     change       -0.3672457E-03 Eh
   gradient norm :     0.0092263 Eh/α   predicted    -0.2937541E-03 ( -20.01%)
   displ. norm   :     0.5198616 α      lambda       -0.5366494E-03
   maximum displ.:     0.2148421 α      in ANC's #9, #5, #3, ...

........................................................................
.............................. CYCLE   20 ..............................
........................................................................
   1   -244.6971372 -0.244697E+03  0.475E-02    1.29       0.0  T
   2   -244.6971405 -0.336357E-05  0.277E-02    1.29       1.0  T
   3   -244.6971185  0.220720E-04  0.119E-02    1.29       1.0  T
   4   -244.6971422 -0.236997E-04  0.312E-03    1.29       2.5  T
   5   -244.6971432 -0.104970E-05  0.136E-03    1.29       5.8  T
   6   -244.6971433 -0.120275E-06  0.659E-04    1.29      12.0  T
   7   -244.6971434 -0.370221E-07  0.293E-04    1.29      27.0  T
     SCC iter.                  ...        0 min,  0.158 sec
     gradient                   ...        0 min,  0.079 sec
 * total energy  :  -241.2326721 Eh     change       -0.3906032E-03 Eh
   gradient norm :     0.0079850 Eh/α   predicted    -0.3408429E-03 ( -12.74%)
   displ. norm   :     0.5737934 α      lambda       -0.5028525E-03
   maximum displ.:     0.2478774 α      in ANC's #5, #9, #3, ...
 * RMSD in coord.:     0.5630243 α      energy gain  -0.1015058E+00 Eh

generating ANC from model Hessian ...
Using Lindh-Hessian (1995)
 Shifting diagonal of input Hessian by   1.000828816522988E-002
 Lowest  eigenvalues of input Hessian
    0.010000    0.000000    0.000000    0.000000    0.000000    0.000000
    0.000000    0.010045    0.010068    0.010089    0.010132    0.010162
    0.010184    0.010212    0.010241    0.010274    0.010323    0.010381
 Highest eigenvalues
    2.105563    2.143001    2.149719    2.152388    2.157821    2.163150
 

........................................................................
.............................. CYCLE   21 ..............................
........................................................................
   1   -244.6942905 -0.244694E+03  0.523E-02    1.28       0.0  T
   2   -244.6942976 -0.709296E-05  0.305E-02    1.28       1.0  T
   3   -244.6942658  0.317869E-04  0.139E-02    1.28       1.0  T
   4   -244.6942998 -0.339856E-04  0.404E-03    1.28       2.0  T
   5   -244.6943017 -0.192000E-05  0.159E-03    1.28       5.0  T
   6   -244.6943019 -0.187199E-06  0.768E-04    1.28      10.3  T
   7   -244.6943020 -0.532323E-07  0.306E-04    1.28      25.9  T
     SCC iter.                  ...        0 min,  0.157 sec
     gradient                   ...        0 min,  0.079 sec
 * total energy  :  -241.2329767 Eh     change       -0.3046099E-03 Eh
   gradient norm :     0.0104441 Eh/α   predicted     0.0000000E+00 (-100.00%)
   displ. norm   :     0.0943846 α      lambda       -0.2826410E-03
   maximum displ.:     0.0306826 α      in ANC's #5, #28, #48, ...

........................................................................
.............................. CYCLE   22 ..............................
........................................................................
   1   -244.6974445 -0.244697E+03  0.156E-02    1.28       0.0  T
   2   -244.6974459 -0.145982E-05  0.937E-03    1.28       1.0  T
   3   -244.6974415  0.446705E-05  0.595E-03    1.28       1.3  T
   4   -244.6974467 -0.524791E-05  0.138E-03    1.28       5.7  T
   5   -244.6974469 -0.203556E-06  0.621E-04    1.28      12.7  T
   6   -244.6974470 -0.331755E-07  0.307E-04    1.28      25.8  T
     SCC iter.                  ...        0 min,  0.134 sec
     gradient                   ...        0 min,  0.079 sec
 * total energy  :  -241.2331918 Eh     change       -0.2150587E-03 Eh
   gradient norm :     0.0039664 Eh/α   predicted    -0.1425799E-03 ( -33.70%)
   displ. norm   :     0.2165179 α      lambda       -0.3248142E-03
   maximum displ.:     0.0775881 α      in ANC's #5, #28, #48, ...

........................................................................
.............................. CYCLE   23 ..............................
........................................................................
   1   -244.7005440 -0.244701E+03  0.298E-02    1.29       0.0  T
   2   -244.7005462 -0.225336E-05  0.178E-02    1.29       1.0  T
   3   -244.7005262  0.199991E-04  0.117E-02    1.29       1.0  T
   4   -244.7005492 -0.229606E-04  0.204E-03    1.29       3.9  T
   5   -244.7005496 -0.376867E-06  0.107E-03    1.29       7.4  T
   6   -244.7005497 -0.101122E-06  0.511E-04    1.29      15.5  T
   7   -244.7005497 -0.151700E-07  0.245E-04    1.29      32.3  T
     SCC iter.                  ...        0 min,  0.155 sec
     gradient                   ...        0 min,  0.079 sec
 * total energy  :  -241.2334207 Eh     change       -0.2289099E-03 Eh
   gradient norm :     0.0053601 Eh/α   predicted    -0.1700239E-03 ( -25.72%)
   displ. norm   :     0.2826004 α      lambda       -0.2671703E-03
   maximum displ.:     0.1069668 α      in ANC's #5, #48, #28, ...

........................................................................
.............................. CYCLE   24 ..............................
........................................................................
   1   -244.7012330 -0.244701E+03  0.346E-02    1.29       0.0  T
   2   -244.7012341 -0.113746E-05  0.207E-02    1.29       1.0  T
   3   -244.7012050  0.290928E-04  0.133E-02    1.29       1.0  T
   4   -244.7012376 -0.325307E-04  0.176E-03    1.29       4.5  T
   5   -244.7012378 -0.264545E-06  0.975E-04    1.29       8.1  T
   6   -244.7012379 -0.742782E-07  0.468E-04    1.29      16.9  T
     SCC iter.                  ...        0 min,  0.134 sec
     gradient                   ...        0 min,  0.080 sec
 * total energy  :  -241.2336345 Eh     change       -0.2138560E-03 Eh
   gradient norm :     0.0086745 Eh/α   predicted    -0.1442540E-03 ( -32.55%)
   displ. norm   :     0.4692456 α      lambda       -0.4129920E-03
   maximum displ.:     0.1835502 α      in ANC's #5, #48, #28, ...

........................................................................
.............................. CYCLE   25 ..............................
........................................................................
   1   -244.6994154 -0.244699E+03  0.558E-02    1.29       0.0  T
   2   -244.6994181 -0.273243E-05  0.331E-02    1.29       1.0  T
   3   -244.6993511  0.669945E-04  0.198E-02    1.29       1.0  T
   4   -244.6994252 -0.741178E-04  0.268E-03    1.29       2.9  T
   5   -244.6994259 -0.623015E-06  0.142E-03    1.29       5.6  T
   6   -244.6994260 -0.137739E-06  0.731E-04    1.29      10.8  T
   7   -244.6994260 -0.338415E-07  0.341E-04    1.29      23.2  T
     SCC iter.                  ...        0 min,  0.169 sec
     gradient                   ...        0 min,  0.079 sec
 * total energy  :  -241.2339530 Eh     change       -0.3184651E-03 Eh
   gradient norm :     0.0106743 Eh/α   predicted    -0.2519660E-03 ( -20.88%)
   displ. norm   :     0.4535279 α      lambda       -0.4164146E-03
   maximum displ.:     0.1923526 α      in ANC's #5, #6, #48, ...

........................................................................
.............................. CYCLE   26 ..............................
........................................................................
   1   -244.6971753 -0.244697E+03  0.538E-02    1.29       0.0  T
   2   -244.6971780 -0.277576E-05  0.319E-02    1.29       1.0  T
   3   -244.6971248  0.532441E-04  0.176E-02    1.29       1.0  T
   4   -244.6971834 -0.585614E-04  0.235E-03    1.29       3.4  T
   5   -244.6971839 -0.510980E-06  0.125E-03    1.29       6.3  T
   6   -244.6971840 -0.104458E-06  0.657E-04    1.29      12.0  T
   7   -244.6971840 -0.254682E-07  0.317E-04    1.29      25.0  T
     SCC iter.                  ...        0 min,  0.163 sec
     gradient                   ...        0 min,  0.079 sec
 * total energy  :  -241.2342652 Eh     change       -0.3122175E-03 Eh
   gradient norm :     0.0107215 Eh/α   predicted    -0.2510623E-03 ( -19.59%)
   displ. norm   :     0.3666811 α      lambda       -0.4559639E-03
   maximum displ.:     0.1745892 α      in ANC's #5, #6, #9, ...

........................................................................
.............................. CYCLE   27 ..............................
........................................................................
   1   -244.6981591 -0.244698E+03  0.456E-02    1.29       0.0  T
   2   -244.6981624 -0.321421E-05  0.269E-02    1.29       1.0  T
   3   -244.6981351  0.273038E-04  0.132E-02    1.29       1.0  T
   4   -244.6981654 -0.303882E-04  0.224E-03    1.29       3.5  T
   5   -244.6981659 -0.463396E-06  0.112E-03    1.29       7.1  T
   6   -244.6981660 -0.889605E-07  0.573E-04    1.29      13.8  T
   7   -244.6981660 -0.228112E-07  0.279E-04    1.29      28.3  T
     SCC iter.                  ...        0 min,  0.161 sec
     gradient                   ...        0 min,  0.078 sec
 * total energy  :  -241.2345942 Eh     change       -0.3289373E-03 Eh
   gradient norm :     0.0087218 Eh/α   predicted    -0.2586373E-03 ( -21.37%)
   displ. norm   :     0.4541821 α      lambda       -0.3674433E-03
   maximum displ.:     0.2193649 α      in ANC's #5, #6, #9, ...

........................................................................
.............................. CYCLE   28 ..............................
........................................................................
   1   -244.6968031 -0.244697E+03  0.498E-02    1.29       0.0  T
   2   -244.6968061 -0.297549E-05  0.294E-02    1.28       1.0  T
   3   -244.6967689  0.372433E-04  0.150E-02    1.29       1.0  T
   4   -244.6968102 -0.413317E-04  0.225E-03    1.28       3.5  T
   5   -244.6968106 -0.427167E-06  0.125E-03    1.28       6.3  T
   6   -244.6968108 -0.135880E-06  0.594E-04    1.28      13.3  T
   7   -244.6968108 -0.217111E-07  0.315E-04    1.28      25.1  T
     SCC iter.                  ...        0 min,  0.161 sec
     gradient                   ...        0 min,  0.078 sec
 * total energy  :  -241.2348764 Eh     change       -0.2822815E-03 Eh
   gradient norm :     0.0080280 Eh/α   predicted    -0.2216203E-03 ( -21.49%)
   displ. norm   :     0.4324305 α      lambda       -0.4057060E-03
   maximum displ.:     0.2273151 α      in ANC's #5, #6, #9, ...

........................................................................
.............................. CYCLE   29 ..............................
........................................................................
   1   -244.6998746 -0.244700E+03  0.486E-02    1.28       0.0  T
   2   -244.6998784 -0.372886E-05  0.285E-02    1.28       1.0  T
   3   -244.6998534  0.249501E-04  0.124E-02    1.28       1.0  T
   4   -244.6998812 -0.278188E-04  0.231E-03    1.28       3.4  T
   5   -244.6998817 -0.497691E-06  0.107E-03    1.28       7.4  T
   6   -244.6998818 -0.663835E-07  0.561E-04    1.28      14.1  T
   7   -244.6998818 -0.206818E-07  0.251E-04    1.28      31.5  T
     SCC iter.                  ...        0 min,  0.161 sec
     gradient                   ...        0 min,  0.079 sec
 * total energy  :  -241.2351349 Eh     change       -0.2584326E-03 Eh
   gradient norm :     0.0079535 Eh/α   predicted    -0.2407864E-03 (  -6.83%)
   displ. norm   :     0.5525082 α      lambda       -0.3419572E-03
   maximum displ.:     0.2828264 α      in ANC's #5, #6, #9, ...

........................................................................
.............................. CYCLE   30 ..............................
........................................................................
   1   -244.6956810 -0.244696E+03  0.589E-02    1.28       0.0  T
   2   -244.6956855 -0.450675E-05  0.345E-02    1.28       1.0  T
   3   -244.6956496  0.358874E-04  0.147E-02    1.28       1.0  T
   4   -244.6956894 -0.397882E-04  0.264E-03    1.28       3.0  T
   5   -244.6956899 -0.498125E-06  0.140E-03    1.28       5.6  T
   6   -244.6956900 -0.114888E-06  0.748E-04    1.28      10.6  T
   7   -244.6956901 -0.435840E-07  0.360E-04    1.28      21.9  T
     SCC iter.                  ...        0 min,  0.158 sec
     gradient                   ...        0 min,  0.079 sec
 * total energy  :  -241.2353420 Eh     change       -0.2071368E-03 Eh
   gradient norm :     0.0096877 Eh/α   predicted    -0.2231922E-03 (   7.75%)
   displ. norm   :     0.2923784 α      lambda       -0.3282624E-03
   maximum displ.:     0.1654585 α      in ANC's #5, #6, #9, ...

........................................................................
.............................. CYCLE   31 ..............................
........................................................................
   1   -244.7014653 -0.244701E+03  0.305E-02    1.28       0.0  T
   2   -244.7014712 -0.594658E-05  0.179E-02    1.28       1.0  T
   3   -244.7014652  0.600845E-05  0.728E-03    1.28       1.1  T
   4   -244.7014714 -0.615500E-05  0.279E-03    1.28       2.8  T
   5   -244.7014724 -0.107334E-05  0.851E-04    1.28       9.3  T
   6   -244.7014725 -0.439715E-07  0.484E-04    1.28      16.3  T
   7   -244.7014725 -0.174338E-07  0.235E-04    1.28      33.7  T
     SCC iter.                  ...        0 min,  0.157 sec
     gradient                   ...        0 min,  0.078 sec
 * total energy  :  -241.2355251 Eh     change       -0.1831289E-03 Eh
   gradient norm :     0.0086549 Eh/α   predicted    -0.1781636E-03 (  -2.71%)
   displ. norm   :     0.3965524 α      lambda       -0.3481347E-03
   maximum displ.:     0.2235085 α      in ANC's #5, #6, #9, ...

........................................................................
.............................. CYCLE   32 ..............................
........................................................................
   1   -244.7012282 -0.244701E+03  0.493E-02    1.29       0.0  T
   2   -244.7012335 -0.529461E-05  0.291E-02    1.29       1.0  T
   3   -244.7012228  0.106775E-04  0.916E-03    1.28       1.0  T
   4   -244.7012347 -0.118597E-04  0.237E-03    1.29       3.3  T
   5   -244.7012352 -0.499133E-06  0.114E-03    1.29       6.9  T
   6   -244.7012353 -0.108434E-06  0.570E-04    1.29      13.9  T
   7   -244.7012353 -0.269098E-07  0.284E-04    1.29      27.9  T
     SCC iter.                  ...        0 min,  0.153 sec
     gradient                   ...        0 min,  0.078 sec
 * total energy  :  -241.2357086 Eh     change       -0.1834762E-03 Eh
   gradient norm :     0.0089271 Eh/α   predicted    -0.2014407E-03 (   9.79%)
   displ. norm   :     0.3165948 α      lambda       -0.1922310E-03
   maximum displ.:     0.1848994 α      in ANC's #5, #6, #9, ...

........................................................................
.............................. CYCLE   33 ..............................
........................................................................
   1   -244.7002875 -0.244700E+03  0.286E-02    1.28       0.0  T
   2   -244.7002895 -0.193639E-05  0.166E-02    1.28       1.0  T
   3   -244.7002851  0.433322E-05  0.545E-03    1.28       1.5  T
   4   -244.7002898 -0.463007E-05  0.179E-03    1.28       4.4  T
   5   -244.7002901 -0.361963E-06  0.741E-04    1.28      10.7  T
   6   -244.7002902 -0.369207E-07  0.380E-04    1.28      20.8  T
     SCC iter.                  ...        0 min,  0.145 sec
     gradient                   ...        0 min,  0.079 sec
 * total energy  :  -241.2358426 Eh     change       -0.1339772E-03 Eh
   gradient norm :     0.0055956 Eh/α   predicted    -0.1057500E-03 ( -21.07%)
   displ. norm   :     0.3086236 α      lambda       -0.1954283E-03
   maximum displ.:     0.1840288 α      in ANC's #5, #6, #7, ...

........................................................................
.............................. CYCLE   34 ..............................
........................................................................
   1   -244.7018173 -0.244702E+03  0.288E-02    1.28       0.0  T
   2   -244.7018185 -0.120122E-05  0.168E-02    1.28       1.0  T
   3   -244.7018143  0.420193E-05  0.532E-03    1.28       1.5  T
   4   -244.7018189 -0.460944E-05  0.139E-03    1.28       5.7  T
   5   -244.7018191 -0.163441E-06  0.697E-04    1.28      11.3  T
   6   -244.7018191 -0.386965E-07  0.346E-04    1.28      22.8  T
     SCC iter.                  ...        0 min,  0.143 sec
     gradient                   ...        0 min,  0.078 sec
 * total energy  :  -241.2359842 Eh     change       -0.1416322E-03 Eh
   gradient norm :     0.0039660 Eh/α   predicted    -0.1070257E-03 ( -24.43%)
   displ. norm   :     0.4057701 α      lambda       -0.1871120E-03
   maximum displ.:     0.2389973 α      in ANC's #5, #6, #7, ...

........................................................................
.............................. CYCLE   35 ..............................
........................................................................
   1   -244.7022620 -0.244702E+03  0.370E-02    1.28       0.0  T
   2   -244.7022630 -0.107337E-05  0.216E-02    1.28       1.0  T
   3   -244.7022564  0.667840E-05  0.635E-03    1.28       1.2  T
   4   -244.7022638 -0.739219E-05  0.146E-03    1.28       5.4  T
   5   -244.7022639 -0.982840E-07  0.826E-04    1.28       9.6  T
   6   -244.7022639 -0.571241E-07  0.362E-04    1.28      21.8  T
     SCC iter.                  ...        0 min,  0.140 sec
     gradient                   ...        0 min,  0.079 sec
 * total energy  :  -241.2361328 Eh     change       -0.1485545E-03 Eh
   gradient norm :     0.0045783 Eh/α   predicted    -0.1089637E-03 ( -26.65%)
   displ. norm   :     0.4474664 α      lambda       -0.1905503E-03
   maximum displ.:     0.2644822 α      in ANC's #5, #6, #7, ...

........................................................................
.............................. CYCLE   36 ..............................
........................................................................
   1   -244.7021908 -0.244702E+03  0.402E-02    1.27       0.0  T
   2   -244.7021923 -0.152837E-05  0.236E-02    1.27       1.0  T
   3   -244.7021828  0.956344E-05  0.745E-03    1.27       1.1  T
   4   -244.7021932 -0.104500E-04  0.168E-03    1.27       4.7  T
   5   -244.7021934 -0.212360E-06  0.884E-04    1.27       8.9  T
   6   -244.7021935 -0.590163E-07  0.411E-04    1.27      19.2  T
     SCC iter.                  ...        0 min,  0.141 sec
     gradient                   ...        0 min,  0.079 sec
 * total energy  :  -241.2362841 Eh     change       -0.1513193E-03 Eh
   gradient norm :     0.0050097 Eh/α   predicted    -0.1143536E-03 ( -24.43%)
   displ. norm   :     0.4358977 α      lambda       -0.1842770E-03
   maximum displ.:     0.2559618 α      in ANC's #5, #6, #7, ...

........................................................................
.............................. CYCLE   37 ..............................
........................................................................
   1   -244.7030725 -0.244703E+03  0.341E-02    1.27       0.0  T
   2   -244.7030739 -0.140889E-05  0.199E-02    1.27       1.0  T
   3   -244.7030645  0.944364E-05  0.747E-03    1.27       1.1  T
   4   -244.7030747 -0.102517E-04  0.178E-03    1.27       4.4  T
   5   -244.7030750 -0.260776E-06  0.799E-04    1.27       9.9  T
   6   -244.7030750 -0.364104E-07  0.378E-04    1.27      20.9  T
     SCC iter.                  ...        0 min,  0.140 sec
     gradient                   ...        0 min,  0.078 sec
 * total energy  :  -241.2364197 Eh     change       -0.1355730E-03 Eh
   gradient norm :     0.0047935 Eh/α   predicted    -0.1096459E-03 ( -19.12%)
   displ. norm   :     0.4712440 α      lambda       -0.1785370E-03
   maximum displ.:     0.2836864 α      in ANC's #5, #6, #7, ...

........................................................................
.............................. CYCLE   38 ..............................
........................................................................
   1   -244.6994240 -0.244699E+03  0.419E-02    1.26       0.0  T
   2   -244.6994268 -0.284210E-05  0.245E-02    1.26       1.0  T
   3   -244.6994159  0.109505E-04  0.857E-03    1.26       1.0  T
   4   -244.6994278 -0.119769E-04  0.219E-03    1.26       3.6  T
   5   -244.6994283 -0.470387E-06  0.975E-04    1.26       8.1  T
   6   -244.6994284 -0.574037E-07  0.474E-04    1.26      16.7  T
     SCC iter.                  ...        0 min,  0.141 sec
     gradient                   ...        0 min,  0.079 sec
 * total energy  :  -241.2365276 Eh     change       -0.1078906E-03 Eh
   gradient norm :     0.0067555 Eh/α   predicted    -0.1090935E-03 (   1.11%)
   displ. norm   :     0.3307922 α      lambda       -0.1583350E-03
   maximum displ.:     0.1911265 α      in ANC's #5, #6, #15, ...

........................................................................
.............................. CYCLE   39 ..............................
........................................................................
   1   -244.7017107 -0.244702E+03  0.250E-02    1.26       0.0  T
   2   -244.7017118 -0.113055E-05  0.146E-02    1.26       1.0  T
   3   -244.7017032  0.864161E-05  0.750E-03    1.26       1.1  T
   4   -244.7017126 -0.945712E-05  0.154E-03    1.26       5.1  T
   5   -244.7017129 -0.214164E-06  0.687E-04    1.26      11.5  T
   6   -244.7017129 -0.291406E-07  0.332E-04    1.26      23.8  T
     SCC iter.                  ...        0 min,  0.141 sec
     gradient                   ...        0 min,  0.078 sec
 * total energy  :  -241.2366418 Eh     change       -0.1142140E-03 Eh
   gradient norm :     0.0046426 Eh/α   predicted    -0.8783268E-04 ( -23.10%)
   displ. norm   :     0.3308175 α      lambda       -0.1422920E-03
   maximum displ.:     0.2023777 α      in ANC's #5, #6, #15, ...

........................................................................
.............................. CYCLE   40 ..............................
........................................................................
   1   -244.7023124 -0.244702E+03  0.228E-02    1.25       0.0  T
   2   -244.7023133 -0.956006E-06  0.132E-02    1.25       1.0  T
   3   -244.7023092  0.418146E-05  0.570E-03    1.25       1.4  T
   4   -244.7023138 -0.466273E-05  0.137E-03    1.25       5.8  T
   5   -244.7023139 -0.113397E-06  0.696E-04    1.25      11.4  T
   6   -244.7023140 -0.398387E-07  0.307E-04    1.25      25.8  T
     SCC iter.                  ...        0 min,  0.141 sec
     gradient                   ...        0 min,  0.078 sec
 * total energy  :  -241.2367506 Eh     change       -0.1088490E-03 Eh
   gradient norm :     0.0041316 Eh/α   predicted    -0.7893321E-04 ( -27.48%)
   displ. norm   :     0.4133553 α      lambda       -0.1532260E-03
   maximum displ.:     0.2510010 α      in ANC's #5, #6, #15, ...

........................................................................
.............................. CYCLE   41 ..............................
........................................................................
   1   -244.7024724 -0.244702E+03  0.299E-02    1.25       0.0  T
   2   -244.7024733 -0.933659E-06  0.173E-02    1.25       1.0  T
   3   -244.7024679  0.549255E-05  0.638E-03    1.25       1.2  T
   4   -244.7024739 -0.608467E-05  0.151E-03    1.25       5.2  T
   5   -244.7024740 -0.914133E-07  0.825E-04    1.25       9.6  T
   6   -244.7024741 -0.727108E-07  0.333E-04    1.25      23.8  T
     SCC iter.                  ...        0 min,  0.134 sec
     gradient                   ...        0 min,  0.079 sec
 * total energy  :  -241.2368726 Eh     change       -0.1219743E-03 Eh
   gradient norm :     0.0046758 Eh/α   predicted    -0.8970835E-04 ( -26.45%)
   displ. norm   :     0.4412536 α      lambda       -0.1591710E-03
   maximum displ.:     0.2708753 α      in ANC's #5, #6, #15, ...

........................................................................
.............................. CYCLE   42 ..............................
........................................................................
   1   -244.7032931 -0.244703E+03  0.310E-02    1.25       0.0  T
   2   -244.7032945 -0.132794E-05  0.179E-02    1.25       1.0  T
   3   -244.7032903  0.414265E-05  0.595E-03    1.25       1.3  T
   4   -244.7032950 -0.469690E-05  0.156E-03    1.25       5.1  T
   5   -244.7032951 -0.116126E-06  0.694E-04    1.25      11.4  T
   6   -244.7032952 -0.263165E-07  0.326E-04    1.25      24.3  T
     SCC iter.                  ...        0 min,  0.148 sec
     gradient                   ...        0 min,  0.079 sec
 * total energy  :  -241.2369907 Eh     change       -0.1180773E-03 Eh
   gradient norm :     0.0036665 Eh/α   predicted    -0.9508317E-04 ( -19.47%)
   displ. norm   :     0.4474448 α      lambda       -0.1378117E-03
   maximum displ.:     0.2780675 α      in ANC's #5, #6, #15, ...
 * RMSD in coord.:     0.5704000 α      energy gain  -0.4318572E-02 Eh

generating ANC from model Hessian ...
Using Lindh-Hessian (1995)
 Shifting diagonal of input Hessian by   1.001058325821219E-002
 Lowest  eigenvalues of input Hessian
    0.010000    0.000000    0.000000    0.000000    0.000000    0.000000
    0.000000    0.010051    0.010087    0.010111    0.010155    0.010183
    0.010226    0.010240    0.010256    0.010293    0.010328    0.010428
 Highest eigenvalues
    2.105335    2.150787    2.154807    2.157399    2.160782    2.162012
 

........................................................................
.............................. CYCLE   43 ..............................
........................................................................
   1   -244.7020867 -0.244702E+03  0.300E-02    1.24       0.0  T
   2   -244.7020879 -0.114472E-05  0.173E-02    1.24       1.0  T
   3   -244.7020834  0.444595E-05  0.604E-03    1.24       1.3  T
   4   -244.7020884 -0.497702E-05  0.155E-03    1.24       5.1  T
   5   -244.7020885 -0.119390E-06  0.769E-04    1.24      10.3  T
   6   -244.7020886 -0.427093E-07  0.342E-04    1.24      23.1  T
     SCC iter.                  ...        0 min,  0.139 sec
     gradient                   ...        0 min,  0.079 sec
 * total energy  :  -241.2370941 Eh     change       -0.1034092E-03 Eh
   gradient norm :     0.0039149 Eh/α   predicted     0.0000000E+00 (-100.00%)
   displ. norm   :     0.0554206 α      lambda       -0.1532662E-04
   maximum displ.:     0.0181767 α      in ANC's #26, #6, #57, ...

........................................................................
.............................. CYCLE   44 ..............................
........................................................................
   1   -244.7030698 -0.244703E+03  0.735E-03    1.24       0.0  T
   2   -244.7030699 -0.136710E-06  0.424E-03    1.24       1.9  T
   3   -244.7030694  0.530307E-06  0.203E-03    1.24       3.9  T
   4   -244.7030700 -0.594331E-06  0.517E-04    1.24      15.3  T
   5   -244.7030700 -0.203749E-07  0.259E-04    1.24      30.5  T
     SCC iter.                  ...        0 min,  0.120 sec
     gradient                   ...        0 min,  0.079 sec
 * total energy  :  -241.2371527 Eh     change       -0.5859989E-04 Eh
   gradient norm :     0.0017785 Eh/α   predicted    -0.3524533E-04 ( -39.85%)
   displ. norm   :     0.2868560 α      lambda       -0.1558433E-03
   maximum displ.:     0.0905877 α      in ANC's #26, #6, #18, ...

........................................................................
.............................. CYCLE   45 ..............................
........................................................................
   1   -244.7042824 -0.244704E+03  0.317E-02    1.24       0.0  T
   2   -244.7042838 -0.146607E-05  0.184E-02    1.24       1.0  T
   3   -244.7042722  0.115784E-04  0.899E-03    1.24       1.0  T
   4   -244.7042851 -0.128538E-04  0.181E-03    1.24       4.4  T
   5   -244.7042853 -0.239968E-06  0.102E-03    1.24       7.7  T
   6   -244.7042855 -0.112137E-06  0.393E-04    1.24      20.1  T
   7   -244.7042855 -0.115043E-07  0.193E-04    1.24      41.0  T
     SCC iter.                  ...        0 min,  0.166 sec
     gradient                   ...        0 min,  0.079 sec
 * total energy  :  -241.2372634 Eh     change       -0.1106754E-03 Eh
   gradient norm :     0.0054533 Eh/α   predicted    -0.8077254E-04 ( -27.02%)
   displ. norm   :     0.0797287 α      lambda       -0.5936279E-04
   maximum displ.:     0.0290409 α      in ANC's #6, #5, #18, ...

........................................................................
.............................. CYCLE   46 ..............................
........................................................................
   1   -244.7036669 -0.244704E+03  0.953E-03    1.24       0.0  T
   2   -244.7036671 -0.159080E-06  0.517E-03    1.24       1.5  T
   3   -244.7036665  0.577025E-06  0.221E-03    1.24       3.6  T
   4   -244.7036671 -0.652992E-06  0.751E-04    1.24      10.5  T
   5   -244.7036672 -0.201213E-07  0.311E-04    1.24      25.5  T
     SCC iter.                  ...        0 min,  0.119 sec
     gradient                   ...        0 min,  0.079 sec
 * total energy  :  -241.2373118 Eh     change       -0.4842458E-04 Eh
   gradient norm :     0.0041119 Eh/α   predicted    -0.2987064E-04 ( -38.32%)
   displ. norm   :     0.2619843 α      lambda       -0.1598431E-03
   maximum displ.:     0.0983274 α      in ANC's #6, #5, #2, ...

........................................................................
.............................. CYCLE   47 ..............................
........................................................................
   1   -244.7016888 -0.244702E+03  0.250E-02    1.24       0.0  T
   2   -244.7016898 -0.988461E-06  0.147E-02    1.24       1.0  T
   3   -244.7016836  0.618707E-05  0.628E-03    1.24       1.3  T
   4   -244.7016905 -0.691019E-05  0.118E-03    1.24       6.7  T
   5   -244.7016906 -0.969526E-07  0.608E-04    1.24      13.0  T
   6   -244.7016907 -0.216590E-07  0.302E-04    1.24      26.1  T
     SCC iter.                  ...        0 min,  0.148 sec
     gradient                   ...        0 min,  0.079 sec
 * total energy  :  -241.2374142 Eh     change       -0.1024035E-03 Eh
   gradient norm :     0.0026011 Eh/α   predicted    -0.8540761E-04 ( -16.60%)
   displ. norm   :     0.1847443 α      lambda       -0.5810317E-04
   maximum displ.:     0.0746228 α      in ANC's #6, #5, #2, ...

........................................................................
.............................. CYCLE   48 ..............................
........................................................................
   1   -244.7013473 -0.244701E+03  0.165E-02    1.24       0.0  T
   2   -244.7013476 -0.317379E-06  0.973E-03    1.24       1.0  T
   3   -244.7013443  0.337018E-05  0.458E-03    1.24       1.7  T
   4   -244.7013480 -0.375139E-05  0.757E-04    1.24      10.4  T
   5   -244.7013481 -0.359354E-07  0.427E-04    1.24      18.5  T
   6   -244.7013481 -0.131768E-07  0.194E-04    1.24      40.8  T
     SCC iter.                  ...        0 min,  0.145 sec
     gradient                   ...        0 min,  0.079 sec
 * total energy  :  -241.2374604 Eh     change       -0.4624170E-04 Eh
   gradient norm :     0.0032044 Eh/α   predicted    -0.3005878E-04 ( -35.00%)
   displ. norm   :     0.2682746 α      lambda       -0.8863836E-04
   maximum displ.:     0.1137766 α      in ANC's #6, #5, #2, ...

........................................................................
.............................. CYCLE   49 ..............................
........................................................................
   1   -244.7020909 -0.244702E+03  0.236E-02    1.25       0.0  T
   2   -244.7020916 -0.682915E-06  0.139E-02    1.24       1.0  T
   3   -244.7020838  0.774473E-05  0.702E-03    1.25       1.1  T
   4   -244.7020925 -0.865637E-05  0.104E-03    1.24       7.6  T
   5   -244.7020925 -0.760664E-07  0.599E-04    1.24      13.2  T
   6   -244.7020926 -0.247452E-07  0.287E-04    1.24      27.5  T
     SCC iter.                  ...        0 min,  0.142 sec
     gradient                   ...        0 min,  0.079 sec
 * total energy  :  -241.2375276 Eh     change       -0.6716208E-04 Eh
   gradient norm :     0.0028516 Eh/α   predicted    -0.4751385E-04 ( -29.25%)
   displ. norm   :     0.2648175 α      lambda       -0.7621906E-04
   maximum displ.:     0.1177993 α      in ANC's #6, #5, #7, ...

........................................................................
.............................. CYCLE   50 ..............................
........................................................................
   1   -244.7033035 -0.244703E+03  0.222E-02    1.24       0.0  T
   2   -244.7033041 -0.624947E-06  0.131E-02    1.24       1.0  T
   3   -244.7032975  0.662840E-05  0.652E-03    1.24       1.2  T
   4   -244.7033049 -0.740806E-05  0.102E-03    1.24       7.7  T
   5   -244.7033049 -0.604768E-07  0.602E-04    1.24      13.1  T
   6   -244.7033050 -0.259352E-07  0.286E-04    1.24      27.7  T
     SCC iter.                  ...        0 min,  0.140 sec
     gradient                   ...        0 min,  0.079 sec
 * total energy  :  -241.2375845 Eh     change       -0.5685605E-04 Eh
   gradient norm :     0.0022623 Eh/α   predicted    -0.4078260E-04 ( -28.27%)
   displ. norm   :     0.2557189 α      lambda       -0.6168734E-04
   maximum displ.:     0.1171163 α      in ANC's #6, #5, #7, ...

........................................................................
.............................. CYCLE   51 ..............................
........................................................................
   1   -244.7040479 -0.244704E+03  0.198E-02    1.24       0.0  T
   2   -244.7040483 -0.434466E-06  0.116E-02    1.24       1.0  T
   3   -244.7040437  0.463386E-05  0.545E-03    1.24       1.5  T
   4   -244.7040488 -0.515664E-05  0.907E-04    1.24       8.7  T
   5   -244.7040489 -0.400664E-07  0.548E-04    1.24      14.4  T
   6   -244.7040489 -0.236520E-07  0.243E-04    1.24      32.6  T
     SCC iter.                  ...        0 min,  0.141 sec
     gradient                   ...        0 min,  0.079 sec
 * total energy  :  -241.2376329 Eh     change       -0.4839950E-04 Eh
   gradient norm :     0.0021156 Eh/α   predicted    -0.3286181E-04 ( -32.10%)
   displ. norm   :     0.2919921 α      lambda       -0.6745578E-04
   maximum displ.:     0.1351912 α      in ANC's #6, #5, #7, ...

........................................................................
.............................. CYCLE   52 ..............................
........................................................................
   1   -244.7042780 -0.244704E+03  0.207E-02    1.24       0.0  T
   2   -244.7042785 -0.464154E-06  0.121E-02    1.24       1.0  T
   3   -244.7042747  0.374845E-05  0.504E-03    1.24       1.6  T
   4   -244.7042789 -0.417550E-05  0.958E-04    1.24       8.3  T
   5   -244.7042789 -0.374491E-07  0.575E-04    1.24      13.8  T
   6   -244.7042790 -0.304306E-07  0.238E-04    1.24      33.3  T
     SCC iter.                  ...        0 min,  0.141 sec
     gradient                   ...        0 min,  0.079 sec
 * total energy  :  -241.2376866 Eh     change       -0.5374345E-04 Eh
   gradient norm :     0.0021259 Eh/α   predicted    -0.3660609E-04 ( -31.89%)
   displ. norm   :     0.3339424 α      lambda       -0.7312519E-04
   maximum displ.:     0.1551163 α      in ANC's #6, #5, #7, ...

........................................................................
.............................. CYCLE   53 ..............................
........................................................................
   1   -244.7037015 -0.244704E+03  0.223E-02    1.24       0.0  T
   2   -244.7037020 -0.534605E-06  0.130E-02    1.24       1.0  T
   3   -244.7036989  0.317380E-05  0.477E-03    1.24       1.7  T
   4   -244.7037024 -0.353962E-05  0.103E-03    1.24       7.7  T
   5   -244.7037025 -0.431365E-07  0.603E-04    1.24      13.1  T
   6   -244.7037025 -0.372232E-07  0.236E-04    1.24      33.5  T
     SCC iter.                  ...        0 min,  0.140 sec
     gradient                   ...        0 min,  0.079 sec
 * total energy  :  -241.2377440 Eh     change       -0.5737730E-04 Eh
   gradient norm :     0.0022048 Eh/α   predicted    -0.4064081E-04 ( -29.17%)
   displ. norm   :     0.3365907 α      lambda       -0.7053449E-04
   maximum displ.:     0.1561043 α      in ANC's #6, #5, #7, ...

........................................................................
.............................. CYCLE   54 ..............................
........................................................................
   1   -244.7032649 -0.244703E+03  0.219E-02    1.23       0.0  T
   2   -244.7032654 -0.469078E-06  0.127E-02    1.23       1.0  T
   3   -244.7032634  0.193489E-05  0.387E-03    1.23       2.0  T
   4   -244.7032656 -0.217828E-05  0.983E-04    1.23       8.0  T
   5   -244.7032656 -0.348008E-07  0.522E-04    1.23      15.2  T
   6   -244.7032657 -0.274900E-07  0.201E-04    1.23      39.4  T
     SCC iter.                  ...        0 min,  0.137 sec
     gradient                   ...        0 min,  0.079 sec
 * total energy  :  -241.2377988 Eh     change       -0.5479691E-04 Eh
   gradient norm :     0.0025835 Eh/α   predicted    -0.3926489E-04 ( -28.34%)
   displ. norm   :     0.3352791 α      lambda       -0.6854527E-04
   maximum displ.:     0.1566988 α      in ANC's #6, #5, #7, ...

........................................................................
.............................. CYCLE   55 ..............................
........................................................................
   1   -244.7025661 -0.244703E+03  0.221E-02    1.23       0.0  T
   2   -244.7025665 -0.421850E-06  0.128E-02    1.23       1.0  T
   3   -244.7025647  0.178209E-05  0.367E-03    1.23       2.2  T
   4   -244.7025667 -0.199386E-05  0.997E-04    1.23       7.9  T
   5   -244.7025668 -0.378935E-07  0.502E-04    1.23      15.7  T
   6   -244.7025668 -0.242376E-07  0.188E-04    1.23      42.1  T
     SCC iter.                  ...        0 min,  0.140 sec
     gradient                   ...        0 min,  0.079 sec
 * total energy  :  -241.2378533 Eh     change       -0.5451048E-04 Eh
   gradient norm :     0.0024696 Eh/α   predicted    -0.3813351E-04 ( -30.04%)
   displ. norm   :     0.3487254 α      lambda       -0.8007751E-04
   maximum displ.:     0.1599912 α      in ANC's #6, #5, #7, ...

........................................................................
.............................. CYCLE   56 ..............................
........................................................................
   1   -244.7031198 -0.244703E+03  0.249E-02    1.23       0.0  T
   2   -244.7031202 -0.418955E-06  0.144E-02    1.23       1.0  T
   3   -244.7031167  0.347127E-05  0.488E-03    1.23       1.6  T
   4   -244.7031205 -0.381067E-05  0.113E-03    1.23       7.0  T
   5   -244.7031206 -0.368993E-07  0.604E-04    1.23      13.1  T
   6   -244.7031206 -0.394400E-07  0.202E-04    1.23      39.1  T
     SCC iter.                  ...        0 min,  0.141 sec
     gradient                   ...        0 min,  0.079 sec
 * total energy  :  -241.2379157 Eh     change       -0.6239957E-04 Eh
   gradient norm :     0.0024632 Eh/α   predicted    -0.4490867E-04 ( -28.03%)
   displ. norm   :     0.4046543 α      lambda       -0.9222425E-04
   maximum displ.:     0.1909475 α      in ANC's #6, #5, #2, ...

........................................................................
.............................. CYCLE   57 ..............................
........................................................................
   1   -244.7019728 -0.244702E+03  0.295E-02    1.22       0.0  T
   2   -244.7019734 -0.642991E-06  0.171E-02    1.22       1.0  T
   3   -244.7019677  0.572959E-05  0.625E-03    1.22       1.3  T
   4   -244.7019740 -0.627865E-05  0.136E-03    1.22       5.8  T
   5   -244.7019740 -0.543664E-07  0.729E-04    1.22      10.8  T
   6   -244.7019741 -0.552818E-07  0.273E-04    1.22      29.0  T
     SCC iter.                  ...        0 min,  0.139 sec
     gradient                   ...        0 min,  0.079 sec
 * total energy  :  -241.2379861 Eh     change       -0.7039415E-04 Eh
   gradient norm :     0.0025782 Eh/α   predicted    -0.5366703E-04 ( -23.76%)
   displ. norm   :     0.4037469 α      lambda       -0.1067317E-03
   maximum displ.:     0.1822848 α      in ANC's #6, #2, #5, ...

........................................................................
.............................. CYCLE   58 ..............................
........................................................................
   1   -244.7033136 -0.244703E+03  0.330E-02    1.22       0.0  T
   2   -244.7033142 -0.621488E-06  0.192E-02    1.22       1.0  T
   3   -244.7033032  0.110013E-04  0.842E-03    1.22       1.0  T
   4   -244.7033152 -0.120032E-04  0.149E-03    1.22       5.3  T
   5   -244.7033153 -0.327272E-07  0.844E-04    1.22       9.4  T
   6   -244.7033153 -0.798143E-07  0.290E-04    1.22      27.3  T
     SCC iter.                  ...        0 min,  0.139 sec
     gradient                   ...        0 min,  0.079 sec
 * total energy  :  -241.2380651 Eh     change       -0.7903373E-04 Eh
   gradient norm :     0.0031505 Eh/α   predicted    -0.6206650E-04 ( -21.47%)
   displ. norm   :     0.4479750 α      lambda       -0.1084899E-03
   maximum displ.:     0.2129170 α      in ANC's #6, #2, #5, ...

........................................................................
.............................. CYCLE   59 ..............................
........................................................................
   1   -244.7020513 -0.244702E+03  0.348E-02    1.21       0.0  T
   2   -244.7020521 -0.755932E-06  0.202E-02    1.21       1.0  T
   3   -244.7020416  0.105113E-04  0.825E-03    1.21       1.0  T
   4   -244.7020530 -0.114593E-04  0.161E-03    1.21       4.9  T
   5   -244.7020531 -0.462645E-07  0.861E-04    1.21       9.2  T
   6   -244.7020532 -0.780435E-07  0.319E-04    1.21      24.8  T
     SCC iter.                  ...        0 min,  0.139 sec
     gradient                   ...        0 min,  0.078 sec
 * total energy  :  -241.2381492 Eh     change       -0.8409599E-04 Eh
   gradient norm :     0.0034978 Eh/α   predicted    -0.6513697E-04 ( -22.54%)
   displ. norm   :     0.4147953 α      lambda       -0.1173202E-03
   maximum displ.:     0.1967708 α      in ANC's #6, #2, #5, ...

........................................................................
.............................. CYCLE   60 ..............................
........................................................................
   1   -244.7026314 -0.244703E+03  0.342E-02    1.21       0.0  T
   2   -244.7026323 -0.819343E-06  0.199E-02    1.21       1.0  T
   3   -244.7026216  0.107000E-04  0.818E-03    1.21       1.0  T
   4   -244.7026332 -0.116325E-04  0.164E-03    1.21       4.8  T
   5   -244.7026333 -0.755361E-07  0.812E-04    1.21       9.7  T
   6   -244.7026333 -0.534201E-07  0.327E-04    1.21      24.2  T
     SCC iter.                  ...        0 min,  0.139 sec
     gradient                   ...        0 min,  0.079 sec
 * total energy  :  -241.2382335 Eh     change       -0.8431090E-04 Eh
   gradient norm :     0.0030797 Eh/α   predicted    -0.6875497E-04 ( -18.45%)
   displ. norm   :     0.4134500 α      lambda       -0.8437333E-04
   maximum displ.:     0.2078076 α      in ANC's #6, #2, #5, ...

........................................................................
.............................. CYCLE   61 ..............................
........................................................................
   1   -244.7012707 -0.244701E+03  0.299E-02    1.20       0.0  T
   2   -244.7012715 -0.785162E-06  0.173E-02    1.20       1.0  T
   3   -244.7012655  0.604360E-05  0.628E-03    1.20       1.3  T
   4   -244.7012720 -0.655140E-05  0.157E-03    1.20       5.0  T
   5   -244.7012722 -0.131688E-06  0.737E-04    1.20      10.7  T
   6   -244.7012722 -0.381187E-07  0.297E-04    1.20      26.6  T
     SCC iter.                  ...        0 min,  0.138 sec
     gradient                   ...        0 min,  0.079 sec
 * total energy  :  -241.2382943 Eh     change       -0.6073092E-04 Eh
   gradient norm :     0.0025206 Eh/α   predicted    -0.4940250E-04 ( -18.65%)
   displ. norm   :     0.3271880 α      lambda       -0.6522511E-04
   maximum displ.:     0.1688894 α      in ANC's #6, #2, #5, ...

........................................................................
.............................. CYCLE   62 ..............................
........................................................................
   1   -244.7019724 -0.244702E+03  0.232E-02    1.19       0.0  T
   2   -244.7019729 -0.513409E-06  0.134E-02    1.19       1.0  T
   3   -244.7019686  0.430472E-05  0.525E-03    1.19       1.5  T
   4   -244.7019733 -0.468427E-05  0.124E-03    1.19       6.4  T
   5   -244.7019734 -0.850156E-07  0.603E-04    1.19      13.1  T
   6   -244.7019734 -0.231084E-07  0.242E-04    1.19      32.6  T
     SCC iter.                  ...        0 min,  0.138 sec
     gradient                   ...        0 min,  0.079 sec
 * total energy  :  -241.2383419 Eh     change       -0.4765125E-04 Eh
   gradient norm :     0.0021922 Eh/α   predicted    -0.3610510E-04 ( -24.23%)
   displ. norm   :     0.3715687 α      lambda       -0.6165515E-04
[...]
    57   6 C    3.962 --    58 C    1.649    47 C    1.194   134 H    0.955
    58   6 C    3.959 --    57 C    1.649    59 C    1.185   135 H    0.951
    59   6 C    3.927 --    63 C    1.416    58 C    1.185    60 S    1.128
    60  16 S    2.593 --    59 C    1.128    61 C    1.116
    61   6 C    3.926 --    62 C    1.425    71 C    1.192    60 S    1.116
    62   6 C    3.952 --    61 C    1.425    63 C    1.312    70 C    1.010
    63   6 C    3.950 --    59 C    1.416    62 C    1.312    64 C    0.996
    64   6 C    3.994 --    63 C    0.996    68 C    0.965    65 C    0.958
                           136 H    0.946
    65   6 C    3.913 --    66 O    1.864    67 C    1.006    64 C    0.958
    66   8 O    2.071 --    65 C    1.864
    67   6 C    3.994 --    65 C    1.006   139 H    0.978   138 H    0.973
                           137 H    0.948
    68   6 C    3.995 --    69 C    1.006   140 H    0.978   141 H    0.975
                            64 C    0.965
    69   6 C    3.997 --    68 C    1.006    70 C    1.005   142 H    0.978
                           143 H    0.975
    70   6 C    3.997 --    62 C    1.010    69 C    1.005   145 H    0.966
                           144 H    0.959
    71   6 C    3.970 --    72 C    1.657    61 C    1.192   146 H    0.950
    72   6 C    3.963 --    71 C    1.657    73 C    1.189   147 H    0.939
    73   6 C    3.951 --    77 C    1.454    72 C    1.189    74 S    1.110
    74  16 S    2.549 --    75 C    1.120    73 C    1.110
    75   6 C    3.924 --    76 C    1.471    85 C    1.145    74 S    1.120
    76   6 C    3.983 --    75 C    1.471    77 C    1.272    84 C    1.017
    77   6 C    3.943 --    73 C    1.454    76 C    1.272    78 C    0.975
    78   6 C    3.993 --    82 C    0.977    77 C    0.975    79 C    0.973
                           148 H    0.939
    79   6 C    3.915 --    80 O    1.860    81 C    1.004    78 C    0.973
    80   8 O    2.075 --    79 C    1.860
    81   6 C    3.994 --    79 C    1.004   151 H    0.977   150 H    0.969
                           149 H    0.952
    82   6 C    3.992 --    83 C    1.003   153 H    0.979    78 C    0.977
                           152 H    0.975
    83   6 C    3.994 --    82 C    1.003    84 C    0.992   155 H    0.982
                           154 H    0.981
    84   6 C    3.997 --    76 C    1.017    83 C    0.992   157 H    0.972
                           156 H    0.958
    85   6 C    3.991 --    86 C    1.852    75 C    1.145   158 H    0.955
    86   6 C    3.958 --    85 C    1.852   160 H    0.978   159 H    0.971
    87   1 H    0.998 --     1 C    0.971
    88   1 H    0.998 --     6 C    0.957
    89   1 H    0.996 --     9 C    0.970
    90   1 H    0.995 --     9 C    0.955
    91   1 H    0.995 --     9 C    0.982
    92   1 H    0.996 --    10 C    0.967
    93   1 H    0.998 --    10 C    0.976
    94   1 H    0.997 --    11 C    0.974
    95   1 H    0.998 --    11 C    0.974
    96   1 H    0.997 --    12 C    0.965
    97   1 H    0.996 --    12 C    0.952
    98   1 H    0.997 --    13 C    0.947
    99   1 H    0.998 --    14 C    0.952
   100   1 H    0.995 --    20 C    0.936
   101   1 H    0.995 --    23 C    0.949
   102   1 H    0.996 --    23 C    0.961
   103   1 H    0.996 --    23 C    0.982
   104   1 H    0.996 --    24 C    0.974
   105   1 H    0.998 --    24 C    0.976
   106   1 H    0.999 --    25 C    0.977
   107   1 H    0.998 --    25 C    0.977
   108   1 H    0.997 --    26 C    0.958
   109   1 H    0.998 --    26 C    0.969
   110   1 H    0.997 --    27 C    0.956
   111   1 H    0.996 --    28 C    0.955
   112   1 H    0.998 --    36 C    0.972
   113   1 H    0.998 --    36 C    0.976
   114   1 H    0.998 --    37 C    0.986
   115   1 H    0.999 --    37 C    0.986
   116   1 H    0.996 --    37 C    0.984
   117   1 H    0.997 --    38 C    0.969
   118   1 H    1.000 --    38 C    0.976
   119   1 H    0.998 --    39 C    0.986
   120   1 H    0.998 --    39 C    0.985
   121   1 H    0.998 --    39 C    0.985
   122   1 H    0.998 --    41 C    0.961
   123   1 H    0.993 --    42 C    0.949
   124   1 H    0.996 --    50 C    0.944
   125   1 H    0.994 --    53 C    0.955
   126   1 H    0.995 --    53 C    0.961
   127   1 H    0.995 --    53 C    0.980
   128   1 H    0.998 --    54 C    0.975
   129   1 H    0.998 --    54 C    0.977
   130   1 H    0.997 --    55 C    0.975
   131   1 H    0.998 --    55 C    0.977
   132   1 H    0.997 --    56 C    0.968
   133   1 H    0.995 --    56 C    0.957
   134   1 H    0.997 --    57 C    0.955
   135   1 H    0.996 --    58 C    0.951
   136   1 H    0.994 --    64 C    0.946
   137   1 H    0.994 --    67 C    0.948
   138   1 H    0.995 --    67 C    0.973
   139   1 H    0.997 --    67 C    0.978
   140   1 H    0.997 --    68 C    0.978
   141   1 H    0.998 --    68 C    0.975
   142   1 H    0.998 --    69 C    0.978
   143   1 H    0.996 --    69 C    0.975
   144   1 H    0.996 --    70 C    0.959
   145   1 H    0.997 --    70 C    0.966
   146   1 H    0.997 --    71 C    0.950
   147   1 H    0.996 --    72 C    0.939
   148   1 H    0.994 --    78 C    0.939
   149   1 H    0.995 --    81 C    0.952
   150   1 H    0.996 --    81 C    0.969
   151   1 H    0.995 --    81 C    0.977
   152   1 H    0.997 --    82 C    0.975
   153   1 H    0.999 --    82 C    0.979
   154   1 H    0.998 --    83 C    0.981
   155   1 H    0.998 --    83 C    0.982
   156   1 H    0.998 --    84 C    0.958
   157   1 H    0.998 --    84 C    0.972
   158   1 H    0.998 --    85 C    0.955
   159   1 H    0.998 --    86 C    0.971
   160   1 H    0.998 --    86 C    0.978
 ---------------------------------------------------------------------------

Topologies differ in bond orders
Writing corrected topology to xtbtopo.mol

molecular dipole:
                 x           y           z       tot (Debye)
 q only:       -1.019       1.735      -2.963
   full:       -1.042       2.175      -3.118      10.018
molecular quadrupole (traceless):
                xx          xy          yy          xz          yz          zz
 q only:        5.257       0.323       9.098      -5.726      15.016     -14.355
  q+dip:       -0.356      -6.967      26.269      -4.777      19.754     -25.913
   full:        1.033      -6.945      24.215      -0.685      20.010     -25.247

           -------------------------------------------------
          |                Geometry Summary                 |
           -------------------------------------------------

      molecular mass/u    :     1271.8212776
   center of mass at/Å    :       -0.1780209      -0.5668753       0.0940129
  moments of inertia/u·Å² :        0.1906314E+05   0.3797358E+05   0.4974270E+05
rotational constants/cm⁻¹ :        0.8843050E-03   0.4439305E-03   0.3388966E-03

 * 153 selected distances

     #   Z          #   Z                                           value/Å
     1   6 C        2  16 S                                       1.7142332
     2  16 S        3   6 C                                       1.7472654
     3   6 C        4   6 C                                       1.3799001
     1   6 C        5   6 C                                       1.3624587
     4   6 C        5   6 C                                       1.4136561
     7   6 C        8   8 O                                       1.2043091
     6   6 C       10   6 C                                       1.5394326
    10   6 C       11   6 C                                       1.5235790
     4   6 C       12   6 C                                       1.4936610
    11   6 C       12   6 C                                       1.5255913
     3   6 C       13   6 C                                       1.4199654
    13   6 C       14   6 C                                       1.3510440
    14   6 C       15   6 C                                       1.4248731
    15   6 C       16  16 S                                       1.7385537
    16  16 S       17   6 C                                       1.7414410
    17   6 C       18   6 C                                       1.3796411
    15   6 C       19   6 C                                       1.3830940
    18   6 C       19   6 C                                       1.4099064
    19   6 C       20   6 C                                       1.4942952
    21   6 C       22   8 O                                       1.2048384
    20   6 C       24   6 C                                       1.5361469
    24   6 C       25   6 C                                       1.5248300
    25   6 C       26   6 C                                       1.5279479
    17   6 C       27   6 C                                       1.4350097
    27   6 C       28   6 C                                       1.3474083
    29   6 C       30  16 S                                       1.7472262
    30  16 S       31   6 C                                       1.7263347
    31   6 C       32   6 C                                       1.4133877
    32   6 C       33   6 C                                       1.3885432
    33   6 C       34   8 O                                       1.3434207
    34   8 O       35   6 C                                       1.4421319
    35   6 C       36   6 C                                       1.5352380
    36   6 C       37   6 C                                       1.5249625
    38   6 C       39   6 C                                       1.5216873
    31   6 C       40   6 C                                       1.3833630
    29   6 C       41   6 C                                       1.3738727
    40   6 C       41   6 C                                       1.4021651
    33   6 C       42   6 C                                       1.3995266
    42   6 C       43   6 C                                       1.3795860
    32   6 C       44  16 S                                       1.7284850
    43   6 C       44  16 S                                       1.7503419 (max)
    43   6 C       45   6 C                                       1.4195542
    45   6 C       46  16 S                                       1.7440117
    46  16 S       47   6 C                                       1.7388779
    47   6 C       48   6 C                                       1.3872699
    45   6 C       49   6 C                                       1.3855361
    48   6 C       49   6 C                                       1.4044023
    51   6 C       52   8 O                                       1.2037624
    54   6 C       55   6 C                                       1.5223540
    48   6 C       56   6 C                                       1.4963324
    55   6 C       56   6 C                                       1.5254948
    47   6 C       57   6 C                                       1.4246247
    57   6 C       58   6 C                                       1.3538505
    58   6 C       59   6 C                                       1.4269184
    59   6 C       60  16 S                                       1.7368803
    60  16 S       61   6 C                                       1.7430774
    61   6 C       62   6 C                                       1.3822299
    59   6 C       63   6 C                                       1.3886115
    62   6 C       63   6 C                                       1.4042048
    65   6 C       66   8 O                                       1.2051383
    64   6 C       68   6 C                                       1.5389523
    68   6 C       69   6 C                                       1.5239438
    62   6 C       70   6 C                                       1.4962551
    69   6 C       70   6 C                                       1.5262315
    61   6 C       71   6 C                                       1.4224435
    71   6 C       72   6 C                                       1.3498505
    72   6 C       73   6 C                                       1.4219970
    73   6 C       74  16 S                                       1.7483614
    74  16 S       75   6 C                                       1.7429093
    75   6 C       76   6 C                                       1.3750715
    73   6 C       77   6 C                                       1.3783607
    76   6 C       77   6 C                                       1.4131128
    79   6 C       80   8 O                                       1.2060643
    78   6 C       82   6 C                                       1.5373885
    82   6 C       83   6 C                                       1.5390774
    76   6 C       84   6 C                                       1.4922001
    83   6 C       84   6 C                                       1.5388470
    75   6 C       85   6 C                                       1.4350328
    85   6 C       86   6 C                                       1.3310187
     1   6 C       87   1 H                                       1.0725654 (min)
     6   6 C       88   1 H                                       1.0942560
     9   6 C       89   1 H                                       1.0870389
     9   6 C       90   1 H                                       1.0891451
     9   6 C       91   1 H                                       1.0869745
    10   6 C       92   1 H                                       1.0909024
    10   6 C       93   1 H                                       1.0924745
    11   6 C       94   1 H                                       1.0916819
    11   6 C       95   1 H                                       1.0913915
    12   6 C       96   1 H                                       1.0922841
    12   6 C       97   1 H                                       1.0946757
    13   6 C       98   1 H                                       1.0829347
    14   6 C       99   1 H                                       1.0823806
    20   6 C      100   1 H                                       1.0965953
    23   6 C      101   1 H                                       1.0880294
    23   6 C      102   1 H                                       1.0875441
    23   6 C      103   1 H                                       1.0870697
    24   6 C      104   1 H                                       1.0909191
    24   6 C      105   1 H                                       1.0919785
    25   6 C      106   1 H                                       1.0921832
    25   6 C      107   1 H                                       1.0915698
    26   6 C      108   1 H                                       1.0960530
    26   6 C      109   1 H                                       1.0924751
    27   6 C      110   1 H                                       1.0830245
    28   6 C      111   1 H                                       1.0832917
    36   6 C      112   1 H                                       1.0894357
    36   6 C      113   1 H                                       1.0919086
    37   6 C      114   1 H                                       1.0873817
    37   6 C      115   1 H                                       1.0875576
    37   6 C      116   1 H                                       1.0865411
    38   6 C      117   1 H                                       1.0906347
    38   6 C      118   1 H                                       1.0947129
    39   6 C      119   1 H                                       1.0881625
    39   6 C      120   1 H                                       1.0875672
    39   6 C      121   1 H                                       1.0866043
    41   6 C      122   1 H                                       1.0751009
    42   6 C      123   1 H                                       1.0742140
    50   6 C      124   1 H                                       1.0944837
    53   6 C      125   1 H                                       1.0877303
    53   6 C      126   1 H                                       1.0870408
    53   6 C      127   1 H                                       1.0873087
    54   6 C      128   1 H                                       1.0934592
    54   6 C      129   1 H                                       1.0908012
    55   6 C      130   1 H                                       1.0912800
    55   6 C      131   1 H                                       1.0921213
    56   6 C      132   1 H                                       1.0915064
    56   6 C      133   1 H                                       1.0948994
    57   6 C      134   1 H                                       1.0832847
    58   6 C      135   1 H                                       1.0843648
    64   6 C      136   1 H                                       1.0977718
    67   6 C      137   1 H                                       1.0897268
    67   6 C      138   1 H                                       1.0877057
    67   6 C      139   1 H                                       1.0855997
    68   6 C      140   1 H                                       1.0908646
    68   6 C      141   1 H                                       1.0925399
    69   6 C      142   1 H                                       1.0919516
    69   6 C      143   1 H                                       1.0911239
    70   6 C      144   1 H                                       1.0951036
    70   6 C      145   1 H                                       1.0920762
    71   6 C      146   1 H                                       1.0820659
    72   6 C      147   1 H                                       1.0784895
    78   6 C      148   1 H                                       1.0993670
    81   6 C      149   1 H                                       1.0890914
    81   6 C      150   1 H                                       1.0865380
    81   6 C      151   1 H                                       1.0878395
    82   6 C      152   1 H                                       1.0906059
    82   6 C      153   1 H                                       1.0911065
    83   6 C      154   1 H                                       1.0913662
    83   6 C      155   1 H                                       1.0910294
    84   6 C      156   1 H                                       1.0953167
    84   6 C      157   1 H                                       1.0893119
    85   6 C      158   1 H                                       1.0822061
    86   6 C      159   1 H                                       1.0773810
    86   6 C      160   1 H                                       1.0753193

 * 4 distinct bonds (by element types)

   Z      Z             #   av. dist./Å        max./Å        min./Å
   1 H    6 C          74     1.0887708     1.0993670     1.0725654
   6 C    6 C          58     1.4419990     1.5394326     1.3310187
   6 C    8 O           7     1.2585236     1.4421319     1.2037624
   6 C   16 S          14     1.7391428     1.7503419     1.7142332


optimized geometry written to: xtbopt.mol


           -------------------------------------------------
          | TOTAL ENERGY             -241.239062696112 Eh   |
          | GRADIENT NORM               0.000477877197 Eh/α |
          | HOMO-LUMO GAP               1.143303675971 eV   |
           -------------------------------------------------

------------------------------------------------------------------------
 * finished run on 2022/03/01 at 08:38:37.488     
------------------------------------------------------------------------
 total:
 * wall-time:     0 d,  0 h,  0 min, 26.233 sec
 *  cpu-time:     0 d,  0 h,  3 min, 25.752 sec
 * ratio c/w:     7.843 speedup
 SCF:
 * wall-time:     0 d,  0 h,  0 min,  0.410 sec
 *  cpu-time:     0 d,  0 h,  0 min,  3.262 sec
 * ratio c/w:     7.953 speedup
 ANC optimizer:
 * wall-time:     0 d,  0 h,  0 min, 25.144 sec
 *  cpu-time:     0 d,  0 h,  3 min, 20.872 sec
 * ratio c/w:     7.989 speedup

