      -----------------------------------------------------------      
     |                   =====================                   |     
     |                           x T B                           |     
     |                   =====================                   |     
     |                         S. Grimme                         |     
     |          Mulliken Center for Theoretical Chemistry        |     
     |                    University of Bonn                     |     
      -----------------------------------------------------------      

   * xtb version 6.4.1 (unknown) compiled by 'oda6@login1.crc.pitt.edu' on 2021-06-25

   xtb is free software: you can redistribute it and/or modify it under
   the terms of the GNU Lesser General Public License as published by
   the Free Software Foundation, either version 3 of the License, or
   (at your option) any later version.
   
   xtb is distributed in the hope that it will be useful,
   but WITHOUT ANY WARRANTY; without even the implied warranty of
   MERCHANTABILITY or FITNESS FOR A PARTICULAR PURPOSE.  See the
   GNU Lesser General Public License for more details.
   
   Cite this work as:
   * C. Bannwarth, E. Caldeweyher, S. Ehlert, A. Hansen, P. Pracht,
     J. Seibert, S. Spicher, S. Grimme, WIREs Comput. Mol. Sci., 2020, 11,
     e01493. DOI: 10.1002/wcms.1493
   
   for GFN2-xTB:
   * C. Bannwarth, S. Ehlert and S. Grimme., J. Chem. Theory Comput., 2019,
     15, 1652-1671. DOI: 10.1021/acs.jctc.8b01176
   for GFN1-xTB:
   * S. Grimme, C. Bannwarth, P. Shushkov, J. Chem. Theory Comput., 2017,
     13, 1989-2009. DOI: 10.1021/acs.jctc.7b00118
   for GFN0-xTB:
   * P. Pracht, E. Caldeweyher, S. Ehlert, S. Grimme, ChemRxiv, 2019, preprint.
     DOI: 10.26434/chemrxiv.8326202.v1
   for GFN-FF:
   * S. Spicher and S. Grimme, Angew. Chem. Int. Ed., 2020, 59, 15665-15673.
     DOI: 10.1002/anie.202004239
   
   for DFT-D4:
   * E. Caldeweyher, C. Bannwarth and S. Grimme, J. Chem. Phys., 2017,
     147, 034112. DOI: 10.1063/1.4993215
   * E. Caldeweyher, S. Ehlert, A. Hansen, H. Neugebauer, S. Spicher,
     C. Bannwarth and S. Grimme, J. Chem. Phys., 2019, 150, 154122.
     DOI: 10.1063/1.5090222
   * E. Caldeweyher, J.-M. Mewes, S. Ehlert and S. Grimme, Phys. Chem. Chem. Phys.
     2020, 22, 8499-8512. DOI: 10.1039/D0CP00502A
   
   for sTDA-xTB:
   * S. Grimme and C. Bannwarth, J. Chem. Phys., 2016, 145, 054103.
     DOI: 10.1063/1.4959605
   
   in the mass-spec context:
   * V. Asgeirsson, C. Bauer and S. Grimme, Chem. Sci., 2017, 8, 4879.
     DOI: 10.1039/c7sc00601b
   * J. Koopman and S. Grimme, ACS Omega 2019, 4, 12, 15120-15133.
     DOI: 10.1021/acsomega.9b02011
   
   for metadynamics refer to:
   * S. Grimme, J. Chem. Theory Comput., 2019, 155, 2847-2862
     DOI: 10.1021/acs.jctc.9b00143
   
   for SPH calculations refer to:
   * S. Spicher and S. Grimme, J. Chem. Theory Comput., 2021, 17, 1701-1714
     DOI: 10.1021/acs.jctc.0c01306
   
   with help from (in alphabetical order)
   P. Atkinson, C. Bannwarth, F. Bohle, G. Brandenburg, E. Caldeweyher
   M. Checinski, S. Dohm, S. Ehlert, S. Ehrlich, I. Gerasimov, J. Koopman
   C. Lavigne, S. Lehtola, F. März, M. Müller, F. Musil, H. Neugebauer
   J. Pisarek, C. Plett, P. Pracht, J. Seibert, P. Shushkov, S. Spicher
   M. Stahn, M. Steiner, T. Strunk, J. Stückrath, T. Rose, and J. Unsleber
   
 * started run on 2022/03/03 at 21:03:57.004     

           -------------------------------------------------
          |                Calculation Setup                |
           -------------------------------------------------

          program call               : /ihome/ghutchison/oda6/xtb/xtb-641/bin/xtb ../../FF_optimized/121_99_101010.mol -opt
          hostname                   : smp-n90
          coordinate file            : ../../FF_optimized/121_99_101010.mol
          omp threads                :                     8
          number of atoms            :                   236
          number of electrons        :                   728
          charge                     :                     0
          spin                       :                   0.0
          first test random number   :      0.32602459784229

   ID    Z sym.   atoms
    1    6 C      1-8, 10-12, 14-21, 23-26, 28, 30, 31, 33, 35-37, 39-47,
                  49-56, 58-60, 62-69, 71-74, 76, 78, 79, 81, 83-85, 87-95,
                  97-104, 106-108, 110-117, 119-122, 124, 126, 127, 129,
                  131-133, 135-143
    2   16 S      9, 22, 29, 32, 34, 48, 57, 70, 77, 80, 82, 96, 105, 118,
                  125, 128, 130, 144
    3    9 F      13, 27, 61, 75, 109, 123
    4    8 O      38, 86, 134
    5    1 H      145-236
########################################################################
[WARNING] Please study the warnings concerning your input carefully
-1- prog_main_parseArguments: the use of '-opt' is discouraged, please use '--opt' next time
########################################################################

           -------------------------------------------------
          |                 G F N 2 - x T B                 |
           -------------------------------------------------

        Reference                      10.1021/acs.jctc.8b01176
      * Hamiltonian:
        H0-scaling (s, p, d)           1.850000    2.230000    2.230000
        zeta-weighting                 0.500000
      * Dispersion:
        s8                             2.700000
        a1                             0.520000
        a2                             5.000000
        s9                             5.000000
      * Repulsion:
        kExp                           1.500000    1.000000
        rExp                           1.000000
      * Coulomb:
        alpha                          2.000000
        third order                    shell-resolved
        anisotropic                    true
        a3                             3.000000
        a5                             4.000000
        cn-shift                       1.200000
        cn-exp                         4.000000
        max-rad                        5.000000


          ...................................................
          :                      SETUP                      :
          :.................................................:
          :  # basis functions                 776          :
          :  # atomic orbitals                 758          :
          :  # shells                          398          :
          :  # electrons                       728          :
          :  max. iterations                   250          :
          :  Hamiltonian                  GFN2-xTB          :
          :  restarted?                      false          :
          :  GBSA solvation                  false          :
          :  PC potential                    false          :
          :  electronic temp.          300.0000000     K    :
          :  accuracy                    1.0000000          :
          :  -> integral cutoff          0.2500000E+02      :
          :  -> integral neglect         0.1000000E-07      :
          :  -> SCF convergence          0.1000000E-05 Eh   :
          :  -> wf. convergence          0.1000000E-03 e    :
          :  Broyden damping             0.4000000          :
          ...................................................

 iter      E             dE          RMSdq      gap      omega  full diag
   1   -401.3775596 -0.401378E+03  0.423E+00    1.46       0.0  T
   2   -401.7002885 -0.322729E+00  0.246E+00    1.44       1.0  T
   3   -401.5391910  0.161097E+00  0.118E+00    1.42       1.0  T
   4   -401.7485537 -0.209363E+00  0.510E-01    1.40       1.0  T
   5   -401.7819279 -0.333743E-01  0.206E-01    1.41       1.0  T
   6   -401.7847935 -0.286561E-02  0.934E-02    1.42       1.0  T
   7   -401.7856880 -0.894489E-03  0.359E-02    1.42       1.0  T
   8   -401.7858348 -0.146753E-03  0.192E-02    1.42       1.0  T
   9   -401.7858595 -0.246905E-04  0.109E-02    1.42       1.0  T
  10   -401.7858730 -0.135131E-04  0.383E-03    1.42       1.7  T
  11   -401.7858744 -0.147001E-05  0.202E-03    1.42       3.2  T
  12   -401.7858749 -0.478518E-06  0.969E-04    1.42       6.7  T
  13   -401.7858750 -0.800708E-07  0.465E-04    1.42      14.0  T

   *** convergence criteria satisfied after 13 iterations ***

         #    Occupation            Energy/Eh            Energy/eV
      -------------------------------------------------------------
         1        2.0000           -0.8240181             -22.4227
       ...           ...                  ...                  ...
       358        2.0000           -0.3647741              -9.9260
       359        2.0000           -0.3637517              -9.8982
       360        2.0000           -0.3631471              -9.8817
       361        2.0000           -0.3620509              -9.8519
       362        2.0000           -0.3598401              -9.7917
       363        2.0000           -0.3596083              -9.7854
       364        2.0000           -0.3591780              -9.7737 (HOMO)
       365                         -0.3068161              -8.3489 (LUMO)
       366                         -0.2991500              -8.1403
       367                         -0.2948772              -8.0240
       368                         -0.2860925              -7.7850
       369                         -0.2775240              -7.5518
       ...                                ...                  ...
       758                          0.7763375              21.1252
      -------------------------------------------------------------
                  HL-Gap            0.0523619 Eh            1.4248 eV
             Fermi-level           -0.3326376 Eh           -9.0515 eV

 SCC (total)                   0 d,  0 h,  0 min,  1.993 sec
 SCC setup                      ...        0 min,  0.005 sec (  0.228%)
 Dispersion                     ...        0 min,  0.014 sec (  0.687%)
 classical contributions        ...        0 min,  0.001 sec (  0.036%)
 integral evaluation            ...        0 min,  0.053 sec (  2.669%)
 iterations                     ...        0 min,  1.695 sec ( 85.049%)
 molecular gradient             ...        0 min,  0.218 sec ( 10.958%)
 printout                       ...        0 min,  0.007 sec (  0.369%)

         :::::::::::::::::::::::::::::::::::::::::::::::::::::
         ::                     SUMMARY                     ::
         :::::::::::::::::::::::::::::::::::::::::::::::::::::
         :: total energy            -396.510323172643 Eh    ::
         :: gradient norm              0.342128920647 Eh/a0 ::
         :: HOMO-LUMO gap              1.424838707065 eV    ::
         ::.................................................::
         :: SCC energy              -401.785875001419 Eh    ::
         :: -> isotropic ES            0.149107020206 Eh    ::
         :: -> anisotropic ES          0.032798896539 Eh    ::
         :: -> anisotropic XC          0.145217338865 Eh    ::
         :: -> dispersion             -0.366439664238 Eh    ::
         :: repulsion energy           5.272125425122 Eh    ::
         :: add. restraining           0.000000000000 Eh    ::
         :: total charge               0.000000000003 e     ::
         :::::::::::::::::::::::::::::::::::::::::::::::::::::

      ----------------------------------------------------------- 
     |                   =====================                   |
     |                        A N C O P T                        |
     |                   =====================                   |
     |               Approximate Normal Coordinate               |
     |                Rational Function Optimizer                |
      ----------------------------------------------------------- 

          ...................................................
          :                      SETUP                      :
          :.................................................:
          :   optimization level            normal          :
          :   max. optcycles                   708          :
          :   ANC micro-cycles                  20          :
          :   degrees of freedom               702          :
          :.................................................:
          :   RF solver                   davidson          :
          :   write xtbopt.log                true          :
          :   linear?                        false          :
          :   energy convergence         0.5000000E-05 Eh   :
          :   grad. convergence          0.1000000E-02 Eh/α :
          :   maximium RF displ.         1.0000000          :
          :   Hlow (freq-cutoff)         0.1000000E-01      :
          :   Hmax (freq-cutoff)         5.0000000          :
          :   S6 in model hess.         20.0000000          :
          ...................................................

generating ANC from model Hessian ...
Using Lindh-Hessian (1995)
 Shifting diagonal of input Hessian by   9.997678401438068E-003
 Lowest  eigenvalues of input Hessian
    0.000000    0.000000    0.000000    0.000000    0.000000    0.000000
    0.010000    0.010002    0.010004    0.010009    0.010015    0.010021
    0.010028    0.010042    0.010052    0.010069    0.010081    0.010083
 Highest eigenvalues
    2.048997    2.050471    2.052945    2.096032    2.097026    2.097125
 

........................................................................
.............................. CYCLE    1 ..............................
........................................................................
   1   -401.7858750 -0.401786E+03  0.192E-04    1.42       0.0  T
   2   -401.7858750 -0.275747E-09  0.142E-04    1.42      45.7  T
   3   -401.7858750 -0.202959E-08  0.937E-05    1.42      69.5  T
     SCC iter.                  ...        0 min,  0.395 sec
     gradient                   ...        0 min,  0.198 sec
 * total energy  :  -396.5103232 Eh     change       -0.2340312E-07 Eh
   gradient norm :     0.3421281 Eh/α   predicted     0.0000000E+00 (-100.00%)
   displ. norm   :     0.4559298 α      lambda       -0.1143059E+00
   maximum displ.:     0.0956495 α      in ANC's #368, #442, #627, ...

........................................................................
.............................. CYCLE    2 ..............................
........................................................................
   1   -401.9920924 -0.401992E+03  0.246E-01    1.35       0.0  T
   2   -401.9932188 -0.112644E-02  0.147E-01    1.37       1.0  T
   3   -401.9928595  0.359323E-03  0.860E-02    1.37       1.0  T
   4   -401.9938454 -0.985832E-03  0.308E-02    1.37       1.0  T
   5   -401.9939542 -0.108852E-03  0.135E-02    1.37       1.0  T
   6   -401.9939823 -0.281303E-04  0.506E-03    1.37       1.3  T
   7   -401.9939850 -0.270855E-05  0.221E-03    1.37       2.9  T
   8   -401.9939858 -0.787972E-06  0.980E-04    1.37       6.6  T
   9   -401.9939859 -0.727524E-07  0.526E-04    1.37      12.4  T
     SCC iter.                  ...        0 min,  2.536 sec
     gradient                   ...        0 min,  0.201 sec
 * total energy  :  -396.5964875 Eh     change       -0.8616431E-01 Eh
   gradient norm :     0.1840932 Eh/α   predicted    -0.6905870E-01 ( -19.85%)
   displ. norm   :     0.4380647 α      lambda       -0.5689641E-01
   maximum displ.:     0.0926283 α      in ANC's #368, #627, #173, ...

........................................................................
.............................. CYCLE    3 ..............................
........................................................................
   1   -402.1391090 -0.402139E+03  0.232E-01    1.28       0.0  T
   2   -402.1405965 -0.148754E-02  0.139E-01    1.31       1.0  T
   3   -402.1408495 -0.252986E-03  0.825E-02    1.31       1.0  T
   4   -402.1414987 -0.649179E-03  0.340E-02    1.31       1.0  T
   5   -402.1416382 -0.139481E-03  0.141E-02    1.31       1.0  T
   6   -402.1416683 -0.301256E-04  0.548E-03    1.31       1.2  T
   7   -402.1416715 -0.321153E-05  0.220E-03    1.31       3.0  T
   8   -402.1416722 -0.675731E-06  0.982E-04    1.31       6.6  T
   9   -402.1416723 -0.820169E-07  0.516E-04    1.31      12.6  T
     SCC iter.                  ...        0 min,  2.539 sec
     gradient                   ...        0 min,  0.201 sec
 * total energy  :  -396.6319183 Eh     change       -0.3543083E-01 Eh
   gradient norm :     0.0500082 Eh/α   predicted    -0.3390743E-01 (  -4.30%)
   displ. norm   :     0.4448021 α      lambda       -0.1033258E-01
   maximum displ.:     0.1181320 α      in ANC's #82, #92, #138, ...

........................................................................
.............................. CYCLE    4 ..............................
........................................................................
   1   -402.1789621 -0.402179E+03  0.101E-01    1.27       0.0  T
   2   -402.1791638 -0.201767E-03  0.588E-02    1.28       1.0  T
   3   -402.1791234  0.403822E-04  0.358E-02    1.28       1.0  T
   4   -402.1792743 -0.150824E-03  0.132E-02    1.28       1.0  T
   5   -402.1792964 -0.221455E-04  0.563E-03    1.28       1.2  T
   6   -402.1793011 -0.468915E-05  0.220E-03    1.28       3.0  T
   7   -402.1793017 -0.595129E-06  0.835E-04    1.28       7.8  T
   8   -402.1793018 -0.893739E-07  0.395E-04    1.28      16.5  T
     SCC iter.                  ...        0 min,  2.243 sec
     gradient                   ...        0 min,  0.201 sec
 * total energy  :  -396.6390565 Eh     change       -0.7138202E-02 Eh
   gradient norm :     0.0190435 Eh/α   predicted    -0.6188434E-02 ( -13.31%)
   displ. norm   :     0.4790536 α      lambda       -0.4268953E-02
   maximum displ.:     0.1462988 α      in ANC's #82, #65, #92, ...

........................................................................
.............................. CYCLE    5 ..............................
........................................................................
   1   -402.2019793 -0.402202E+03  0.621E-02    1.26       0.0  T
   2   -402.2020103 -0.309991E-04  0.350E-02    1.26       1.0  T
   3   -402.2019642  0.461114E-04  0.180E-02    1.26       1.0  T
   4   -402.2020215 -0.572983E-04  0.620E-03    1.26       1.0  T
   5   -402.2020257 -0.414798E-05  0.285E-03    1.26       2.3  T
   6   -402.2020268 -0.116952E-05  0.105E-03    1.26       6.2  T
   7   -402.2020270 -0.170611E-06  0.412E-04    1.26      15.8  T
   8   -402.2020270 -0.164649E-07  0.226E-04    1.26      28.8  T
     SCC iter.                  ...        0 min,  2.261 sec
     gradient                   ...        0 min,  0.202 sec
 * total energy  :  -396.6421616 Eh     change       -0.3105026E-02 Eh
   gradient norm :     0.0120790 Eh/α   predicted    -0.2624323E-02 ( -15.48%)
   displ. norm   :     0.4896518 α      lambda       -0.2331125E-02
   maximum displ.:     0.1462641 α      in ANC's #65, #82, #46, ...

........................................................................
.............................. CYCLE    6 ..............................
........................................................................
   1   -402.2192440 -0.402219E+03  0.519E-02    1.25       0.0  T
   2   -402.2192504 -0.637255E-05  0.285E-02    1.26       1.0  T
   3   -402.2192434  0.700842E-05  0.773E-03    1.25       1.0  T
   4   -402.2192510 -0.758045E-05  0.381E-03    1.25       1.7  T
   5   -402.2192522 -0.118952E-05  0.159E-03    1.25       4.1  T
   6   -402.2192526 -0.458875E-06  0.442E-04    1.25      14.7  T
   7   -402.2192526 -0.214289E-07  0.241E-04    1.25      27.1  T
     SCC iter.                  ...        0 min,  1.964 sec
     gradient                   ...        0 min,  0.200 sec
 * total energy  :  -396.6438953 Eh     change       -0.1733699E-02 Eh
   gradient norm :     0.0112292 Eh/α   predicted    -0.1445017E-02 ( -16.65%)
   displ. norm   :     0.4952195 α      lambda       -0.1488728E-02
   maximum displ.:     0.1495206 α      in ANC's #65, #28, #44, ...

........................................................................
.............................. CYCLE    7 ..............................
........................................................................
   1   -402.2311021 -0.402231E+03  0.487E-02    1.26       0.0  T
   2   -402.2311101 -0.799105E-05  0.269E-02    1.25       1.0  T
   3   -402.2310934  0.166865E-04  0.107E-02    1.25       1.0  T
   4   -402.2311128 -0.193854E-04  0.368E-03    1.25       1.8  T
   5   -402.2311138 -0.100924E-05  0.163E-03    1.25       4.0  T
   6   -402.2311141 -0.329770E-06  0.573E-04    1.25      11.4  T
   7   -402.2311142 -0.636628E-07  0.202E-04    1.25      32.2  T
     SCC iter.                  ...        0 min,  1.965 sec
     gradient                   ...        0 min,  0.200 sec
 * total energy  :  -396.6450406 Eh     change       -0.1145367E-02 Eh
   gradient norm :     0.0097725 Eh/α   predicted    -0.9269140E-03 ( -19.07%)
   displ. norm   :     0.5306270 α      lambda       -0.1172859E-02
   maximum displ.:     0.1912276 α      in ANC's #28, #44, #65, ...

........................................................................
.............................. CYCLE    8 ..............................
........................................................................
   1   -402.2377138 -0.402238E+03  0.502E-02    1.26       0.0  T
   2   -402.2377229 -0.907051E-05  0.278E-02    1.26       1.0  T
   3   -402.2377036  0.192880E-04  0.113E-02    1.26       1.0  T
   4   -402.2377259 -0.223563E-04  0.382E-03    1.26       1.7  T
   5   -402.2377271 -0.121825E-05  0.165E-03    1.26       4.0  T
   6   -402.2377275 -0.319466E-06  0.580E-04    1.26      11.2  T
   7   -402.2377275 -0.659837E-07  0.192E-04    1.26      33.8  T
     SCC iter.                  ...        0 min,  2.348 sec
     gradient                   ...        0 min,  0.297 sec
 * total energy  :  -396.6459736 Eh     change       -0.9329510E-03 Eh
   gradient norm :     0.0074230 Eh/α   predicted    -0.7515644E-03 ( -19.44%)
   displ. norm   :     0.5723534 α      lambda       -0.1039326E-02
   maximum displ.:     0.2297712 α      in ANC's #28, #44, #19, ...

........................................................................
.............................. CYCLE    9 ..............................
........................................................................
   1   -402.2394678 -0.402239E+03  0.543E-02    1.26       0.0  T
   2   -402.2394753 -0.746347E-05  0.300E-02    1.26       1.0  T
   3   -402.2394600  0.153463E-04  0.100E-02    1.26       1.0  T
   4   -402.2394772 -0.172688E-04  0.390E-03    1.26       1.7  T
   5   -402.2394785 -0.122382E-05  0.154E-03    1.26       4.2  T
   6   -402.2394788 -0.344770E-06  0.492E-04    1.26      13.2  T
   7   -402.2394788 -0.434588E-07  0.199E-04    1.26      32.8  T
     SCC iter.                  ...        0 min,  1.381 sec
     gradient                   ...        0 min,  0.248 sec
 * total energy  :  -396.6468303 Eh     change       -0.8567429E-03 Eh
   gradient norm :     0.0065557 Eh/α   predicted    -0.6899013E-03 ( -19.47%)
   displ. norm   :     0.6251719 α      lambda       -0.1013227E-02
   maximum displ.:     0.2664827 α      in ANC's #28, #44, #19, ...

........................................................................
.............................. CYCLE   10 ..............................
........................................................................
   1   -402.2375189 -0.402238E+03  0.602E-02    1.26       0.0  T
   2   -402.2375254 -0.651105E-05  0.329E-02    1.26       1.0  T
   3   -402.2375168  0.859650E-05  0.841E-03    1.26       1.0  T
   4   -402.2375259 -0.914453E-05  0.419E-03    1.26       1.6  T
   5   -402.2375276 -0.170508E-05  0.130E-03    1.26       5.0  T
   6   -402.2375280 -0.336785E-06  0.406E-04    1.26      16.0  T
   7   -402.2375280 -0.229923E-07  0.206E-04    1.26      31.6  T
     SCC iter.                  ...        0 min,  1.896 sec
     gradient                   ...        0 min,  0.242 sec
 * total energy  :  -396.6476925 Eh     change       -0.8622270E-03 Eh
   gradient norm :     0.0078432 Eh/α   predicted    -0.7046241E-03 ( -18.28%)
   displ. norm   :     0.6780063 α      lambda       -0.1037216E-02
   maximum displ.:     0.2978341 α      in ANC's #28, #19, #44, ...

........................................................................
.............................. CYCLE   11 ..............................
........................................................................
   1   -402.2337482 -0.402234E+03  0.654E-02    1.26       0.0  T
   2   -402.2337559 -0.771140E-05  0.354E-02    1.26       1.0  T
   3   -402.2337496  0.630382E-05  0.815E-03    1.26       1.0  T
   4   -402.2337557 -0.609709E-05  0.458E-03    1.26       1.4  T
   5   -402.2337582 -0.245965E-05  0.136E-03    1.26       4.8  T
   6   -402.2337586 -0.413005E-06  0.434E-04    1.26      15.0  T
   7   -402.2337586 -0.304286E-07  0.204E-04    1.26      31.8  T
     SCC iter.                  ...        0 min,  1.275 sec
     gradient                   ...        0 min,  0.282 sec
 * total energy  :  -396.6485961 Eh     change       -0.9035241E-03 Eh
   gradient norm :     0.0087698 Eh/α   predicted    -0.7570449E-03 ( -16.21%)
   displ. norm   :     0.7207229 α      lambda       -0.1068105E-02
   maximum displ.:     0.3209160 α      in ANC's #28, #19, #44, ...

........................................................................
.............................. CYCLE   12 ..............................
........................................................................
   1   -402.2302794 -0.402230E+03  0.686E-02    1.26       0.0  T
   2   -402.2302893 -0.998057E-05  0.367E-02    1.26       1.0  T
   3   -402.2302803  0.901511E-05  0.916E-03    1.26       1.0  T
   4   -402.2302894 -0.904766E-05  0.504E-03    1.26       1.3  T
   5   -402.2302922 -0.283168E-05  0.162E-03    1.26       4.0  T
   6   -402.2302928 -0.546649E-06  0.510E-04    1.26      12.8  T
   7   -402.2302928 -0.491073E-07  0.211E-04    1.26      30.9  T
     SCC iter.                  ...        0 min,  1.435 sec
     gradient                   ...        0 min,  0.252 sec
 * total energy  :  -396.6495356 Eh     change       -0.9395689E-03 Eh
   gradient norm :     0.0080148 Eh/α   predicted    -0.8115148E-03 ( -13.63%)
   displ. norm   :     0.7484802 α      lambda       -0.1056900E-02
   maximum displ.:     0.3351199 α      in ANC's #28, #19, #44, ...

........................................................................
.............................. CYCLE   13 ..............................
........................................................................
   1   -402.2285061 -0.402229E+03  0.702E-02    1.26       0.0  T
   2   -402.2285175 -0.114782E-04  0.371E-02    1.26       1.0  T
   3   -402.2285063  0.112021E-04  0.988E-03    1.26       1.0  T
   4   -402.2285178 -0.114950E-04  0.537E-03    1.26       1.2  T
   5   -402.2285210 -0.312870E-05  0.170E-03    1.26       3.8  T
   6   -402.2285215 -0.576834E-06  0.524E-04    1.26      12.4  T
   7   -402.2285216 -0.486723E-07  0.224E-04    1.26      29.0  T
     SCC iter.                  ...        0 min,  1.601 sec
     gradient                   ...        0 min,  0.286 sec
 * total energy  :  -396.6504629 Eh     change       -0.9272409E-03 Eh
   gradient norm :     0.0065826 Eh/α   predicted    -0.8245033E-03 ( -11.08%)
   displ. norm   :     0.7635662 α      lambda       -0.9817507E-03
   maximum displ.:     0.3424015 α      in ANC's #28, #19, #44, ...

........................................................................
.............................. CYCLE   14 ..............................
........................................................................
   1   -402.2285912 -0.402229E+03  0.713E-02    1.26       0.0  T
   2   -402.2286033 -0.121349E-04  0.372E-02    1.26       1.0  T
   3   -402.2285937  0.961412E-05  0.975E-03    1.26       1.0  T
   4   -402.2286037 -0.100312E-04  0.543E-03    1.26       1.2  T
   5   -402.2286068 -0.305280E-05  0.167E-03    1.26       3.9  T
   6   -402.2286074 -0.603491E-06  0.500E-04    1.26      13.0  T
   7   -402.2286074 -0.383644E-07  0.233E-04    1.26      27.9  T
     SCC iter.                  ...        0 min,  1.589 sec
     gradient                   ...        0 min,  0.273 sec
 * total energy  :  -396.6513223 Eh     change       -0.8593771E-03 Eh
   gradient norm :     0.0066270 Eh/α   predicted    -0.7770780E-03 (  -9.58%)
   displ. norm   :     0.7690499 α      lambda       -0.8927101E-03
   maximum displ.:     0.3430073 α      in ANC's #28, #19, #27, ...

........................................................................
.............................. CYCLE   15 ..............................
........................................................................
   1   -402.2305840 -0.402231E+03  0.720E-02    1.27       0.0  T
   2   -402.2305969 -0.128924E-04  0.371E-02    1.27       1.0  T
   3   -402.2305905  0.644627E-05  0.917E-03    1.27       1.0  T
   4   -402.2305974 -0.695301E-05  0.529E-03    1.27       1.2  T
   5   -402.2306003 -0.285592E-05  0.162E-03    1.27       4.0  T
   6   -402.2306009 -0.579159E-06  0.503E-04    1.27      12.9  T
   7   -402.2306009 -0.398853E-07  0.228E-04    1.27      28.6  T
     SCC iter.                  ...        0 min,  1.761 sec
     gradient                   ...        0 min,  0.312 sec
 * total energy  :  -396.6521102 Eh     change       -0.7879281E-03 Eh
   gradient norm :     0.0072845 Eh/α   predicted    -0.7103464E-03 (  -9.85%)
   displ. norm   :     0.7761993 α      lambda       -0.8419771E-03
   maximum displ.:     0.3400055 α      in ANC's #28, #19, #27, ...

........................................................................
.............................. CYCLE   16 ..............................
........................................................................
   1   -402.2333146 -0.402233E+03  0.730E-02    1.27       0.0  T
   2   -402.2333287 -0.141351E-04  0.372E-02    1.27       1.0  T
   3   -402.2333235  0.523267E-05  0.892E-03    1.27       1.0  T
   4   -402.2333294 -0.590145E-05  0.522E-03    1.27       1.2  T
   5   -402.2333324 -0.293544E-05  0.154E-03    1.27       4.2  T
   6   -402.2333328 -0.448589E-06  0.543E-04    1.27      12.0  T
   7   -402.2333329 -0.537623E-07  0.221E-04    1.27      29.5  T
     SCC iter.                  ...        0 min,  1.629 sec
     gradient                   ...        0 min,  0.290 sec
 * total energy  :  -396.6528646 Eh     change       -0.7544144E-03 Eh
   gradient norm :     0.0070498 Eh/α   predicted    -0.6746284E-03 ( -10.58%)
   displ. norm   :     0.7789206 α      lambda       -0.8374794E-03
   maximum displ.:     0.3255906 α      in ANC's #28, #19, #27, ...

........................................................................
.............................. CYCLE   17 ..............................
........................................................................
   1   -402.2389557 -0.402239E+03  0.734E-02    1.27       0.0  T
   2   -402.2389710 -0.152208E-04  0.370E-02    1.27       1.0  T
   3   -402.2389638  0.713615E-05  0.922E-03    1.27       1.0  T
   4   -402.2389720 -0.815231E-05  0.533E-03    1.27       1.2  T
   5   -402.2389751 -0.311242E-05  0.157E-03    1.27       4.2  T
   6   -402.2389755 -0.400848E-06  0.551E-04    1.27      11.8  T
   7   -402.2389755 -0.543998E-07  0.217E-04    1.27      30.0  T
     SCC iter.                  ...        0 min,  1.491 sec
     gradient                   ...        0 min,  0.219 sec
 * total energy  :  -396.6536135 Eh     change       -0.7488789E-03 Eh
   gradient norm :     0.0064555 Eh/α   predicted    -0.6728023E-03 ( -10.16%)
   displ. norm   :     0.8264254 α      lambda       -0.8397083E-03
   maximum displ.:     0.3419463 α      in ANC's #19, #28, #27, ...

........................................................................
.............................. CYCLE   18 ..............................
........................................................................
   1   -402.2328767 -0.402233E+03  0.786E-02    1.27       0.0  T
   2   -402.2328951 -0.183638E-04  0.396E-02    1.27       1.0  T
   3   -402.2328849  0.101599E-04  0.104E-02    1.27       1.0  T
   4   -402.2328967 -0.117815E-04  0.580E-03    1.27       1.1  T
   5   -402.2329001 -0.346066E-05  0.170E-03    1.27       3.8  T
   6   -402.2329006 -0.464708E-06  0.599E-04    1.27      10.9  T
   7   -402.2329007 -0.675618E-07  0.211E-04    1.27      30.8  T
     SCC iter.                  ...        0 min,  1.084 sec
     gradient                   ...        0 min,  0.216 sec
 * total energy  :  -396.6543311 Eh     change       -0.7176160E-03 Eh
   gradient norm :     0.0074712 Eh/α   predicted    -0.7066059E-03 (  -1.53%)
   displ. norm   :     0.7669593 α      lambda       -0.9977864E-03
   maximum displ.:     0.3253665 α      in ANC's #19, #28, #27, ...

........................................................................
.............................. CYCLE   19 ..............................
........................................................................
   1   -402.2507538 -0.402251E+03  0.753E-02    1.28       0.0  T
   2   -402.2507718 -0.179889E-04  0.382E-02    1.28       1.0  T
   3   -402.2507533  0.185410E-04  0.116E-02    1.28       1.0  T
   4   -402.2507756 -0.223022E-04  0.559E-03    1.28       1.2  T
   5   -402.2507780 -0.243082E-05  0.199E-03    1.28       3.3  T
   6   -402.2507786 -0.643049E-06  0.639E-04    1.28      10.2  T
   7   -402.2507787 -0.648541E-07  0.294E-04    1.28      22.2  T
     SCC iter.                  ...        0 min,  1.223 sec
     gradient                   ...        0 min,  0.251 sec
 * total energy  :  -396.6550029 Eh     change       -0.6718072E-03 Eh
   gradient norm :     0.0113154 Eh/α   predicted    -0.7923682E-03 (  17.95%)
   displ. norm   :     0.7823733 α      lambda       -0.7871829E-03
   maximum displ.:     0.3322076 α      in ANC's #19, #28, #27, ...

........................................................................
.............................. CYCLE   20 ..............................
........................................................................
   1   -402.2403446 -0.402240E+03  0.742E-02    1.28       0.0  T
   2   -402.2403617 -0.171182E-04  0.370E-02    1.28       1.0  T
   3   -402.2403548  0.696139E-05  0.969E-03    1.28       1.0  T
   4   -402.2403640 -0.924833E-05  0.528E-03    1.28       1.2  T
   5   -402.2403661 -0.211781E-05  0.170E-03    1.28       3.8  T
   6   -402.2403667 -0.520727E-06  0.593E-04    1.28      11.0  T
   7   -402.2403667 -0.675192E-07  0.212E-04    1.28      30.7  T
     SCC iter.                  ...        0 min,  2.246 sec
     gradient                   ...        0 min,  0.232 sec
 * total energy  :  -396.6556672 Eh     change       -0.6643245E-03 Eh
   gradient norm :     0.0101044 Eh/α   predicted    -0.6345149E-03 (  -4.49%)
   displ. norm   :     0.7027642 α      lambda       -0.7740938E-03
   maximum displ.:     0.3096126 α      in ANC's #19, #28, #27, ...
 * RMSD in coord.:     0.6747365 α      energy gain  -0.1453440E+00 Eh

generating ANC from model Hessian ...
Using Lindh-Hessian (1995)
 Shifting diagonal of input Hessian by   9.997973019378915E-003
 Lowest  eigenvalues of input Hessian
    0.000000    0.000000    0.000000    0.000000    0.000000    0.000000
    0.010000    0.010002    0.010004    0.010008    0.010017    0.010021
    0.010029    0.010050    0.010054    0.010070    0.010084    0.010094
 Highest eigenvalues
    2.096608    2.098609    2.107859    2.108417    2.109900    2.111248
 

........................................................................
.............................. CYCLE   21 ..............................
........................................................................
   1   -402.2314360 -0.402231E+03  0.640E-02    1.27       0.0  T
   2   -402.2314498 -0.138525E-04  0.321E-02    1.27       1.0  T
   3   -402.2314409  0.894021E-05  0.963E-03    1.27       1.0  T
   4   -402.2314526 -0.117399E-04  0.470E-03    1.27       1.4  T
   5   -402.2314538 -0.119087E-05  0.166E-03    1.27       3.9  T
   6   -402.2314543 -0.439213E-06  0.549E-04    1.27      11.9  T
   7   -402.2314543 -0.554608E-07  0.199E-04    1.27      32.7  T
     SCC iter.                  ...        0 min,  1.327 sec
     gradient                   ...        0 min,  0.244 sec
 * total energy  :  -396.6562867 Eh     change       -0.6194686E-03 Eh
   gradient norm :     0.0080084 Eh/α   predicted     0.0000000E+00 (-100.00%)
   displ. norm   :     0.1110498 α      lambda       -0.2825999E-03
   maximum displ.:     0.0368898 α      in ANC's #19, #30, #5, ...

........................................................................
.............................. CYCLE   22 ..............................
........................................................................
   1   -402.2392163 -0.402239E+03  0.133E-02    1.27       0.0  T
   2   -402.2392172 -0.863674E-06  0.746E-03    1.27       1.0  T
   3   -402.2392159  0.131739E-05  0.279E-03    1.27       2.3  T
   4   -402.2392173 -0.148712E-05  0.104E-03    1.27       6.2  T
   5   -402.2392175 -0.135304E-06  0.435E-04    1.27      15.0  T
   6   -402.2392175 -0.171636E-07  0.177E-04    1.27      36.8  T
     SCC iter.                  ...        0 min,  1.516 sec
     gradient                   ...        0 min,  0.225 sec
 * total energy  :  -396.6565126 Eh     change       -0.2259536E-03 Eh
   gradient norm :     0.0035191 Eh/α   predicted    -0.1431613E-03 ( -36.64%)
   displ. norm   :     0.3093604 α      lambda       -0.4407089E-03
   maximum displ.:     0.1068512 α      in ANC's #19, #30, #5, ...

........................................................................
.............................. CYCLE   23 ..............................
........................................................................
   1   -402.2476064 -0.402248E+03  0.301E-02    1.27       0.0  T
   2   -402.2476094 -0.301459E-05  0.164E-02    1.27       1.0  T
   3   -402.2476039  0.551981E-05  0.579E-03    1.27       1.1  T
   4   -402.2476101 -0.617478E-05  0.237E-03    1.27       2.7  T
   5   -402.2476106 -0.552628E-06  0.924E-04    1.27       7.0  T
   6   -402.2476108 -0.126089E-06  0.304E-04    1.27      21.4  T
     SCC iter.                  ...        0 min,  1.685 sec
     gradient                   ...        0 min,  0.222 sec
 * total energy  :  -396.6568419 Eh     change       -0.3293014E-03 Eh
   gradient norm :     0.0048147 Eh/α   predicted    -0.2414483E-03 ( -26.68%)
   displ. norm   :     0.4340760 α      lambda       -0.4172807E-03
   maximum displ.:     0.1523770 α      in ANC's #19, #30, #5, ...

........................................................................
.............................. CYCLE   24 ..............................
........................................................................
   1   -402.2492960 -0.402249E+03  0.394E-02    1.27       0.0  T
   2   -402.2492999 -0.389126E-05  0.210E-02    1.27       1.0  T
   3   -402.2492950  0.488664E-05  0.613E-03    1.27       1.1  T
   4   -402.2493002 -0.524319E-05  0.308E-03    1.27       2.1  T
   5   -402.2493012 -0.955014E-06  0.996E-04    1.27       6.5  T
   6   -402.2493014 -0.188645E-06  0.298E-04    1.27      21.8  T
     SCC iter.                  ...        0 min,  1.078 sec
     gradient                   ...        0 min,  0.298 sec
 * total energy  :  -396.6571949 Eh     change       -0.3529779E-03 Eh
   gradient norm :     0.0081814 Eh/α   predicted    -0.2479969E-03 ( -29.74%)
   displ. norm   :     0.6361067 α      lambda       -0.5732409E-03
   maximum displ.:     0.2254716 α      in ANC's #19, #30, #29, ...

........................................................................
.............................. CYCLE   25 ..............................
........................................................................
   1   -402.2439956 -0.402244E+03  0.570E-02    1.27       0.0  T
   2   -402.2440034 -0.776781E-05  0.298E-02    1.27       1.0  T
   3   -402.2439986  0.474638E-05  0.752E-03    1.27       1.0  T
   4   -402.2440032 -0.459598E-05  0.442E-03    1.27       1.5  T
   5   -402.2440055 -0.229754E-05  0.119E-03    1.27       5.5  T
   6   -402.2440058 -0.269360E-06  0.385E-04    1.27      16.9  T
   7   -402.2440058 -0.230154E-07  0.172E-04    1.27      37.8  T
     SCC iter.                  ...        0 min,  1.460 sec
     gradient                   ...        0 min,  0.279 sec
 * total energy  :  -396.6576843 Eh     change       -0.4894150E-03 Eh
   gradient norm :     0.0087773 Eh/α   predicted    -0.4025965E-03 ( -17.74%)
   displ. norm   :     0.6723981 α      lambda       -0.5705217E-03
   maximum displ.:     0.2457619 α      in ANC's #19, #29, #30, ...

........................................................................
.............................. CYCLE   26 ..............................
........................................................................
   1   -402.2357024 -0.402236E+03  0.602E-02    1.26       0.0  T
   2   -402.2357118 -0.943881E-05  0.309E-02    1.27       1.0  T
   3   -402.2357065  0.529524E-05  0.800E-03    1.27       1.0  T
   4   -402.2357122 -0.573012E-05  0.459E-03    1.27       1.4  T
   5   -402.2357144 -0.217226E-05  0.131E-03    1.27       5.0  T
   6   -402.2357147 -0.307575E-06  0.410E-04    1.27      15.9  T
   7   -402.2357147 -0.254286E-07  0.172E-04    1.27      37.9  T
     SCC iter.                  ...        0 min,  1.462 sec
     gradient                   ...        0 min,  0.250 sec
 * total energy  :  -396.6581517 Eh     change       -0.4673702E-03 Eh
   gradient norm :     0.0074946 Eh/α   predicted    -0.4142337E-03 ( -11.37%)
   displ. norm   :     0.5971122 α      lambda       -0.4886198E-03
   maximum displ.:     0.2285263 α      in ANC's #19, #29, #5, ...

........................................................................
.............................. CYCLE   27 ..............................
........................................................................
   1   -402.2310426 -0.402231E+03  0.535E-02    1.26       0.0  T
   2   -402.2310511 -0.857470E-05  0.271E-02    1.27       1.0  T
   3   -402.2310432  0.797734E-05  0.816E-03    1.27       1.0  T
   4   -402.2310527 -0.958345E-05  0.405E-03    1.27       1.6  T
   5   -402.2310539 -0.117756E-05  0.144E-03    1.27       4.5  T
   6   -402.2310543 -0.388726E-06  0.391E-04    1.27      16.7  T
   7   -402.2310543 -0.238601E-07  0.171E-04    1.27      38.1  T
     SCC iter.                  ...        0 min,  1.635 sec
     gradient                   ...        0 min,  0.232 sec
 * total energy  :  -396.6585553 Eh     change       -0.4035521E-03 Eh
   gradient norm :     0.0066235 Eh/α   predicted    -0.3314211E-03 ( -17.87%)
   displ. norm   :     0.5802862 α      lambda       -0.5033512E-03
   maximum displ.:     0.2301195 α      in ANC's #19, #5, #29, ...

........................................................................
.............................. CYCLE   28 ..............................
........................................................................
   1   -402.2320883 -0.402232E+03  0.520E-02    1.27       0.0  T
   2   -402.2320973 -0.902384E-05  0.261E-02    1.27       1.0  T
   3   -402.2320871  0.102101E-04  0.859E-03    1.27       1.0  T
   4   -402.2320996 -0.125065E-04  0.392E-03    1.27       1.7  T
   5   -402.2321006 -0.954934E-06  0.154E-03    1.27       4.2  T
   6   -402.2321010 -0.434817E-06  0.418E-04    1.27      15.6  T
   7   -402.2321010 -0.287210E-07  0.178E-04    1.27      36.6  T
     SCC iter.                  ...        0 min,  1.513 sec
     gradient                   ...        0 min,  0.273 sec
 * total energy  :  -396.6589741 Eh     change       -0.4187897E-03 Eh
   gradient norm :     0.0073026 Eh/α   predicted    -0.3364227E-03 ( -19.67%)
   displ. norm   :     0.6337781 α      lambda       -0.5147267E-03
   maximum displ.:     0.2552580 α      in ANC's #19, #5, #29, ...

........................................................................
.............................. CYCLE   29 ..............................
........................................................................
   1   -402.2361446 -0.402236E+03  0.556E-02    1.27       0.0  T
   2   -402.2361541 -0.951613E-05  0.278E-02    1.27       1.0  T
   3   -402.2361465  0.761269E-05  0.807E-03    1.27       1.0  T
   4   -402.2361558 -0.937257E-05  0.406E-03    1.27       1.6  T
   5   -402.2361570 -0.119838E-05  0.148E-03    1.27       4.4  T
   6   -402.2361575 -0.415578E-06  0.409E-04    1.27      15.9  T
   7   -402.2361575 -0.268807E-07  0.169E-04    1.27      38.5  T
     SCC iter.                  ...        0 min,  1.513 sec
     gradient                   ...        0 min,  0.196 sec
 * total energy  :  -396.6594132 Eh     change       -0.4391613E-03 Eh
   gradient norm :     0.0080422 Eh/α   predicted    -0.3607413E-03 ( -17.86%)
   displ. norm   :     0.6849526 α      lambda       -0.5225858E-03
   maximum displ.:     0.2789073 α      in ANC's #19, #5, #12, ...

........................................................................
.............................. CYCLE   30 ..............................
........................................................................
   1   -402.2415569 -0.402242E+03  0.585E-02    1.27       0.0  T
   2   -402.2415667 -0.985386E-05  0.292E-02    1.27       1.0  T
   3   -402.2415615  0.520519E-05  0.761E-03    1.27       1.0  T
   4   -402.2415680 -0.644420E-05  0.418E-03    1.27       1.6  T
   5   -402.2415694 -0.146983E-05  0.141E-03    1.27       4.6  T
   6   -402.2415698 -0.381074E-06  0.403E-04    1.27      16.2  T
   7   -402.2415698 -0.255208E-07  0.162E-04    1.27      40.2  T
     SCC iter.                  ...        0 min,  1.773 sec
     gradient                   ...        0 min,  0.310 sec
 * total energy  :  -396.6598682 Eh     change       -0.4549491E-03 Eh
   gradient norm :     0.0070511 Eh/α   predicted    -0.3838821E-03 ( -15.62%)
   displ. norm   :     0.7401714 α      lambda       -0.5246402E-03
   maximum displ.:     0.3028901 α      in ANC's #19, #5, #12, ...

........................................................................
.............................. CYCLE   31 ..............................
........................................................................
   1   -402.2454289 -0.402245E+03  0.618E-02    1.26       0.0  T
   2   -402.2454400 -0.110801E-04  0.309E-02    1.27       1.0  T
   3   -402.2454340  0.596798E-05  0.805E-03    1.26       1.0  T
   4   -402.2454413 -0.730448E-05  0.444E-03    1.27       1.5  T
   5   -402.2454430 -0.170859E-05  0.145E-03    1.27       4.5  T
   6   -402.2454434 -0.412489E-06  0.433E-04    1.27      15.0  T
   7   -402.2454435 -0.318195E-07  0.170E-04    1.27      38.3  T
     SCC iter.                  ...        0 min,  1.703 sec
     gradient                   ...        0 min,  0.199 sec
 * total energy  :  -396.6603365 Eh     change       -0.4683480E-03 Eh
   gradient norm :     0.0050494 Eh/α   predicted    -0.4060447E-03 ( -13.30%)
   displ. norm   :     0.7683866 α      lambda       -0.5309138E-03
   maximum displ.:     0.3147267 α      in ANC's #19, #5, #12, ...

........................................................................
.............................. CYCLE   32 ..............................
........................................................................
   1   -402.2487222 -0.402249E+03  0.630E-02    1.26       0.0  T
   2   -402.2487339 -0.117118E-04  0.315E-02    1.26       1.0  T
   3   -402.2487261  0.779816E-05  0.855E-03    1.26       1.0  T
   4   -402.2487356 -0.942134E-05  0.457E-03    1.26       1.4  T
   5   -402.2487373 -0.177404E-05  0.150E-03    1.26       4.3  T
   6   -402.2487378 -0.435288E-06  0.467E-04    1.26      13.9  T
   7   -402.2487378 -0.410458E-07  0.178E-04    1.26      36.6  T
     SCC iter.                  ...        0 min,  1.966 sec
     gradient                   ...        0 min,  0.229 sec
 * total energy  :  -396.6608126 Eh     change       -0.4761200E-03 Eh
   gradient norm :     0.0043716 Eh/α   predicted    -0.4221874E-03 ( -11.33%)
   displ. norm   :     0.8159160 α      lambda       -0.5244144E-03
   maximum displ.:     0.3316374 α      in ANC's #19, #5, #12, ...

........................................................................
.............................. CYCLE   33 ..............................
........................................................................
   1   -402.2466220 -0.402247E+03  0.662E-02    1.26       0.0  T
   2   -402.2466349 -0.128889E-04  0.331E-02    1.26       1.0  T
   3   -402.2466272  0.772683E-05  0.882E-03    1.26       1.0  T
   4   -402.2466364 -0.924205E-05  0.482E-03    1.26       1.4  T
   5   -402.2466385 -0.209231E-05  0.152E-03    1.26       4.3  T
   6   -402.2466390 -0.434506E-06  0.506E-04    1.26      12.9  T
   7   -402.2466390 -0.518762E-07  0.179E-04    1.26      36.4  T
     SCC iter.                  ...        0 min,  0.924 sec
     gradient                   ...        0 min,  0.224 sec
 * total energy  :  -396.6612904 Eh     change       -0.4777267E-03 Eh
   gradient norm :     0.0052621 Eh/α   predicted    -0.4367683E-03 (  -8.57%)
   displ. norm   :     0.7885109 α      lambda       -0.5664473E-03
   maximum displ.:     0.3063281 α      in ANC's #19, #5, #12, ...

........................................................................
.............................. CYCLE   34 ..............................
........................................................................
   1   -402.2513066 -0.402251E+03  0.639E-02    1.26       0.0  T
   2   -402.2513177 -0.110485E-04  0.334E-02    1.26       1.0  T
   3   -402.2513050  0.126308E-04  0.977E-03    1.26       1.0  T
   4   -402.2513196 -0.145455E-04  0.472E-03    1.26       1.4  T
   5   -402.2513213 -0.168950E-05  0.171E-03    1.26       3.8  T
   6   -402.2513218 -0.581108E-06  0.531E-04    1.26      12.3  T
   7   -402.2513219 -0.556917E-07  0.204E-04    1.26      32.0  T
     SCC iter.                  ...        0 min,  0.910 sec
     gradient                   ...        0 min,  0.227 sec
 * total energy  :  -396.6617399 Eh     change       -0.4494945E-03 Eh
   gradient norm :     0.0076356 Eh/α   predicted    -0.4593187E-03 (   2.19%)
   displ. norm   :     0.8312760 α      lambda       -0.5482104E-03
   maximum displ.:     0.3307627 α      in ANC's #19, #5, #12, ...

........................................................................
.............................. CYCLE   35 ..............................
........................................................................
   1   -402.2408050 -0.402241E+03  0.668E-02    1.26       0.0  T
   2   -402.2408180 -0.130501E-04  0.338E-02    1.26       1.0  T
   3   -402.2408121  0.589847E-05  0.862E-03    1.26       1.0  T
   4   -402.2408190 -0.689924E-05  0.487E-03    1.26       1.3  T
   5   -402.2408213 -0.233028E-05  0.146E-03    1.26       4.5  T
   6   -402.2408217 -0.369261E-06  0.542E-04    1.26      12.0  T
   7   -402.2408218 -0.608812E-07  0.179E-04    1.26      36.5  T
     SCC iter.                  ...        0 min,  0.916 sec
     gradient                   ...        0 min,  0.224 sec
 * total energy  :  -396.6621946 Eh     change       -0.4547896E-03 Eh
   gradient norm :     0.0070691 Eh/α   predicted    -0.4635174E-03 (   1.92%)
   displ. norm   :     0.7267933 α      lambda       -0.4634195E-03
   maximum displ.:     0.2789291 α      in ANC's #19, #5, #12, ...

........................................................................
.............................. CYCLE   36 ..............................
........................................................................
   1   -402.2368890 -0.402237E+03  0.559E-02    1.26       0.0  T
   2   -402.2368967 -0.766320E-05  0.291E-02    1.26       1.0  T
   3   -402.2368904  0.626337E-05  0.767E-03    1.26       1.0  T
   4   -402.2368972 -0.678945E-05  0.413E-03    1.26       1.6  T
   5   -402.2368989 -0.172449E-05  0.122E-03    1.26       5.3  T
   6   -402.2368992 -0.298038E-06  0.412E-04    1.26      15.8  T
   7   -402.2368993 -0.330742E-07  0.153E-04    1.26      42.6  T
     SCC iter.                  ...        0 min,  1.082 sec
     gradient                   ...        0 min,  0.199 sec
 * total energy  :  -396.6626056 Eh     change       -0.4109222E-03 Eh
   gradient norm :     0.0065007 Eh/α   predicted    -0.3541095E-03 ( -13.83%)
   displ. norm   :     0.6969620 α      lambda       -0.5140548E-03
   maximum displ.:     0.2555982 α      in ANC's #5, #19, #12, ...

........................................................................
.............................. CYCLE   37 ..............................
........................................................................
   1   -402.2386203 -0.402239E+03  0.529E-02    1.26       0.0  T
   2   -402.2386265 -0.621110E-05  0.285E-02    1.26       1.0  T
   3   -402.2386182  0.833368E-05  0.777E-03    1.26       1.0  T
   4   -402.2386270 -0.875035E-05  0.394E-03    1.26       1.7  T
   5   -402.2386286 -0.165268E-05  0.128E-03    1.26       5.1  T
   6   -402.2386289 -0.332520E-06  0.396E-04    1.26      16.4  T
   7   -402.2386290 -0.273216E-07  0.172E-04    1.26      37.8  T
     SCC iter.                  ...        0 min,  1.199 sec
     gradient                   ...        0 min,  0.214 sec
 * total energy  :  -396.6630301 Eh     change       -0.4245664E-03 Eh
   gradient norm :     0.0053261 Eh/α   predicted    -0.3818808E-03 ( -10.05%)
   displ. norm   :     0.7945717 α      lambda       -0.4292869E-03
   maximum displ.:     0.2980904 α      in ANC's #5, #19, #3, ...

........................................................................
.............................. CYCLE   38 ..............................
........................................................................
   1   -402.2375464 -0.402238E+03  0.572E-02    1.26       0.0  T
   2   -402.2375539 -0.750657E-05  0.301E-02    1.26       1.0  T
   3   -402.2375491  0.473925E-05  0.725E-03    1.26       1.0  T
   4   -402.2375536 -0.441145E-05  0.428E-03    1.26       1.5  T
   5   -402.2375558 -0.228705E-05  0.129E-03    1.26       5.0  T
   6   -402.2375562 -0.326968E-06  0.406E-04    1.26      16.0  T
   7   -402.2375562 -0.281269E-07  0.169E-04    1.26      38.6  T
     SCC iter.                  ...        0 min,  1.864 sec
     gradient                   ...        0 min,  0.201 sec
 * total energy  :  -396.6634160 Eh     change       -0.3858588E-03 Eh
   gradient norm :     0.0054436 Eh/α   predicted    -0.3501621E-03 (  -9.25%)
   displ. norm   :     0.7553851 α      lambda       -0.4417527E-03
   maximum displ.:     0.2970631 α      in ANC's #5, #19, #3, ...

........................................................................
.............................. CYCLE   39 ..............................
........................................................................
   1   -402.2419121 -0.402242E+03  0.507E-02    1.26       0.0  T
   2   -402.2419177 -0.559008E-05  0.273E-02    1.26       1.0  T
   3   -402.2419110  0.672979E-05  0.731E-03    1.26       1.0  T
   4   -402.2419179 -0.694866E-05  0.380E-03    1.26       1.7  T
   5   -402.2419194 -0.147828E-05  0.137E-03    1.26       4.8  T
   6   -402.2419198 -0.374086E-06  0.368E-04    1.26      17.7  T
   7   -402.2419198 -0.195926E-07  0.176E-04    1.26      37.1  T
     SCC iter.                  ...        0 min,  0.921 sec
     gradient                   ...        0 min,  0.220 sec
 * total energy  :  -396.6637931 Eh     change       -0.3771512E-03 Eh
   gradient norm :     0.0043433 Eh/α   predicted    -0.3469099E-03 (  -8.02%)
   displ. norm   :     0.8311623 α      lambda       -0.4165317E-03
   maximum displ.:     0.3267182 α      in ANC's #5, #19, #3, ...

........................................................................
.............................. CYCLE   40 ..............................
........................................................................
   1   -402.2403457 -0.402240E+03  0.571E-02    1.26       0.0  T
   2   -402.2403541 -0.835959E-05  0.299E-02    1.26       1.0  T
   3   -402.2403474  0.666331E-05  0.784E-03    1.26       1.0  T
   4   -402.2403543 -0.693655E-05  0.433E-03    1.26       1.5  T
   5   -402.2403564 -0.204785E-05  0.138E-03    1.26       4.7  T
   6   -402.2403567 -0.365798E-06  0.443E-04    1.26      14.7  T
   7   -402.2403568 -0.366164E-07  0.175E-04    1.26      37.1  T
     SCC iter.                  ...        0 min,  1.209 sec
     gradient                   ...        0 min,  0.198 sec
 * total energy  :  -396.6641517 Eh     change       -0.3585218E-03 Eh
   gradient norm :     0.0050374 Eh/α   predicted    -0.3521451E-03 (  -1.78%)
   displ. norm   :     0.7489661 α      lambda       -0.4093829E-03
   maximum displ.:     0.3099071 α      in ANC's #5, #3, #19, ...

........................................................................
.............................. CYCLE   41 ..............................
........................................................................
   1   -402.2437043 -0.402244E+03  0.475E-02    1.26       0.0  T
   2   -402.2437099 -0.566937E-05  0.252E-02    1.26       1.0  T
   3   -402.2437033  0.662212E-05  0.705E-03    1.26       1.0  T
   4   -402.2437105 -0.715501E-05  0.356E-03    1.26       1.8  T
   5   -402.2437117 -0.126001E-05  0.121E-03    1.26       5.4  T
   6   -402.2437120 -0.265629E-06  0.403E-04    1.26      16.2  T
   7   -402.2437120 -0.305268E-07  0.164E-04    1.26      39.7  T
     SCC iter.                  ...        0 min,  0.991 sec
     gradient                   ...        0 min,  0.184 sec
 * total energy  :  -396.6644945 Eh     change       -0.3428554E-03 Eh
   gradient norm :     0.0057069 Eh/α   predicted    -0.3195154E-03 (  -6.81%)
   displ. norm   :     0.7646309 α      lambda       -0.3739910E-03
   maximum displ.:     0.3243784 α      in ANC's #5, #3, #12, ...

........................................................................
.............................. CYCLE   42 ..............................
........................................................................
   1   -402.2451298 -0.402245E+03  0.471E-02    1.26       0.0  T
   2   -402.2451353 -0.551401E-05  0.249E-02    1.26       1.0  T
   3   -402.2451309  0.439080E-05  0.635E-03    1.26       1.0  T
   4   -402.2451355 -0.457348E-05  0.348E-03    1.26       1.9  T
   5   -402.2451369 -0.137263E-05  0.108E-03    1.26       6.0  T
   6   -402.2451371 -0.210925E-06  0.372E-04    1.26      17.5  T
   7   -402.2451371 -0.261526E-07  0.145E-04    1.26      44.8  T
     SCC iter.                  ...        0 min,  0.387 sec
     gradient                   ...        0 min,  0.184 sec
 * total energy  :  -396.6648244 Eh     change       -0.3298569E-03 Eh
   gradient norm :     0.0062473 Eh/α   predicted    -0.2963288E-03 ( -10.16%)
   displ. norm   :     0.7747640 α      lambda       -0.3864192E-03
   maximum displ.:     0.3332424 α      in ANC's #5, #3, #12, ...
 * RMSD in coord.:     0.8960933 α      energy gain  -0.9157150E-02 Eh

generating ANC from model Hessian ...
Using Lindh-Hessian (1995)
 Shifting diagonal of input Hessian by   1.000513424754530E-002
 Lowest  eigenvalues of input Hessian
    0.010000    0.000000    0.000000    0.000000    0.000000    0.000000
    0.000000    0.010008    0.010010    0.010013    0.010023    0.010025
    0.010034    0.010054    0.010057    0.010071    0.010081    0.010086
 Highest eigenvalues
    2.094951    2.097906    2.104844    2.110258    2.112267    2.113176
 

........................................................................
.............................. CYCLE   43 ..............................
........................................................................
   1   -402.2439134 -0.402244E+03  0.483E-02    1.26       0.0  T
   2   -402.2439196 -0.626786E-05  0.252E-02    1.26       1.0  T
   3   -402.2439136  0.605561E-05  0.708E-03    1.26       1.0  T
   4   -402.2439205 -0.688238E-05  0.358E-03    1.26       1.8  T
   5   -402.2439216 -0.110060E-05  0.120E-03    1.26       5.4  T
   6   -402.2439218 -0.278223E-06  0.379E-04    1.26      17.2  T
   7   -402.2439219 -0.266332E-07  0.144E-04    1.26      45.3  T
     SCC iter.                  ...        0 min,  0.388 sec
     gradient                   ...        0 min,  0.184 sec
 * total energy  :  -396.6651717 Eh     change       -0.3472823E-03 Eh
   gradient norm :     0.0049613 Eh/α   predicted     0.0000000E+00 (-100.00%)
   displ. norm   :     0.0662913 α      lambda       -0.7784920E-04
   maximum displ.:     0.0232852 α      in ANC's #5, #24, #39, ...

........................................................................
.............................. CYCLE   44 ..............................
........................................................................
   1   -402.2456262 -0.402246E+03  0.782E-03    1.26       0.0  T
   2   -402.2456265 -0.301874E-06  0.426E-03    1.26       1.5  T
   3   -402.2456259  0.578060E-06  0.177E-03    1.26       3.7  T
   4   -402.2456266 -0.674208E-06  0.649E-04    1.26      10.0  T
   5   -402.2456266 -0.406333E-07  0.286E-04    1.26      22.8  T
     SCC iter.                  ...        0 min,  0.280 sec
     gradient                   ...        0 min,  0.184 sec
 * total energy  :  -396.6652430 Eh     change       -0.7132145E-04 Eh
   gradient norm :     0.0027290 Eh/α   predicted    -0.4188826E-04 ( -41.27%)
   displ. norm   :     0.2543413 α      lambda       -0.2133883E-03
   maximum displ.:     0.0901801 α      in ANC's #5, #24, #39, ...

........................................................................
.............................. CYCLE   45 ..............................
........................................................................
   1   -402.2475253 -0.402248E+03  0.258E-02    1.26       0.0  T
   2   -402.2475281 -0.282471E-05  0.137E-02    1.26       1.0  T
   3   -402.2475233  0.475534E-05  0.522E-03    1.26       1.2  T
   4   -402.2475289 -0.559756E-05  0.206E-03    1.26       3.2  T
   5   -402.2475293 -0.337344E-06  0.888E-04    1.26       7.3  T
   6   -402.2475294 -0.101012E-06  0.278E-04    1.26      23.4  T
     SCC iter.                  ...        0 min,  0.332 sec
     gradient                   ...        0 min,  0.184 sec
 * total energy  :  -396.6653904 Eh     change       -0.1474018E-03 Eh
   gradient norm :     0.0035406 Eh/α   predicted    -0.1135974E-03 ( -22.93%)
   displ. norm   :     0.2569564 α      lambda       -0.1251872E-03
   maximum displ.:     0.0949886 α      in ANC's #5, #24, #39, ...

........................................................................
.............................. CYCLE   46 ..............................
........................................................................
   1   -402.2472146 -0.402247E+03  0.239E-02    1.26       0.0  T
   2   -402.2472166 -0.194583E-05  0.123E-02    1.26       1.0  T
   3   -402.2472143  0.223855E-05  0.388E-03    1.26       1.7  T
   4   -402.2472170 -0.262574E-05  0.183E-03    1.26       3.6  T
   5   -402.2472172 -0.273503E-06  0.718E-04    1.26       9.1  T
   6   -402.2472173 -0.769040E-07  0.201E-04    1.26      32.4  T
     SCC iter.                  ...        0 min,  0.330 sec
     gradient                   ...        0 min,  0.184 sec
 * total energy  :  -396.6654940 Eh     change       -0.1036641E-03 Eh
   gradient norm :     0.0058153 Eh/α   predicted    -0.6693735E-04 ( -35.43%)
   displ. norm   :     0.4293341 α      lambda       -0.2034832E-03
   maximum displ.:     0.1610959 α      in ANC's #5, #24, #39, ...

........................................................................
.............................. CYCLE   47 ..............................
........................................................................
   1   -402.2455933 -0.402246E+03  0.379E-02    1.27       0.0  T
   2   -402.2455980 -0.470194E-05  0.192E-02    1.27       1.0  T
   3   -402.2455946  0.339967E-05  0.538E-03    1.27       1.2  T
   4   -402.2455986 -0.396248E-05  0.284E-03    1.27       2.3  T
   5   -402.2455993 -0.760184E-06  0.106E-03    1.27       6.1  T
   6   -402.2455995 -0.191487E-06  0.297E-04    1.27      21.9  T
   7   -402.2455996 -0.153265E-07  0.106E-04    1.27      61.3  T
     SCC iter.                  ...        0 min,  0.386 sec
     gradient                   ...        0 min,  0.193 sec
 * total energy  :  -396.6656659 Eh     change       -0.1718747E-03 Eh
   gradient norm :     0.0067853 Eh/α   predicted    -0.1204972E-03 ( -29.89%)
   displ. norm   :     0.5408887 α      lambda       -0.2597204E-03
   maximum displ.:     0.2090753 α      in ANC's #5, #24, #12, ...

........................................................................
.............................. CYCLE   48 ..............................
........................................................................
   1   -402.2435896 -0.402244E+03  0.458E-02    1.27       0.0  T
   2   -402.2435966 -0.706245E-05  0.230E-02    1.27       1.0  T
   3   -402.2435920  0.464614E-05  0.642E-03    1.27       1.0  T
   4   -402.2435974 -0.544859E-05  0.344E-03    1.27       1.9  T
   5   -402.2435985 -0.108845E-05  0.132E-03    1.27       4.9  T
   6   -402.2435988 -0.328789E-06  0.373E-04    1.27      17.4  T
   7   -402.2435989 -0.262727E-07  0.124E-04    1.27      52.6  T
     SCC iter.                  ...        0 min,  0.388 sec
     gradient                   ...        0 min,  0.184 sec
 * total energy  :  -396.6658777 Eh     change       -0.2117412E-03 Eh
   gradient norm :     0.0061615 Eh/α   predicted    -0.1678579E-03 ( -20.72%)
   displ. norm   :     0.5062378 α      lambda       -0.2581608E-03
   maximum displ.:     0.2059746 α      in ANC's #5, #24, #12, ...

........................................................................
.............................. CYCLE   49 ..............................
........................................................................
   1   -402.2434345 -0.402243E+03  0.402E-02    1.27       0.0  T
   2   -402.2434402 -0.576313E-05  0.202E-02    1.27       1.0  T
   3   -402.2434352  0.501176E-05  0.618E-03    1.27       1.1  T
   4   -402.2434411 -0.592755E-05  0.312E-03    1.27       2.1  T
   5   -402.2434419 -0.773422E-06  0.128E-03    1.27       5.1  T
   6   -402.2434422 -0.320380E-06  0.347E-04    1.27      18.8  T
   7   -402.2434423 -0.228255E-07  0.122E-04    1.27      53.3  T
     SCC iter.                  ...        0 min,  0.396 sec
     gradient                   ...        0 min,  0.184 sec
 * total energy  :  -396.6660851 Eh     change       -0.2074882E-03 Eh
   gradient norm :     0.0050913 Eh/α   predicted    -0.1621724E-03 ( -21.84%)
   displ. norm   :     0.4671555 α      lambda       -0.2638172E-03
   maximum displ.:     0.2011411 α      in ANC's #5, #24, #12, ...

........................................................................
.............................. CYCLE   50 ..............................
........................................................................
   1   -402.2459588 -0.402246E+03  0.342E-02    1.26       0.0  T
   2   -402.2459631 -0.430448E-05  0.174E-02    1.27       1.0  T
   3   -402.2459586  0.449843E-05  0.567E-03    1.26       1.1  T
   4   -402.2459639 -0.524803E-05  0.277E-03    1.26       2.4  T
   5   -402.2459645 -0.599350E-06  0.115E-03    1.26       5.7  T
   6   -402.2459647 -0.255910E-06  0.308E-04    1.26      21.1  T
   7   -402.2459647 -0.178864E-07  0.116E-04    1.26      56.1  T
     SCC iter.                  ...        0 min,  0.479 sec
     gradient                   ...        0 min,  0.185 sec
 * total energy  :  -396.6662938 Eh     change       -0.2086752E-03 Eh
   gradient norm :     0.0053804 Eh/α   predicted    -0.1606959E-03 ( -22.99%)
   displ. norm   :     0.5303226 α      lambda       -0.2515972E-03
   maximum displ.:     0.2330018 α      in ANC's #5, #24, #3, ...

........................................................................
.............................. CYCLE   51 ..............................
........................................................................
   1   -402.2479963 -0.402248E+03  0.371E-02    1.26       0.0  T
   2   -402.2480008 -0.458040E-05  0.187E-02    1.26       1.0  T
   3   -402.2479981  0.275516E-05  0.520E-03    1.26       1.3  T
   4   -402.2480011 -0.303965E-05  0.295E-03    1.26       2.2  T
   5   -402.2480020 -0.863234E-06  0.107E-03    1.26       6.1  T
   6   -402.2480022 -0.225483E-06  0.285E-04    1.26      22.8  T
   7   -402.2480022 -0.151132E-07  0.101E-04    1.26      64.7  T
     SCC iter.                  ...        0 min,  0.386 sec
     gradient                   ...        0 min,  0.184 sec
 * total energy  :  -396.6665083 Eh     change       -0.2145266E-03 Eh
   gradient norm :     0.0066924 Eh/α   predicted    -0.1611807E-03 ( -24.87%)
   displ. norm   :     0.5751810 α      lambda       -0.3160221E-03
   maximum displ.:     0.2608800 α      in ANC's #5, #24, #3, ...

........................................................................
.............................. CYCLE   52 ..............................
........................................................................
   1   -402.2509998 -0.402251E+03  0.379E-02    1.26       0.0  T
   2   -402.2510044 -0.461435E-05  0.191E-02    1.26       1.0  T
   3   -402.2510016  0.273679E-05  0.528E-03    1.26       1.2  T
   4   -402.2510047 -0.302489E-05  0.302E-03    1.26       2.2  T
   5   -402.2510056 -0.910204E-06  0.105E-03    1.26       6.2  T
   6   -402.2510058 -0.199968E-06  0.284E-04    1.26      22.9  T
   7   -402.2510058 -0.123697E-07  0.119E-04    1.26      54.9  T
     SCC iter.                  ...        0 min,  0.476 sec
     gradient                   ...        0 min,  0.183 sec
 * total energy  :  -396.6667717 Eh     change       -0.2633881E-03 Eh
   gradient norm :     0.0064651 Eh/α   predicted    -0.2103006E-03 ( -20.16%)
   displ. norm   :     0.7204070 α      lambda       -0.3408594E-03
   maximum displ.:     0.3245736 α      in ANC's #5, #24, #3, ...

........................................................................
.............................. CYCLE   53 ..............................
........................................................................
   1   -402.2492052 -0.402249E+03  0.505E-02    1.27       0.0  T
   2   -402.2492139 -0.877334E-05  0.250E-02    1.27       1.0  T
   3   -402.2492094  0.454040E-05  0.678E-03    1.27       1.0  T
   4   -402.2492146 -0.518486E-05  0.394E-03    1.27       1.7  T
   5   -402.2492162 -0.164758E-05  0.128E-03    1.27       5.1  T
   6   -402.2492165 -0.266095E-06  0.398E-04    1.27      16.4  T
   7   -402.2492165 -0.264180E-07  0.151E-04    1.27      43.0  T
     SCC iter.                  ...        0 min,  0.386 sec
     gradient                   ...        0 min,  0.183 sec
 * total energy  :  -396.6670548 Eh     change       -0.2830434E-03 Eh
   gradient norm :     0.0055599 Eh/α   predicted    -0.2589004E-03 (  -8.53%)
   displ. norm   :     0.6125786 α      lambda       -0.3941128E-03
   maximum displ.:     0.2832263 α      in ANC's #5, #3, #24, ...

........................................................................
.............................. CYCLE   54 ..............................
........................................................................
   1   -402.2503167 -0.402250E+03  0.429E-02    1.27       0.0  T
   2   -402.2503235 -0.681932E-05  0.222E-02    1.27       1.0  T
   3   -402.2503132  0.103465E-04  0.794E-03    1.27       1.0  T
   4   -402.2503252 -0.120576E-04  0.351E-03    1.27       1.9  T
   5   -402.2503262 -0.100068E-05  0.133E-03    1.27       4.9  T
   6   -402.2503265 -0.264086E-06  0.440E-04    1.27      14.8  T
   7   -402.2503265 -0.324488E-07  0.192E-04    1.27      33.9  T
     SCC iter.                  ...        0 min,  0.385 sec
     gradient                   ...        0 min,  0.196 sec
 * total energy  :  -396.6673223 Eh     change       -0.2675059E-03 Eh
   gradient norm :     0.0050754 Eh/α   predicted    -0.2710180E-03 (   1.31%)
   displ. norm   :     0.7180580 α      lambda       -0.2931908E-03
   maximum displ.:     0.3311960 α      in ANC's #5, #24, #3, ...

........................................................................
.............................. CYCLE   55 ..............................
........................................................................
   1   -402.2457525 -0.402246E+03  0.516E-02    1.27       0.0  T
   2   -402.2457613 -0.887364E-05  0.251E-02    1.27       1.0  T
   3   -402.2457592  0.210910E-05  0.602E-03    1.27       1.1  T
   4   -402.2457620 -0.273628E-05  0.369E-03    1.27       1.8  T
   5   -402.2457634 -0.138725E-05  0.124E-03    1.27       5.2  T
   6   -402.2457637 -0.289916E-06  0.396E-04    1.27      16.5  T
   7   -402.2457637 -0.280837E-07  0.145E-04    1.27      44.8  T
     SCC iter.                  ...        0 min,  0.384 sec
     gradient                   ...        0 min,  0.183 sec
 * total energy  :  -396.6675607 Eh     change       -0.2384219E-03 Eh
   gradient norm :     0.0060513 Eh/α   predicted    -0.2221828E-03 (  -6.81%)
   displ. norm   :     0.5918269 α      lambda       -0.3007052E-03
   maximum displ.:     0.2803224 α      in ANC's #5, #3, #24, ...

........................................................................
.............................. CYCLE   56 ..............................
........................................................................
   1   -402.2440015 -0.402244E+03  0.432E-02    1.27       0.0  T
   2   -402.2440071 -0.559140E-05  0.212E-02    1.27       1.0  T
   3   -402.2440049  0.222973E-05  0.552E-03    1.27       1.2  T
   4   -402.2440079 -0.304182E-05  0.305E-03    1.27       2.1  T
   5   -402.2440085 -0.591835E-06  0.110E-03    1.27       5.9  T
   6   -402.2440088 -0.270578E-06  0.295E-04    1.27      22.1  T
   7   -402.2440088 -0.144267E-07  0.125E-04    1.27      51.9  T
     SCC iter.                  ...        0 min,  0.416 sec
     gradient                   ...        0 min,  0.183 sec
 * total energy  :  -396.6678224 Eh     change       -0.2616611E-03 Eh
   gradient norm :     0.0059205 Eh/α   predicted    -0.2030168E-03 ( -22.41%)
   displ. norm   :     0.5879386 α      lambda       -0.3908485E-03
   maximum displ.:     0.2765999 α      in ANC's #5, #3, #24, ...

........................................................................
.............................. CYCLE   57 ..............................
........................................................................
   1   -402.2460873 -0.402246E+03  0.461E-02    1.27       0.0  T
   2   -402.2460934 -0.610173E-05  0.234E-02    1.27       1.0  T
   3   -402.2460871  0.626578E-05  0.730E-03    1.27       1.0  T
   4   -402.2460948 -0.768684E-05  0.343E-03    1.27       1.9  T
   5   -402.2460954 -0.577558E-06  0.140E-03    1.27       4.6  T
   6   -402.2460958 -0.426694E-06  0.348E-04    1.27      18.7  T
   7   -402.2460958 -0.196666E-07  0.156E-04    1.27      41.9  T
     SCC iter.                  ...        0 min,  0.388 sec
     gradient                   ...        0 min,  0.183 sec
 * total energy  :  -396.6681191 Eh     change       -0.2967488E-03 Eh
   gradient norm :     0.0049661 Eh/α   predicted    -0.2629780E-03 ( -11.38%)
   displ. norm   :     0.7569228 α      lambda       -0.3091576E-03
   maximum displ.:     0.3634197 α      in ANC's #5, #3, #24, ...

........................................................................
.............................. CYCLE   58 ..............................
........................................................................
   1   -402.2453160 -0.402245E+03  0.545E-02    1.27       0.0  T
   2   -402.2453245 -0.842652E-05  0.267E-02    1.27       1.0  T
   3   -402.2453225  0.191687E-05  0.631E-03    1.27       1.0  T
   4   -402.2453251 -0.253607E-05  0.381E-03    1.27       1.7  T
   5   -402.2453264 -0.134578E-05  0.118E-03    1.27       5.5  T
   6   -402.2453267 -0.293479E-06  0.372E-04    1.27      17.5  T
   7   -402.2453267 -0.244468E-07  0.157E-04    1.27      41.4  T
     SCC iter.                  ...        0 min,  0.621 sec
     gradient                   ...        0 min,  0.202 sec
 * total energy  :  -396.6683919 Eh     change       -0.2727896E-03 Eh
   gradient norm :     0.0052212 Eh/α   predicted    -0.2431431E-03 ( -10.87%)
   displ. norm   :     0.7123647 α      lambda       -0.3405719E-03
   maximum displ.:     0.3451459 α      in ANC's #5, #3, #7, ...

........................................................................
.............................. CYCLE   59 ..............................
........................................................................
   1   -402.2481553 -0.402248E+03  0.499E-02    1.27       0.0  T
   2   -402.2481619 -0.658703E-05  0.249E-02    1.27       1.0  T
   3   -402.2481586  0.327684E-05  0.637E-03    1.27       1.0  T
   4   -402.2481624 -0.378186E-05  0.373E-03    1.27       1.7  T
   5   -402.2481637 -0.129988E-05  0.107E-03    1.27       6.1  T
   6   -402.2481639 -0.232652E-06  0.326E-04    1.27      20.0  T
   7   -402.2481640 -0.172597E-07  0.153E-04    1.27      42.4  T
     SCC iter.                  ...        0 min,  0.389 sec
     gradient                   ...        0 min,  0.194 sec
 * total energy  :  -396.6686863 Eh     change       -0.2943649E-03 Eh
   gradient norm :     0.0042713 Eh/α   predicted    -0.2567012E-03 ( -12.79%)
   displ. norm   :     0.7573683 α      lambda       -0.3286336E-03
   maximum displ.:     0.3710505 α      in ANC's #5, #3, #7, ...

........................................................................
.............................. CYCLE   60 ..............................
........................................................................
   1   -402.2493428 -0.402249E+03  0.509E-02    1.27       0.0  T
   2   -402.2493495 -0.671103E-05  0.251E-02    1.27       1.0  T
   3   -402.2493472  0.236822E-05  0.621E-03    1.27       1.0  T
   4   -402.2493499 -0.272853E-05  0.380E-03    1.27       1.7  T
   5   -402.2493512 -0.135413E-05  0.107E-03    1.27       6.1  T
   6   -402.2493515 -0.236469E-06  0.309E-04    1.27      21.0  T
   7   -402.2493515 -0.137505E-07  0.151E-04    1.27      43.1  T
     SCC iter.                  ...        0 min,  0.380 sec
     gradient                   ...        0 min,  0.183 sec
 * total energy  :  -396.6689795 Eh     change       -0.2932466E-03 Eh
   gradient norm :     0.0045139 Eh/α   predicted    -0.2585743E-03 ( -11.82%)
   displ. norm   :     0.7448917 α      lambda       -0.3321716E-03
   maximum displ.:     0.3689609 α      in ANC's #5, #3, #7, ...

........................................................................
.............................. CYCLE   61 ..............................
........................................................................
   1   -402.2515705 -0.402252E+03  0.489E-02    1.27       0.0  T
   2   -402.2515766 -0.609948E-05  0.242E-02    1.27       1.0  T
[...]
 ---------------------------------------------------------------------------

Topologies differ in bond orders
Writing corrected topology to xtbtopo.mol

molecular dipole:
                 x           y           z       tot (Debye)
 q only:        2.070       0.266       1.802
   full:        2.038       0.079       2.581       8.360
molecular quadrupole (traceless):
                xx          xy          yy          xz          yz          zz
 q only:      -51.117     -34.998      49.489      28.711     -10.445       1.629
  q+dip:      -46.440     -33.878      58.960      18.878     -10.260     -12.520
   full:      -41.733     -33.670      48.862      16.259     -13.320      -7.129

           -------------------------------------------------
          |                Geometry Summary                 |
           -------------------------------------------------

      molecular mass/u    :     2237.1414564
   center of mass at/Å    :       -0.1249218      -0.2510705      -0.2195073
  moments of inertia/u·Å² :        0.7841661E+05   0.2945569E+06   0.3124721E+06
rotational constants/cm⁻¹ :        0.2149753E-03   0.5723048E-04   0.5394924E-04

 * 228 selected distances

     #   Z          #   Z                                           value/Å
     1   6 C        2   6 C                                       1.3478480
     2   6 C        3   6 C                                       1.4272284
     3   6 C        4   6 C                                       1.4030171
     5   6 C        6   6 C                                       1.3944089
     6   6 C        7   6 C                                       1.3777233
     7   6 C        8   6 C                                       1.3943392
    10   6 C       11   6 C                                       1.5152667
     8   6 C       12   6 C                                       1.3913792
     5   6 C       14   6 C                                       1.3900895
    12   6 C       14   6 C                                       1.3805466
     4   6 C       15   6 C                                       1.3869102
    15   6 C       16   6 C                                       1.4172731
    16   6 C       17   6 C                                       1.4041073
    18   6 C       19   6 C                                       1.3935384
    19   6 C       20   6 C                                       1.3784971
    20   6 C       21   6 C                                       1.3928771
    23   6 C       24   6 C                                       1.5153250
    21   6 C       25   6 C                                       1.3912553
    18   6 C       26   6 C                                       1.3913753
    25   6 C       26   6 C                                       1.3800221
     3   6 C       28   6 C                                       1.4148660
    17   6 C       28   6 C                                       1.3876828
     1   6 C       29  16 S                                       1.7314367
    28   6 C       29  16 S                                       1.7456655
    16   6 C       30   6 C                                       1.4175224
    30   6 C       31   6 C                                       1.3658849
    15   6 C       32  16 S                                       1.7440741
    31   6 C       32  16 S                                       1.7529733
    31   6 C       33   6 C                                       1.4240709
    33   6 C       34  16 S                                       1.7433121
    34  16 S       35   6 C                                       1.7256521
    35   6 C       36   6 C                                       1.4136747
    36   6 C       37   6 C                                       1.3885955
    37   6 C       38   8 O                                       1.3462928
    38   8 O       39   6 C                                       1.4453737
    39   6 C       40   6 C                                       1.5349621
    40   6 C       41   6 C                                       1.5241520
    42   6 C       43   6 C                                       1.5217164
    35   6 C       44   6 C                                       1.3845608
    33   6 C       45   6 C                                       1.3796962
    44   6 C       45   6 C                                       1.3977866
    37   6 C       46   6 C                                       1.4021665
    46   6 C       47   6 C                                       1.3772382
    36   6 C       48  16 S                                       1.7262136
    47   6 C       48  16 S                                       1.7416182
    47   6 C       49   6 C                                       1.4268112
    49   6 C       50   6 C                                       1.3652676
    50   6 C       51   6 C                                       1.4165564
    51   6 C       52   6 C                                       1.4028375
    53   6 C       54   6 C                                       1.3914726
    54   6 C       55   6 C                                       1.3814642
    55   6 C       56   6 C                                       1.3902226
    58   6 C       59   6 C                                       1.5165285
    56   6 C       60   6 C                                       1.3952707
    53   6 C       62   6 C                                       1.3926197
    60   6 C       62   6 C                                       1.3772430
    52   6 C       63   6 C                                       1.3847359
    63   6 C       64   6 C                                       1.4172296
    64   6 C       65   6 C                                       1.4046892
    66   6 C       67   6 C                                       1.3913534
    67   6 C       68   6 C                                       1.3816330
    68   6 C       69   6 C                                       1.3901484
    71   6 C       72   6 C                                       1.5164295
    69   6 C       73   6 C                                       1.3956315
    66   6 C       74   6 C                                       1.3928298
    73   6 C       74   6 C                                       1.3768440
    51   6 C       76   6 C                                       1.4174763
    65   6 C       76   6 C                                       1.3868512
    49   6 C       77  16 S                                       1.7530271
    76   6 C       77  16 S                                       1.7447301
    64   6 C       78   6 C                                       1.4196229
    78   6 C       79   6 C                                       1.3652736
    63   6 C       80  16 S                                       1.7409424
    79   6 C       80  16 S                                       1.7541814
    79   6 C       81   6 C                                       1.4265599
    81   6 C       82  16 S                                       1.7452643
    82  16 S       83   6 C                                       1.7217706
    83   6 C       84   6 C                                       1.4119804
    84   6 C       85   6 C                                       1.3879212
    85   6 C       86   8 O                                       1.3445545
    88   6 C       89   6 C                                       1.5222175
    87   6 C       90   6 C                                       1.5342166
    90   6 C       91   6 C                                       1.5243581
    83   6 C       92   6 C                                       1.3837714
    81   6 C       93   6 C                                       1.3779413
    92   6 C       93   6 C                                       1.4015076
    85   6 C       94   6 C                                       1.4048158
    94   6 C       95   6 C                                       1.3765304
    84   6 C       96  16 S                                       1.7257196
    95   6 C       96  16 S                                       1.7449722
    95   6 C       97   6 C                                       1.4219260
    97   6 C       98   6 C                                       1.3651868
    98   6 C       99   6 C                                       1.4138161
    99   6 C      100   6 C                                       1.4053634
   101   6 C      102   6 C                                       1.3943161
   102   6 C      103   6 C                                       1.3785794
   103   6 C      104   6 C                                       1.3922133
   106   6 C      107   6 C                                       1.5157185
   104   6 C      108   6 C                                       1.3908945
   101   6 C      110   6 C                                       1.3905367
   108   6 C      110   6 C                                       1.3805108
   100   6 C      111   6 C                                       1.3838760
   111   6 C      112   6 C                                       1.4183874
   112   6 C      113   6 C                                       1.4063611
   114   6 C      115   6 C                                       1.3911674
   115   6 C      116   6 C                                       1.3813348
   116   6 C      117   6 C                                       1.3899404
   119   6 C      120   6 C                                       1.5168301
   117   6 C      121   6 C                                       1.3962884
   114   6 C      122   6 C                                       1.3939758
   121   6 C      122   6 C                                       1.3761954
    99   6 C      124   6 C                                       1.4164222
   113   6 C      124   6 C                                       1.3864643
    97   6 C      125  16 S                                       1.7537525
   124   6 C      125  16 S                                       1.7493029
   112   6 C      126   6 C                                       1.4170530
   126   6 C      127   6 C                                       1.3647178
   111   6 C      128  16 S                                       1.7440672
   127   6 C      128  16 S                                       1.7556965 (max)
   127   6 C      129   6 C                                       1.4211740
   129   6 C      130  16 S                                       1.7454844
   130  16 S      131   6 C                                       1.7263366
   131   6 C      132   6 C                                       1.4173437
   132   6 C      133   6 C                                       1.3838724
   133   6 C      134   8 O                                       1.3462675
   134   8 O      135   6 C                                       1.4456268
   136   6 C      137   6 C                                       1.5218623
   135   6 C      138   6 C                                       1.5368447
   138   6 C      139   6 C                                       1.5239766
   131   6 C      140   6 C                                       1.3835613
   129   6 C      141   6 C                                       1.3773213
   140   6 C      141   6 C                                       1.3987195
   133   6 C      142   6 C                                       1.4124185
   142   6 C      143   6 C                                       1.3601549
   132   6 C      144  16 S                                       1.7296452
   143   6 C      144  16 S                                       1.7195321
     1   6 C      145   1 H                                       1.0724883
     2   6 C      146   1 H                                       1.0748913
     6   6 C      147   1 H                                       1.0794144
     7   6 C      148   1 H                                       1.0790589
    10   6 C      149   1 H                                       1.0901639
    10   6 C      150   1 H                                       1.0875443
    11   6 C      151   1 H                                       1.0881226
    11   6 C      152   1 H                                       1.0883464
    11   6 C      153   1 H                                       1.0881015
    14   6 C      154   1 H                                       1.0788060
    19   6 C      155   1 H                                       1.0788598
    20   6 C      156   1 H                                       1.0787323
    23   6 C      157   1 H                                       1.0876805
    23   6 C      158   1 H                                       1.0899469
    24   6 C      159   1 H                                       1.0880015
    24   6 C      160   1 H                                       1.0886912
    24   6 C      161   1 H                                       1.0881584
    26   6 C      162   1 H                                       1.0792434
    30   6 C      163   1 H                                       1.0740649
    40   6 C      164   1 H                                       1.0910049
    40   6 C      165   1 H                                       1.0889523
    41   6 C      166   1 H                                       1.0869710
    41   6 C      167   1 H                                       1.0870306
    41   6 C      168   1 H                                       1.0878774
    42   6 C      169   1 H                                       1.0921703
    42   6 C      170   1 H                                       1.0941762
    43   6 C      171   1 H                                       1.0872059
    43   6 C      172   1 H                                       1.0865871
    43   6 C      173   1 H                                       1.0874327
    45   6 C      174   1 H                                       1.0738643
    46   6 C      175   1 H                                       1.0734945
    50   6 C      176   1 H                                       1.0743852
    54   6 C      177   1 H                                       1.0797855
    55   6 C      178   1 H                                       1.0784131
    58   6 C      179   1 H                                       1.0898733
    58   6 C      180   1 H                                       1.0892507
    59   6 C      181   1 H                                       1.0884249
    59   6 C      182   1 H                                       1.0884684
    59   6 C      183   1 H                                       1.0874249
    62   6 C      184   1 H                                       1.0786231
    67   6 C      185   1 H                                       1.0797581
    68   6 C      186   1 H                                       1.0783040
    71   6 C      187   1 H                                       1.0899412
    71   6 C      188   1 H                                       1.0893706
    72   6 C      189   1 H                                       1.0881809
    72   6 C      190   1 H                                       1.0884164
    72   6 C      191   1 H                                       1.0874328
    74   6 C      192   1 H                                       1.0785491
    78   6 C      193   1 H                                       1.0746027
    88   6 C      194   1 H                                       1.0920015
    88   6 C      195   1 H                                       1.0936929
    89   6 C      196   1 H                                       1.0866641
    89   6 C      197   1 H                                       1.0871580
    89   6 C      198   1 H                                       1.0874370
    90   6 C      199   1 H                                       1.0910505
    90   6 C      200   1 H                                       1.0890522
    91   6 C      201   1 H                                       1.0869079
    91   6 C      202   1 H                                       1.0872175
    91   6 C      203   1 H                                       1.0878328
    93   6 C      204   1 H                                       1.0745614
    94   6 C      205   1 H                                       1.0743045
    98   6 C      206   1 H                                       1.0755191
   102   6 C      207   1 H                                       1.0793371
   103   6 C      208   1 H                                       1.0788695
   106   6 C      209   1 H                                       1.0877399
   106   6 C      210   1 H                                       1.0899040
   107   6 C      211   1 H                                       1.0877836
   107   6 C      212   1 H                                       1.0886805
   107   6 C      213   1 H                                       1.0882860
   110   6 C      214   1 H                                       1.0787452
   115   6 C      215   1 H                                       1.0790718
   116   6 C      216   1 H                                       1.0777563
   119   6 C      217   1 H                                       1.0900046
   119   6 C      218   1 H                                       1.0893048
   120   6 C      219   1 H                                       1.0880310
   120   6 C      220   1 H                                       1.0884006
   120   6 C      221   1 H                                       1.0874221
   122   6 C      222   1 H                                       1.0787630
   126   6 C      223   1 H                                       1.0753729
   136   6 C      224   1 H                                       1.0941245
   136   6 C      225   1 H                                       1.0909778
   137   6 C      226   1 H                                       1.0865717
   137   6 C      227   1 H                                       1.0874194
   137   6 C      228   1 H                                       1.0873715
   138   6 C      229   1 H                                       1.0924260
   138   6 C      230   1 H                                       1.0889348
   139   6 C      231   1 H                                       1.0866869
   139   6 C      232   1 H                                       1.0861645
   139   6 C      233   1 H                                       1.0874292
   141   6 C      234   1 H                                       1.0750587
   142   6 C      235   1 H                                       1.0737367
   143   6 C      236   1 H                                       1.0714094 (min)

 * 4 distinct bonds (by element types)

   Z      Z             #   av. dist./Å        max./Å        min./Å
   1 H    6 C          92     1.0845812     1.0941762     1.0714094
   6 C    6 C         107     1.4119794     1.5368447     1.3478480
   6 C    8 O           5     1.3856231     1.4456268     1.3445545
   6 C   16 S          24     1.7402238     1.7556965     1.7195321


optimized geometry written to: xtbopt.mol


           -------------------------------------------------
          | TOTAL ENERGY             -396.697801923042 Eh   |
          | GRADIENT NORM               0.000174680448 Eh/α |
          | HOMO-LUMO GAP               1.259307071750 eV   |
           -------------------------------------------------

------------------------------------------------------------------------
 * finished run on 2022/03/03 at 21:13:14.434     
------------------------------------------------------------------------
 total:
 * wall-time:     0 d,  0 h,  9 min, 17.430 sec
 *  cpu-time:     0 d,  1 h,  6 min, 29.917 sec
 * ratio c/w:     7.158 speedup
 SCF:
 * wall-time:     0 d,  0 h,  0 min,  1.995 sec
 *  cpu-time:     0 d,  0 h,  0 min, 13.933 sec
 * ratio c/w:     6.984 speedup
 ANC optimizer:
 * wall-time:     0 d,  0 h,  9 min, 15.115 sec
 *  cpu-time:     0 d,  1 h,  6 min, 14.255 sec
 * ratio c/w:     7.159 speedup

