      -----------------------------------------------------------      
     |                   =====================                   |     
     |                           x T B                           |     
     |                   =====================                   |     
     |                         S. Grimme                         |     
     |          Mulliken Center for Theoretical Chemistry        |     
     |                    University of Bonn                     |     
      -----------------------------------------------------------      

   * xtb version 6.4.1 (unknown) compiled by 'oda6@login1.crc.pitt.edu' on 2021-06-25

   xtb is free software: you can redistribute it and/or modify it under
   the terms of the GNU Lesser General Public License as published by
   the Free Software Foundation, either version 3 of the License, or
   (at your option) any later version.
   
   xtb is distributed in the hope that it will be useful,
   but WITHOUT ANY WARRANTY; without even the implied warranty of
   MERCHANTABILITY or FITNESS FOR A PARTICULAR PURPOSE.  See the
   GNU Lesser General Public License for more details.
   
   Cite this work as:
   * C. Bannwarth, E. Caldeweyher, S. Ehlert, A. Hansen, P. Pracht,
     J. Seibert, S. Spicher, S. Grimme, WIREs Comput. Mol. Sci., 2020, 11,
     e01493. DOI: 10.1002/wcms.1493
   
   for GFN2-xTB:
   * C. Bannwarth, S. Ehlert and S. Grimme., J. Chem. Theory Comput., 2019,
     15, 1652-1671. DOI: 10.1021/acs.jctc.8b01176
   for GFN1-xTB:
   * S. Grimme, C. Bannwarth, P. Shushkov, J. Chem. Theory Comput., 2017,
     13, 1989-2009. DOI: 10.1021/acs.jctc.7b00118
   for GFN0-xTB:
   * P. Pracht, E. Caldeweyher, S. Ehlert, S. Grimme, ChemRxiv, 2019, preprint.
     DOI: 10.26434/chemrxiv.8326202.v1
   for GFN-FF:
   * S. Spicher and S. Grimme, Angew. Chem. Int. Ed., 2020, 59, 15665-15673.
     DOI: 10.1002/anie.202004239
   
   for DFT-D4:
   * E. Caldeweyher, C. Bannwarth and S. Grimme, J. Chem. Phys., 2017,
     147, 034112. DOI: 10.1063/1.4993215
   * E. Caldeweyher, S. Ehlert, A. Hansen, H. Neugebauer, S. Spicher,
     C. Bannwarth and S. Grimme, J. Chem. Phys., 2019, 150, 154122.
     DOI: 10.1063/1.5090222
   * E. Caldeweyher, J.-M. Mewes, S. Ehlert and S. Grimme, Phys. Chem. Chem. Phys.
     2020, 22, 8499-8512. DOI: 10.1039/D0CP00502A
   
   for sTDA-xTB:
   * S. Grimme and C. Bannwarth, J. Chem. Phys., 2016, 145, 054103.
     DOI: 10.1063/1.4959605
   
   in the mass-spec context:
   * V. Asgeirsson, C. Bauer and S. Grimme, Chem. Sci., 2017, 8, 4879.
     DOI: 10.1039/c7sc00601b
   * J. Koopman and S. Grimme, ACS Omega 2019, 4, 12, 15120-15133.
     DOI: 10.1021/acsomega.9b02011
   
   for metadynamics refer to:
   * S. Grimme, J. Chem. Theory Comput., 2019, 155, 2847-2862
     DOI: 10.1021/acs.jctc.9b00143
   
   for SPH calculations refer to:
   * S. Spicher and S. Grimme, J. Chem. Theory Comput., 2021, 17, 1701-1714
     DOI: 10.1021/acs.jctc.0c01306
   
   with help from (in alphabetical order)
   P. Atkinson, C. Bannwarth, F. Bohle, G. Brandenburg, E. Caldeweyher
   M. Checinski, S. Dohm, S. Ehlert, S. Ehrlich, I. Gerasimov, J. Koopman
   C. Lavigne, S. Lehtola, F. März, M. Müller, F. Musil, H. Neugebauer
   J. Pisarek, C. Plett, P. Pracht, J. Seibert, P. Shushkov, S. Spicher
   M. Stahn, M. Steiner, T. Strunk, J. Stückrath, T. Rose, and J. Unsleber
   
 * started run on 2022/03/02 at 05:38:08.119     

           -------------------------------------------------
          |                Calculation Setup                |
           -------------------------------------------------

          program call               : /ihome/ghutchison/oda6/xtb/xtb-641/bin/xtb ../../FF_optimized/121_791_111011.mol -opt
          hostname                   : smp-n90
          coordinate file            : ../../FF_optimized/121_791_111011.mol
          omp threads                :                     8
          number of atoms            :                    75
          number of electrons        :                   284
          charge                     :                     0
          spin                       :                   0.0
          first test random number   :      0.46416215107487

   ID    Z sym.   atoms
    1    6 C      1, 3-5, 9, 11-13, 17, 19-21, 25, 27-29, 31-39, 41, 43-45,
                  49, 51-53
    2    8 O      2, 7, 8, 10, 15, 16, 18, 23, 24, 30, 42, 47, 48, 50, 55, 56
    3    7 N      6, 14, 22, 46, 54
    4   16 S      26, 40
    5    1 H      57-75
########################################################################
[WARNING] Please study the warnings concerning your input carefully
-1- prog_main_parseArguments: the use of '-opt' is discouraged, please use '--opt' next time
########################################################################

           -------------------------------------------------
          |                 G F N 2 - x T B                 |
           -------------------------------------------------

        Reference                      10.1021/acs.jctc.8b01176
      * Hamiltonian:
        H0-scaling (s, p, d)           1.850000    2.230000    2.230000
        zeta-weighting                 0.500000
      * Dispersion:
        s8                             2.700000
        a1                             0.520000
        a2                             5.000000
        s9                             5.000000
      * Repulsion:
        kExp                           1.500000    1.000000
        rExp                           1.000000
      * Coulomb:
        alpha                          2.000000
        third order                    shell-resolved
        anisotropic                    true
        a3                             3.000000
        a5                             4.000000
        cn-shift                       1.200000
        cn-exp                         4.000000
        max-rad                        5.000000


          ...................................................
          :                      SETUP                      :
          :.................................................:
          :  # basis functions                 255          :
          :  # atomic orbitals                 253          :
          :  # shells                          133          :
          :  # electrons                       284          :
          :  max. iterations                   250          :
          :  Hamiltonian                  GFN2-xTB          :
          :  restarted?                      false          :
          :  GBSA solvation                  false          :
          :  PC potential                    false          :
          :  electronic temp.          300.0000000     K    :
          :  accuracy                    1.0000000          :
          :  -> integral cutoff          0.2500000E+02      :
          :  -> integral neglect         0.1000000E-07      :
          :  -> SCF convergence          0.1000000E-05 Eh   :
          :  -> wf. convergence          0.1000000E-03 e    :
          :  Broyden damping             0.4000000          :
          ...................................................

 iter      E             dE          RMSdq      gap      omega  full diag
   1   -166.6434880 -0.166643E+03  0.561E+00    1.86       0.0  T
   2   -167.4417431 -0.798255E+00  0.283E+00    0.96       1.0  T
   3   -167.4696589 -0.279158E-01  0.167E+00    0.98       1.0  T
   4   -167.4441838  0.254751E-01  0.121E+00    0.76       1.0  T
   5   -167.5120988 -0.679150E-01  0.198E-01    0.78       1.0  T
   6   -167.5136358 -0.153694E-02  0.908E-02    0.78       1.0  T
   7   -167.5137240 -0.881945E-04  0.395E-02    0.81       1.0  T
   8   -167.5137886 -0.646135E-04  0.173E-02    0.80       1.0  T
   9   -167.5137954 -0.678467E-05  0.928E-03    0.80       1.2  T
  10   -167.5137982 -0.281407E-05  0.390E-03    0.80       3.0  T
  11   -167.5137985 -0.380979E-06  0.157E-03    0.80       7.3  T
  12   -167.5137986 -0.853467E-07  0.730E-04    0.80      15.8  T
  13   -167.5137986 -0.135755E-07  0.377E-04    0.80      30.6  T

   *** convergence criteria satisfied after 13 iterations ***

         #    Occupation            Energy/Eh            Energy/eV
      -------------------------------------------------------------
         1        2.0000           -0.8269062             -22.5013
       ...           ...                  ...                  ...
       136        2.0000           -0.4460756             -12.1383
       137        2.0000           -0.4452000             -12.1145
       138        2.0000           -0.4438257             -12.0771
       139        2.0000           -0.4382992             -11.9267
       140        2.0000           -0.4317911             -11.7496
       141        2.0000           -0.4259658             -11.5911
       142        2.0000           -0.3979662             -10.8292 (HOMO)
       143        0.0000           -0.3685245             -10.0281 (LUMO)
       144        0.0000           -0.3679955             -10.0137
       145                         -0.3652888              -9.9400
       146                         -0.3619777              -9.8499
       147                         -0.3584932              -9.7551
       ...                                ...                  ...
       253                          0.6972457              18.9730
      -------------------------------------------------------------
                  HL-Gap            0.0294418 Eh            0.8012 eV
             Fermi-level           -0.3834708 Eh          -10.4348 eV

 SCC (total)                   0 d,  0 h,  0 min,  0.122 sec
 SCC setup                      ...        0 min,  0.000 sec (  0.304%)
 Dispersion                     ...        0 min,  0.002 sec (  1.736%)
 classical contributions        ...        0 min,  0.000 sec (  0.062%)
 integral evaluation            ...        0 min,  0.008 sec (  6.739%)
 iterations                     ...        0 min,  0.094 sec ( 77.567%)
 molecular gradient             ...        0 min,  0.016 sec ( 13.186%)
 printout                       ...        0 min,  0.000 sec (  0.355%)

         :::::::::::::::::::::::::::::::::::::::::::::::::::::
         ::                     SUMMARY                     ::
         :::::::::::::::::::::::::::::::::::::::::::::::::::::
         :: total energy            -165.903561399048 Eh    ::
         :: gradient norm              0.439372769374 Eh/a0 ::
         :: HOMO-LUMO gap              0.801151155920 eV    ::
         ::.................................................::
         :: SCC energy              -167.513798644937 Eh    ::
         :: -> isotropic ES            0.300605336882 Eh    ::
         :: -> anisotropic ES          0.037570292485 Eh    ::
         :: -> anisotropic XC          0.005884278282 Eh    ::
         :: -> dispersion             -0.100379220677 Eh    ::
         :: repulsion energy           1.611171122660 Eh    ::
         :: add. restraining           0.000000000000 Eh    ::
         :: total charge               0.000000000000 e     ::
         :::::::::::::::::::::::::::::::::::::::::::::::::::::

      ----------------------------------------------------------- 
     |                   =====================                   |
     |                        A N C O P T                        |
     |                   =====================                   |
     |               Approximate Normal Coordinate               |
     |                Rational Function Optimizer                |
      ----------------------------------------------------------- 

          ...................................................
          :                      SETUP                      :
          :.................................................:
          :   optimization level            normal          :
          :   max. optcycles                   225          :
          :   ANC micro-cycles                  20          :
          :   degrees of freedom               219          :
          :.................................................:
          :   RF solver                   davidson          :
          :   write xtbopt.log                true          :
          :   linear?                        false          :
          :   energy convergence         0.5000000E-05 Eh   :
          :   grad. convergence          0.1000000E-02 Eh/α :
          :   maximium RF displ.         1.0000000          :
          :   Hlow (freq-cutoff)         0.1000000E-01      :
          :   Hmax (freq-cutoff)         5.0000000          :
          :   S6 in model hess.         20.0000000          :
          ...................................................

generating ANC from model Hessian ...
Using Lindh-Hessian (1995)
 Shifting diagonal of input Hessian by   9.961762079091585E-003
 Lowest  eigenvalues of input Hessian
    0.000000    0.000000    0.000000    0.000000    0.000000    0.000000
    0.010000    0.010040    0.010078    0.010114    0.010350    0.010394
    0.010664    0.010855    0.011091    0.011419    0.011569    0.011691
 Highest eigenvalues
    2.183939    2.196318    2.206452    2.215954    2.247201    2.247449
 

........................................................................
.............................. CYCLE    1 ..............................
........................................................................
   1   -167.5137986 -0.167514E+03  0.155E-04    0.80       0.0  T
   2   -167.5137986 -0.299679E-09  0.114E-04    0.80     101.6  T
   3   -167.5137986 -0.575568E-09  0.612E-05    0.80     188.8  T
     SCC iter.                  ...        0 min,  0.022 sec
     gradient                   ...        0 min,  0.015 sec
 * total energy  :  -165.9035614 Eh     change       -0.3133067E-08 Eh
   gradient norm :     0.4393719 Eh/α   predicted     0.0000000E+00 (-100.00%)
   displ. norm   :     0.4134715 α      lambda       -0.1554666E+00
   maximum displ.:     0.1290768 α      in ANC's #181, #179, #144, ...

........................................................................
.............................. CYCLE    2 ..............................
........................................................................
   1   -167.6438178 -0.167644E+03  0.460E-01    1.11       0.0  T
   2   -167.6519308 -0.811304E-02  0.282E-01    1.08       1.0  T
   3   -167.6535414 -0.161055E-02  0.151E-01    1.04       1.0  T
   4   -167.6536314 -0.899874E-04  0.104E-01    1.04       1.0  T
   5   -167.6538338 -0.202459E-03  0.303E-02    1.03       1.0  T
   6   -167.6538900 -0.562126E-04  0.127E-02    1.04       1.0  T
   7   -167.6538901 -0.508624E-07  0.725E-03    1.03       1.6  T
   8   -167.6538922 -0.208717E-05  0.237E-03    1.04       4.9  T
   9   -167.6538923 -0.105496E-06  0.104E-03    1.04      11.1  T
  10   -167.6538923 -0.336810E-07  0.519E-04    1.04      22.3  T
  11   -167.6538923 -0.664897E-08  0.233E-04    1.04      49.6  T
     SCC iter.                  ...        0 min,  0.073 sec
     gradient                   ...        0 min,  0.015 sec
 * total energy  :  -166.0269190 Eh     change       -0.1233576E+00 Eh
   gradient norm :     0.2600713 Eh/α   predicted    -0.9102627E-01 ( -26.21%)
   displ. norm   :     0.4605905 α      lambda       -0.1043013E+00
   maximum displ.:     0.1497265 α      in ANC's #181, #179, #155, ...

........................................................................
.............................. CYCLE    3 ..............................
........................................................................
   1   -167.7445581 -0.167745E+03  0.612E-01    1.25       0.0  T
   2   -167.7634128 -0.188547E-01  0.397E-01    1.30       1.0  T
   3   -167.7674167 -0.400390E-02  0.196E-01    1.25       1.0  T
   4   -167.7670325  0.384257E-03  0.136E-01    1.25       1.0  T
   5   -167.7676215 -0.589068E-03  0.490E-02    1.23       1.0  T
   6   -167.7677207 -0.991574E-04  0.187E-02    1.24       1.0  T
   7   -167.7677332 -0.124687E-04  0.103E-02    1.24       1.1  T
   8   -167.7677343 -0.111747E-05  0.338E-03    1.24       3.4  T
   9   -167.7677347 -0.463802E-06  0.147E-03    1.24       7.9  T
  10   -167.7677348 -0.419354E-07  0.730E-04    1.24      15.8  T
  11   -167.7677348 -0.195236E-07  0.328E-04    1.24      35.2  T
     SCC iter.                  ...        0 min,  0.073 sec
     gradient                   ...        0 min,  0.015 sec
 * total energy  :  -166.0664068 Eh     change       -0.3948777E-01 Eh
   gradient norm :     0.1287658 Eh/α   predicted    -0.6322356E-01 (  60.11%)
   displ. norm   :     0.3270588 α      lambda       -0.2146040E-01
   maximum displ.:     0.0928981 α      in ANC's #27, #64, #43, ...

........................................................................
.............................. CYCLE    4 ..............................
........................................................................
   1   -167.7556959 -0.167756E+03  0.233E-01    1.12       0.0  T
   2   -167.7578840 -0.218814E-02  0.151E-01    1.15       1.0  T
   3   -167.7584204 -0.536429E-03  0.764E-02    1.16       1.0  T
   4   -167.7583984  0.220461E-04  0.415E-02    1.16       1.0  T
   5   -167.7584396 -0.411739E-04  0.160E-02    1.17       1.0  T
   6   -167.7584549 -0.153580E-04  0.595E-03    1.17       1.9  T
   7   -167.7584551 -0.200274E-06  0.398E-03    1.17       2.9  T
   8   -167.7584556 -0.511613E-06  0.105E-03    1.17      11.0  T
   9   -167.7584556 -0.280608E-07  0.534E-04    1.17      21.6  T
  10   -167.7584557 -0.837886E-08  0.235E-04    1.17      49.1  T
     SCC iter.                  ...        0 min,  0.067 sec
     gradient                   ...        0 min,  0.015 sec
 * total energy  :  -166.0758646 Eh     change       -0.9457830E-02 Eh
   gradient norm :     0.0361279 Eh/α   predicted    -0.1187801E-01 (  25.59%)
   displ. norm   :     0.3475463 α      lambda       -0.5379434E-02
   maximum displ.:     0.1088363 α      in ANC's #27, #25, #40, ...

........................................................................
.............................. CYCLE    5 ..............................
........................................................................
   1   -167.7742483 -0.167774E+03  0.104E-01    1.16       0.0  T
   2   -167.7743290 -0.806899E-04  0.638E-02    1.18       1.0  T
   3   -167.7743268  0.214560E-05  0.362E-02    1.17       1.0  T
   4   -167.7743598 -0.329082E-04  0.128E-02    1.17       1.0  T
   5   -167.7743710 -0.112433E-04  0.405E-03    1.17       2.9  T
   6   -167.7743715 -0.492122E-06  0.184E-03    1.17       6.3  T
   7   -167.7743716 -0.885169E-07  0.950E-04    1.17      12.2  T
   8   -167.7743716 -0.241982E-07  0.351E-04    1.17      32.9  T
     SCC iter.                  ...        0 min,  0.054 sec
     gradient                   ...        0 min,  0.015 sec
 * total energy  :  -166.0785696 Eh     change       -0.2704919E-02 Eh
   gradient norm :     0.0310973 Eh/α   predicted    -0.3014676E-02 (  11.45%)
   displ. norm   :     0.3815845 α      lambda       -0.3624607E-02
   maximum displ.:     0.1438287 α      in ANC's #27, #25, #23, ...

........................................................................
.............................. CYCLE    6 ..............................
........................................................................
   1   -167.7948328 -0.167795E+03  0.114E-01    1.16       0.0  T
   2   -167.7950501 -0.217328E-03  0.727E-02    1.18       1.0  T
   3   -167.7951185 -0.683872E-04  0.404E-02    1.17       1.0  T
   4   -167.7951216 -0.316282E-05  0.205E-02    1.18       1.0  T
   5   -167.7951491 -0.274850E-04  0.569E-03    1.18       2.0  T
   6   -167.7951502 -0.110838E-05  0.259E-03    1.18       4.5  T
   7   -167.7951504 -0.177118E-06  0.140E-03    1.18       8.2  T
   8   -167.7951504 -0.370571E-07  0.491E-04    1.18      23.5  T
   9   -167.7951505 -0.782074E-08  0.271E-04    1.18      42.6  T
     SCC iter.                  ...        0 min,  0.060 sec
     gradient                   ...        0 min,  0.015 sec
 * total energy  :  -166.0807753 Eh     change       -0.2205767E-02 Eh
   gradient norm :     0.0147586 Eh/α   predicted    -0.2076340E-02 (  -5.87%)
   displ. norm   :     0.3043502 α      lambda       -0.1082660E-02
   maximum displ.:     0.0946680 α      in ANC's #27, #18, #15, ...

........................................................................
.............................. CYCLE    7 ..............................
........................................................................
   1   -167.8010945 -0.167801E+03  0.644E-02    1.16       0.0  T
   2   -167.8011100 -0.155232E-04  0.388E-02    1.18       1.0  T
   3   -167.8010891  0.209069E-04  0.227E-02    1.17       1.0  T
   4   -167.8011180 -0.288942E-04  0.557E-03    1.18       2.1  T
   5   -167.8011192 -0.123119E-05  0.305E-03    1.17       3.8  T
   6   -167.8011196 -0.380149E-06  0.123E-03    1.17       9.4  T
   7   -167.8011196 -0.212409E-07  0.537E-04    1.17      21.5  T
   8   -167.8011196 -0.878373E-08  0.225E-04    1.17      51.3  T
     SCC iter.                  ...        0 min,  0.053 sec
     gradient                   ...        0 min,  0.016 sec
 * total energy  :  -166.0815691 Eh     change       -0.7938218E-03 Eh
   gradient norm :     0.0139345 Eh/α   predicted    -0.5914718E-03 ( -25.49%)
   displ. norm   :     0.3858012 α      lambda       -0.9790690E-03
   maximum displ.:     0.1457672 α      in ANC's #18, #15, #4, ...

........................................................................
.............................. CYCLE    8 ..............................
........................................................................
   1   -167.8033040 -0.167803E+03  0.784E-02    1.16       0.0  T
   2   -167.8033461 -0.421266E-04  0.471E-02    1.17       1.0  T
   3   -167.8033437  0.238287E-05  0.246E-02    1.17       1.0  T
   4   -167.8033603 -0.165986E-04  0.656E-03    1.18       1.8  T
   5   -167.8033620 -0.169776E-05  0.333E-03    1.17       3.5  T
   6   -167.8033622 -0.179884E-06  0.170E-03    1.17       6.8  T
   7   -167.8033623 -0.895333E-07  0.833E-04    1.17      13.9  T
   8   -167.8033623 -0.348168E-07  0.255E-04    1.17      45.2  T
     SCC iter.                  ...        0 min,  0.054 sec
     gradient                   ...        0 min,  0.015 sec
 * total energy  :  -166.0820664 Eh     change       -0.4972684E-03 Eh
   gradient norm :     0.0138987 Eh/α   predicted    -0.5624121E-03 (  13.10%)
   displ. norm   :     0.3361959 α      lambda       -0.8869987E-03
   maximum displ.:     0.1380547 α      in ANC's #18, #4, #15, ...

........................................................................
.............................. CYCLE    9 ..............................
........................................................................
   1   -167.8025883 -0.167803E+03  0.684E-02    1.18       0.0  T
   2   -167.8026186 -0.302985E-04  0.403E-02    1.18       1.0  T
   3   -167.8026165  0.207898E-05  0.208E-02    1.18       1.0  T
   4   -167.8026285 -0.119703E-04  0.538E-03    1.18       2.1  T
   5   -167.8026295 -0.101474E-05  0.277E-03    1.18       4.2  T
   6   -167.8026296 -0.140231E-06  0.127E-03    1.18       9.1  T
   7   -167.8026296 -0.241856E-07  0.703E-04    1.18      16.4  T
   8   -167.8026297 -0.274118E-07  0.233E-04    1.18      49.6  T
     SCC iter.                  ...        0 min,  0.053 sec
     gradient                   ...        0 min,  0.015 sec
 * total energy  :  -166.0824578 Eh     change       -0.3913447E-03 Eh
   gradient norm :     0.0123779 Eh/α   predicted    -0.4936308E-03 (  26.14%)
   displ. norm   :     0.1515721 α      lambda       -0.4031812E-03
   maximum displ.:     0.0722223 α      in ANC's #4, #18, #2, ...

........................................................................
.............................. CYCLE   10 ..............................
........................................................................
   1   -167.8025897 -0.167803E+03  0.309E-02    1.19       0.0  T
   2   -167.8025984 -0.872194E-05  0.184E-02    1.18       1.0  T
   3   -167.8025989 -0.525863E-06  0.952E-03    1.18       1.2  T
   4   -167.8026001 -0.118048E-05  0.327E-03    1.18       3.5  T
   5   -167.8026007 -0.616517E-06  0.150E-03    1.18       7.7  T
   6   -167.8026008 -0.805610E-07  0.675E-04    1.18      17.1  T
   7   -167.8026008 -0.752917E-08  0.360E-04    1.18      32.1  T
     SCC iter.                  ...        0 min,  0.050 sec
     gradient                   ...        0 min,  0.016 sec
 * total energy  :  -166.0827775 Eh     change       -0.3197770E-03 Eh
   gradient norm :     0.0082964 Eh/α   predicted    -0.2062302E-03 ( -35.51%)
   displ. norm   :     0.4316317 α      lambda       -0.9007389E-03
   maximum displ.:     0.2153363 α      in ANC's #4, #2, #23, ...

........................................................................
.............................. CYCLE   11 ..............................
........................................................................
   1   -167.8007470 -0.167801E+03  0.856E-02    1.20       0.0  T
   2   -167.8007815 -0.345075E-04  0.502E-02    1.19       1.0  T
   3   -167.8007752  0.632673E-05  0.233E-02    1.20       1.0  T
   4   -167.8007911 -0.158665E-04  0.673E-03    1.19       1.7  T
   5   -167.8007927 -0.164502E-05  0.385E-03    1.20       3.0  T
   6   -167.8007932 -0.470235E-06  0.175E-03    1.19       6.6  T
   7   -167.8007932 -0.542742E-07  0.858E-04    1.20      13.5  T
   8   -167.8007933 -0.361482E-07  0.256E-04    1.20      45.2  T
     SCC iter.                  ...        0 min,  0.054 sec
     gradient                   ...        0 min,  0.015 sec
 * total energy  :  -166.0830443 Eh     change       -0.2667891E-03 Eh
   gradient norm :     0.0151020 Eh/α   predicted    -0.5342970E-03 ( 100.27%)
   displ. norm   :     0.2965713 α      lambda       -0.6916575E-03
   maximum displ.:     0.1447702 α      in ANC's #4, #2, #15, ...

........................................................................
.............................. CYCLE   12 ..............................
........................................................................
   1   -167.7976585 -0.167798E+03  0.605E-02    1.17       0.0  T
   2   -167.7977204 -0.618699E-04  0.367E-02    1.18       1.0  T
   3   -167.7977297 -0.929434E-05  0.201E-02    1.18       1.0  T
   4   -167.7977322 -0.253741E-05  0.723E-03    1.19       1.6  T
   5   -167.7977341 -0.186171E-05  0.391E-03    1.19       3.0  T
   6   -167.7977348 -0.752786E-06  0.180E-03    1.19       6.4  T
   7   -167.7977348 -0.653318E-08  0.976E-04    1.19      11.8  T
   8   -167.7977349 -0.594128E-07  0.240E-04    1.19      48.2  T
     SCC iter.                  ...        0 min,  0.053 sec
     gradient                   ...        0 min,  0.016 sec
 * total energy  :  -166.0833532 Eh     change       -0.3088363E-03 Eh
   gradient norm :     0.0156558 Eh/α   predicted    -0.3762552E-03 (  21.83%)
   displ. norm   :     0.1227029 α      lambda       -0.4413586E-03
   maximum displ.:     0.0754192 α      in ANC's #4, #2, #6, ...

........................................................................
.............................. CYCLE   13 ..............................
........................................................................
   1   -167.8019428 -0.167802E+03  0.367E-02    1.20       0.0  T
   2   -167.8019811 -0.383427E-04  0.203E-02    1.19       1.0  T
   3   -167.8019837 -0.258401E-05  0.117E-02    1.19       1.0  T
   4   -167.8019838 -0.568953E-07  0.521E-03    1.19       2.2  T
   5   -167.8019844 -0.581746E-06  0.232E-03    1.19       5.0  T
   6   -167.8019847 -0.331936E-06  0.101E-03    1.19      11.4  T
   7   -167.8019847 -0.457672E-08  0.542E-04    1.19      21.3  T
   8   -167.8019847 -0.128389E-07  0.161E-04    1.19      71.7  T
     SCC iter.                  ...        0 min,  0.055 sec
     gradient                   ...        0 min,  0.015 sec
 * total energy  :  -166.0834844 Eh     change       -0.1311998E-03 Eh
   gradient norm :     0.0111130 Eh/α   predicted    -0.2240035E-03 (  70.73%)
   displ. norm   :     0.2133964 α      lambda       -0.3781589E-03
   maximum displ.:     0.1225981 α      in ANC's #4, #2, #6, ...

........................................................................
.............................. CYCLE   14 ..............................
........................................................................
   1   -167.8018713 -0.167802E+03  0.385E-02    1.19       0.0  T
   2   -167.8018985 -0.272377E-04  0.233E-02    1.19       1.0  T
   3   -167.8019028 -0.429926E-05  0.131E-02    1.19       1.0  T
   4   -167.8019029 -0.127467E-06  0.609E-03    1.19       1.9  T
   5   -167.8019052 -0.230420E-05  0.250E-03    1.19       4.6  T
   6   -167.8019055 -0.229830E-06  0.122E-03    1.19       9.5  T
   7   -167.8019055 -0.181919E-07  0.604E-04    1.19      19.1  T
   8   -167.8019055 -0.137654E-07  0.167E-04    1.19      69.0  T
     SCC iter.                  ...        0 min,  0.054 sec
     gradient                   ...        0 min,  0.015 sec
 * total energy  :  -166.0837247 Eh     change       -0.2403454E-03 Eh
   gradient norm :     0.0060916 Eh/α   predicted    -0.1976921E-03 ( -17.75%)
   displ. norm   :     0.3845657 α      lambda       -0.4372651E-03
   maximum displ.:     0.2185872 α      in ANC's #4, #2, #6, ...

........................................................................
.............................. CYCLE   15 ..............................
........................................................................
   1   -167.7996520 -0.167800E+03  0.606E-02    1.18       0.0  T
   2   -167.7996889 -0.368738E-04  0.354E-02    1.19       1.0  T
   3   -167.7996910 -0.214841E-05  0.189E-02    1.19       1.0  T
   4   -167.7996979 -0.693002E-05  0.629E-03    1.19       1.8  T
   5   -167.7996990 -0.104203E-05  0.350E-03    1.19       3.3  T
   6   -167.7996994 -0.373230E-06  0.184E-03    1.19       6.3  T
   7   -167.7996994 -0.485698E-07  0.892E-04    1.19      12.9  T
   8   -167.7996995 -0.531477E-07  0.196E-04    1.19      58.9  T
     SCC iter.                  ...        0 min,  0.054 sec
     gradient                   ...        0 min,  0.015 sec
 * total energy  :  -166.0838809 Eh     change       -0.1561575E-03 Eh
   gradient norm :     0.0139196 Eh/α   predicted    -0.2509676E-03 (  60.71%)
   displ. norm   :     0.2083903 α      lambda       -0.3393817E-03
   maximum displ.:     0.1313594 α      in ANC's #4, #2, #6, ...

........................................................................
.............................. CYCLE   16 ..............................
........................................................................
   1   -167.8011934 -0.167801E+03  0.326E-02    1.19       0.0  T
   2   -167.8012099 -0.165575E-04  0.200E-02    1.19       1.0  T
   3   -167.8012127 -0.273346E-05  0.107E-02    1.19       1.1  T
   4   -167.8012134 -0.788562E-06  0.315E-03    1.19       3.7  T
   5   -167.8012139 -0.418255E-06  0.144E-03    1.19       8.0  T
   6   -167.8012140 -0.885732E-07  0.708E-04    1.19      16.3  T
   7   -167.8012140  0.248519E-09  0.424E-04    1.19      27.2  T
     SCC iter.                  ...        0 min,  0.047 sec
     gradient                   ...        0 min,  0.016 sec
 * total energy  :  -166.0841255 Eh     change       -0.2446838E-03 Eh
   gradient norm :     0.0091521 Eh/α   predicted    -0.1770635E-03 ( -27.64%)
   displ. norm   :     0.4026925 α      lambda       -0.4924997E-03
   maximum displ.:     0.2548116 α      in ANC's #4, #2, #6, ...

........................................................................
.............................. CYCLE   17 ..............................
........................................................................
   1   -167.8023531 -0.167802E+03  0.598E-02    1.20       0.0  T
   2   -167.8023915 -0.384299E-04  0.344E-02    1.20       1.0  T
   3   -167.8023917 -0.119540E-06  0.166E-02    1.20       1.0  T
   4   -167.8023952 -0.350993E-05  0.631E-03    1.20       1.8  T
   5   -167.8023969 -0.168112E-05  0.235E-03    1.20       4.9  T
   6   -167.8023970 -0.159030E-06  0.135E-03    1.20       8.6  T
   7   -167.8023970 -0.827688E-08  0.705E-04    1.20      16.4  T
   8   -167.8023970 -0.278489E-07  0.184E-04    1.20      62.6  T
     SCC iter.                  ...        0 min,  0.053 sec
     gradient                   ...        0 min,  0.015 sec
 * total energy  :  -166.0843089 Eh     change       -0.1833905E-03 Eh
   gradient norm :     0.0144890 Eh/α   predicted    -0.2861857E-03 (  56.05%)
   displ. norm   :     0.4055166 α      lambda       -0.4733104E-03
   maximum displ.:     0.2471253 α      in ANC's #4, #2, #6, ...

........................................................................
.............................. CYCLE   18 ..............................
........................................................................
   1   -167.8012440 -0.167801E+03  0.520E-02    1.19       0.0  T
   2   -167.8012672 -0.232093E-04  0.300E-02    1.20       1.0  T
   3   -167.8012647  0.246218E-05  0.147E-02    1.20       1.0  T
   4   -167.8012704 -0.564160E-05  0.583E-03    1.20       2.0  T
   5   -167.8012719 -0.154107E-05  0.265E-03    1.20       4.4  T
   6   -167.8012722 -0.250237E-06  0.148E-03    1.20       7.8  T
   7   -167.8012722 -0.466727E-07  0.555E-04    1.20      20.8  T
   8   -167.8012722 -0.149297E-07  0.163E-04    1.20      70.7  T
     SCC iter.                  ...        0 min,  0.054 sec
     gradient                   ...        0 min,  0.015 sec
 * total energy  :  -166.0846565 Eh     change       -0.3475748E-03 Eh
   gradient norm :     0.0077593 Eh/α   predicted    -0.2755739E-03 ( -20.72%)
   displ. norm   :     0.5593660 α      lambda       -0.3837840E-03
   maximum displ.:     0.3495281 α      in ANC's #4, #2, #6, ...

........................................................................
.............................. CYCLE   19 ..............................
........................................................................
   1   -167.7980188 -0.167798E+03  0.674E-02    1.19       0.0  T
   2   -167.7980380 -0.191535E-04  0.391E-02    1.19       1.0  T
   3   -167.7980345  0.350318E-05  0.145E-02    1.20       1.0  T
   4   -167.7980427 -0.826904E-05  0.549E-03    1.20       2.1  T
   5   -167.7980437 -0.989949E-06  0.258E-03    1.20       4.5  T
   6   -167.7980438 -0.370181E-07  0.132E-03    1.20       8.7  T
   7   -167.7980438 -0.531534E-07  0.473E-04    1.20      24.4  T
   8   -167.7980438 -0.138529E-07  0.185E-04    1.20      62.5  T
     SCC iter.                  ...        0 min,  0.054 sec
     gradient                   ...        0 min,  0.015 sec
 * total energy  :  -166.0849222 Eh     change       -0.2657070E-03 Eh
   gradient norm :     0.0105762 Eh/α   predicted    -0.2519395E-03 (  -5.18%)
   displ. norm   :     0.4485024 α      lambda       -0.3574218E-03
   maximum displ.:     0.2811458 α      in ANC's #4, #2, #6, ...

........................................................................
.............................. CYCLE   20 ..............................
........................................................................
   1   -167.7997564 -0.167800E+03  0.527E-02    1.20       0.0  T
   2   -167.7997817 -0.252925E-04  0.316E-02    1.20       1.0  T
   3   -167.7997844 -0.273231E-05  0.173E-02    1.20       1.0  T
   4   -167.7997890 -0.455802E-05  0.479E-03    1.20       2.4  T
   5   -167.7997905 -0.157968E-05  0.203E-03    1.20       5.7  T
   6   -167.7997906 -0.931997E-07  0.114E-03    1.20      10.1  T
   7   -167.7997907 -0.291846E-07  0.561E-04    1.20      20.6  T
   8   -167.7997907 -0.135531E-07  0.149E-04    1.20      77.4  T
     SCC iter.                  ...        0 min,  0.053 sec
     gradient                   ...        0 min,  0.015 sec
 * total energy  :  -166.0851730 Eh     change       -0.2507753E-03 Eh
   gradient norm :     0.0097869 Eh/α   predicted    -0.2146644E-03 ( -14.40%)
   displ. norm   :     0.5143706 α      lambda       -0.3715806E-03
   maximum displ.:     0.3216231 α      in ANC's #4, #2, #6, ...
 * RMSD in coord.:     0.5766265 α      energy gain  -0.1816116E+00 Eh

generating ANC from model Hessian ...
Using Lindh-Hessian (1995)
 Shifting diagonal of input Hessian by   9.958127102909598E-003
 Lowest  eigenvalues of input Hessian
    0.000000    0.000000    0.000000    0.000000    0.000000    0.000000
    0.010000    0.010041    0.010079    0.010113    0.010318    0.010407
    0.010639    0.010921    0.011191    0.011505    0.011709    0.011855
 Highest eigenvalues
    2.291723    2.650235    2.669843    2.671993    2.673053    2.691776
 

........................................................................
.............................. CYCLE   21 ..............................
........................................................................
   1   -167.7999473 -0.167800E+03  0.544E-02    1.21       0.0  T
   2   -167.7999592 -0.118697E-04  0.324E-02    1.21       1.0  T
   3   -167.7999532  0.595812E-05  0.142E-02    1.21       1.0  T
   4   -167.7999628 -0.955168E-05  0.410E-03    1.21       2.8  T
   5   -167.7999635 -0.685181E-06  0.211E-03    1.21       5.5  T
   6   -167.7999636 -0.808705E-07  0.112E-03    1.21      10.3  T
   7   -167.7999636 -0.151660E-07  0.553E-04    1.21      20.9  T
   8   -167.7999636 -0.180601E-07  0.122E-04    1.21      94.9  T
     SCC iter.                  ...        0 min,  0.054 sec
     gradient                   ...        0 min,  0.016 sec
 * total energy  :  -166.0854684 Eh     change       -0.2954337E-03 Eh
   gradient norm :     0.0062467 Eh/α   predicted     0.0000000E+00 (-100.00%)
   displ. norm   :     0.0709307 α      lambda       -0.1082585E-03
   maximum displ.:     0.0439312 α      in ANC's #2, #4, #11, ...

........................................................................
.............................. CYCLE   22 ..............................
........................................................................
   1   -167.8018843 -0.167802E+03  0.131E-02    1.21       0.0  T
   2   -167.8018858 -0.151662E-05  0.781E-03    1.21       1.5  T
   3   -167.8018860 -0.138985E-06  0.425E-03    1.21       2.7  T
   4   -167.8018863 -0.296517E-06  0.113E-03    1.21      10.2  T
   5   -167.8018863 -0.710287E-07  0.443E-04    1.21      26.1  T
   6   -167.8018863 -0.354865E-08  0.254E-04    1.21      45.5  T
     SCC iter.                  ...        0 min,  0.041 sec
     gradient                   ...        0 min,  0.016 sec
 * total energy  :  -166.0855414 Eh     change       -0.7293875E-04 Eh
   gradient norm :     0.0035967 Eh/α   predicted    -0.5440196E-04 ( -25.41%)
   displ. norm   :     0.1787456 α      lambda       -0.1804022E-03
   maximum displ.:     0.1073587 α      in ANC's #2, #4, #11, ...

........................................................................
.............................. CYCLE   23 ..............................
........................................................................
   1   -167.8053364 -0.167805E+03  0.271E-02    1.21       0.0  T
   2   -167.8053428 -0.637479E-05  0.161E-02    1.20       1.0  T
   3   -167.8053434 -0.608267E-06  0.891E-03    1.21       1.3  T
   4   -167.8053448 -0.133531E-05  0.226E-03    1.21       5.1  T
   5   -167.8053450 -0.255907E-06  0.861E-04    1.21      13.4  T
   6   -167.8053450 -0.913499E-08  0.454E-04    1.21      25.4  T
     SCC iter.                  ...        0 min,  0.041 sec
     gradient                   ...        0 min,  0.015 sec
 * total energy  :  -166.0856589 Eh     change       -0.1175607E-03 Eh
   gradient norm :     0.0047986 Eh/α   predicted    -0.9308720E-04 ( -20.82%)
   displ. norm   :     0.1797272 α      lambda       -0.1099598E-03
   maximum displ.:     0.1128240 α      in ANC's #2, #4, #11, ...

........................................................................
.............................. CYCLE   24 ..............................
........................................................................
   1   -167.8050513 -0.167805E+03  0.208E-02    1.20       0.0  T
   2   -167.8050523 -0.100749E-05  0.121E-02    1.20       1.0  T
   3   -167.8050513  0.107503E-05  0.573E-03    1.20       2.0  T
   4   -167.8050528 -0.158879E-05  0.139E-03    1.20       8.3  T
   5   -167.8050529 -0.433432E-07  0.821E-04    1.20      14.1  T
   6   -167.8050529 -0.133031E-07  0.387E-04    1.20      29.8  T
     SCC iter.                  ...        0 min,  0.041 sec
     gradient                   ...        0 min,  0.015 sec
 * total energy  :  -166.0857538 Eh     change       -0.9486512E-04 Eh
   gradient norm :     0.0060562 Eh/α   predicted    -0.5675695E-04 ( -40.17%)
   displ. norm   :     0.2856137 α      lambda       -0.1751836E-03
   maximum displ.:     0.1783123 α      in ANC's #2, #4, #11, ...

........................................................................
.............................. CYCLE   25 ..............................
........................................................................
   1   -167.8027085 -0.167803E+03  0.311E-02    1.20       0.0  T
   2   -167.8027104 -0.192129E-05  0.182E-02    1.20       1.0  T
   3   -167.8027073  0.312356E-05  0.816E-03    1.20       1.4  T
   4   -167.8027114 -0.418408E-05  0.226E-03    1.20       5.1  T
   5   -167.8027116 -0.131623E-06  0.136E-03    1.20       8.5  T
   6   -167.8027116 -0.443494E-07  0.538E-04    1.20      21.5  T
   7   -167.8027116 -0.714701E-08  0.204E-04    1.20      56.6  T
     SCC iter.                  ...        0 min,  0.048 sec
     gradient                   ...        0 min,  0.015 sec
 * total energy  :  -166.0858968 Eh     change       -0.1429935E-03 Eh
   gradient norm :     0.0049492 Eh/α   predicted    -0.9473908E-04 ( -33.75%)
   displ. norm   :     0.3452815 α      lambda       -0.1822810E-03
   maximum displ.:     0.2195666 α      in ANC's #2, #4, #3, ...

........................................................................
.............................. CYCLE   26 ..............................
........................................................................
   1   -167.8002581 -0.167800E+03  0.360E-02    1.20       0.0  T
   2   -167.8002616 -0.348589E-05  0.211E-02    1.20       1.0  T
   3   -167.8002578  0.378681E-05  0.974E-03    1.20       1.2  T
   4   -167.8002631 -0.530676E-05  0.298E-03    1.20       3.9  T
   5   -167.8002635 -0.370382E-06  0.162E-03    1.20       7.1  T
   6   -167.8002635 -0.421332E-07  0.694E-04    1.20      16.6  T
   7   -167.8002635 -0.148375E-07  0.249E-04    1.20      46.4  T
     SCC iter.                  ...        0 min,  0.047 sec
     gradient                   ...        0 min,  0.016 sec
 * total energy  :  -166.0860293 Eh     change       -0.1324815E-03 Eh
   gradient norm :     0.0046677 Eh/α   predicted    -0.1020088E-03 ( -23.00%)
   displ. norm   :     0.3175909 α      lambda       -0.1623749E-03
   maximum displ.:     0.2052218 α      in ANC's #2, #4, #3, ...

........................................................................
.............................. CYCLE   27 ..............................
........................................................................
   1   -167.7993725 -0.167799E+03  0.316E-02    1.21       0.0  T
   2   -167.7993753 -0.273914E-05  0.185E-02    1.21       1.0  T
   3   -167.7993729  0.238308E-05  0.814E-03    1.21       1.4  T
   4   -167.7993764 -0.348841E-05  0.249E-03    1.21       4.6  T
   5   -167.7993767 -0.259791E-06  0.137E-03    1.21       8.5  T
   6   -167.7993767 -0.267455E-07  0.594E-04    1.21      19.4  T
   7   -167.7993767 -0.133248E-07  0.199E-04    1.21      57.9  T
     SCC iter.                  ...        0 min,  0.048 sec
     gradient                   ...        0 min,  0.016 sec
 * total energy  :  -166.0861572 Eh     change       -0.1279775E-03 Eh
   gradient norm :     0.0047984 Eh/α   predicted    -0.8937757E-04 ( -30.16%)
   displ. norm   :     0.3166132 α      lambda       -0.1705661E-03
   maximum displ.:     0.2075022 α      in ANC's #2, #4, #3, ...

........................................................................
.............................. CYCLE   28 ..............................
........................................................................
   1   -167.8005169 -0.167801E+03  0.305E-02    1.21       0.0  T
   2   -167.8005190 -0.210300E-05  0.179E-02    1.21       1.0  T
   3   -167.8005169  0.202452E-05  0.718E-03    1.21       1.6  T
   4   -167.8005199 -0.292112E-05  0.195E-03    1.21       5.9  T
   5   -167.8005200 -0.107803E-06  0.111E-03    1.21      10.4  T
   6   -167.8005200 -0.183997E-07  0.520E-04    1.21      22.2  T
   7   -167.8005200 -0.101954E-07  0.204E-04    1.21      56.7  T
     SCC iter.                  ...        0 min,  0.047 sec
     gradient                   ...        0 min,  0.015 sec
 * total energy  :  -166.0863115 Eh     change       -0.1542792E-03 Eh
   gradient norm :     0.0046915 Eh/α   predicted    -0.9383371E-04 ( -39.18%)
   displ. norm   :     0.4440217 α      lambda       -0.2610337E-03
   maximum displ.:     0.2889270 α      in ANC's #2, #4, #3, ...

........................................................................
.............................. CYCLE   29 ..............................
........................................................................
   1   -167.8029269 -0.167803E+03  0.450E-02    1.21       0.0  T
   2   -167.8029297 -0.273243E-05  0.263E-02    1.21       1.0  T
   3   -167.8029268  0.287517E-05  0.812E-03    1.21       1.4  T
   4   -167.8029309 -0.414533E-05  0.231E-03    1.21       5.0  T
   5   -167.8029310 -0.796835E-07  0.119E-03    1.21       9.7  T
   6   -167.8029310 -0.209868E-07  0.456E-04    1.21      25.3  T
   7   -167.8029311 -0.503553E-08  0.198E-04    1.21      58.2  T
     SCC iter.                  ...        0 min,  0.047 sec
     gradient                   ...        0 min,  0.016 sec
 * total energy  :  -166.0865414 Eh     change       -0.2298408E-03 Eh
   gradient norm :     0.0045415 Eh/α   predicted    -0.1562508E-03 ( -32.02%)
   displ. norm   :     0.5751309 α      lambda       -0.2968883E-03
   maximum displ.:     0.3724289 α      in ANC's #2, #4, #3, ...

........................................................................
.............................. CYCLE   30 ..............................
........................................................................
   1   -167.8042131 -0.167804E+03  0.586E-02    1.22       0.0  T
   2   -167.8042165 -0.340289E-05  0.343E-02    1.21       1.0  T
   3   -167.8042133  0.317166E-05  0.882E-03    1.22       1.3  T
   4   -167.8042182 -0.488798E-05  0.279E-03    1.22       4.1  T
   5   -167.8042182 -0.499418E-07  0.150E-03    1.21       7.7  T
   6   -167.8042183 -0.576858E-07  0.640E-04    1.22      18.0  T
   7   -167.8042183 -0.159300E-07  0.285E-04    1.22      40.5  T
     SCC iter.                  ...        0 min,  0.048 sec
     gradient                   ...        0 min,  0.016 sec
 * total energy  :  -166.0868022 Eh     change       -0.2607942E-03 Eh
   gradient norm :     0.0047809 Eh/α   predicted    -0.1975526E-03 ( -24.25%)
   displ. norm   :     0.6255370 α      lambda       -0.3055549E-03
   maximum displ.:     0.4044733 α      in ANC's #2, #4, #3, ...

........................................................................
.............................. CYCLE   31 ..............................
........................................................................
   1   -167.8042672 -0.167804E+03  0.644E-02    1.22       0.0  T
   2   -167.8042704 -0.321076E-05  0.377E-02    1.22       1.0  T
   3   -167.8042690  0.138189E-05  0.726E-03    1.22       1.6  T
   4   -167.8042719 -0.293012E-05  0.276E-03    1.22       4.2  T
   5   -167.8042720 -0.672094E-07  0.129E-03    1.22       9.0  T
   6   -167.8042721 -0.440423E-07  0.445E-04    1.22      25.9  T
   7   -167.8042721 -0.336996E-08  0.239E-04    1.22      48.4  T
     SCC iter.                  ...        0 min,  0.047 sec
     gradient                   ...        0 min,  0.016 sec
 * total energy  :  -166.0870600 Eh     change       -0.2578080E-03 Eh
   gradient norm :     0.0051576 Eh/α   predicted    -0.2125653E-03 ( -17.55%)
   displ. norm   :     0.6299002 α      lambda       -0.3160569E-03
   maximum displ.:     0.4082717 α      in ANC's #2, #4, #3, ...

........................................................................
.............................. CYCLE   32 ..............................
........................................................................
   1   -167.8038862 -0.167804E+03  0.645E-02    1.22       0.0  T
   2   -167.8038908 -0.453386E-05  0.379E-02    1.22       1.0  T
   3   -167.8038864  0.433943E-05  0.101E-02    1.22       1.1  T
   4   -167.8038926 -0.613593E-05  0.268E-03    1.22       4.3  T
   5   -167.8038927 -0.105412E-06  0.167E-03    1.22       6.9  T
   6   -167.8038928 -0.794842E-07  0.654E-04    1.22      17.7  T
   7   -167.8038928 -0.160576E-07  0.295E-04    1.22      39.2  T
     SCC iter.                  ...        0 min,  0.048 sec
     gradient                   ...        0 min,  0.016 sec
 * total energy  :  -166.0873330 Eh     change       -0.2730133E-03 Eh
   gradient norm :     0.0043089 Eh/α   predicted    -0.2207363E-03 ( -19.15%)
   displ. norm   :     0.6626953 α      lambda       -0.3196065E-03
   maximum displ.:     0.4323119 α      in ANC's #2, #4, #3, ...

........................................................................
.............................. CYCLE   33 ..............................
........................................................................
   1   -167.8027435 -0.167803E+03  0.687E-02    1.22       0.0  T
   2   -167.8027489 -0.537866E-05  0.403E-02    1.22       1.0  T
   3   -167.8027429  0.594313E-05  0.113E-02    1.22       1.0  T
   4   -167.8027511 -0.811647E-05  0.291E-03    1.22       4.0  T
   5   -167.8027513 -0.189953E-06  0.178E-03    1.22       6.5  T
   6   -167.8027513 -0.666624E-07  0.731E-04    1.22      15.8  T
   7   -167.8027513 -0.144040E-07  0.316E-04    1.22      36.5  T
     SCC iter.                  ...        0 min,  0.048 sec
     gradient                   ...        0 min,  0.015 sec
 * total energy  :  -166.0876114 Eh     change       -0.2783933E-03 Eh
   gradient norm :     0.0053086 Eh/α   predicted    -0.2299925E-03 ( -17.39%)
   displ. norm   :     0.6791668 α      lambda       -0.3821448E-03
   maximum displ.:     0.4440790 α      in ANC's #2, #4, #3, ...

........................................................................
.............................. CYCLE   34 ..............................
........................................................................
   1   -167.8027278 -0.167803E+03  0.732E-02    1.22       0.0  T
   2   -167.8027366 -0.879270E-05  0.434E-02    1.22       1.0  T
   3   -167.8027279  0.874302E-05  0.148E-02    1.22       1.0  T
   4   -167.8027397 -0.118381E-04  0.308E-03    1.22       3.7  T
   5   -167.8027401 -0.395304E-06  0.173E-03    1.22       6.7  T
   6   -167.8027402 -0.486007E-07  0.793E-04    1.22      14.6  T
   7   -167.8027402 -0.241134E-07  0.346E-04    1.22      33.4  T
     SCC iter.                  ...        0 min,  0.048 sec
     gradient                   ...        0 min,  0.016 sec
 * total energy  :  -166.0879230 Eh     change       -0.3116584E-03 Eh
   gradient norm :     0.0056442 Eh/α   predicted    -0.2792172E-03 ( -10.41%)
   displ. norm   :     0.7236665 α      lambda       -0.3573121E-03
   maximum displ.:     0.4769023 α      in ANC's #2, #4, #3, ...

........................................................................
.............................. CYCLE   35 ..............................
........................................................................
   1   -167.8014103 -0.167801E+03  0.780E-02    1.22       0.0  T
   2   -167.8014146 -0.437444E-05  0.458E-02    1.22       1.0  T
   3   -167.8014086  0.607304E-05  0.110E-02    1.22       1.1  T
   4   -167.8014165 -0.787376E-05  0.306E-03    1.22       3.8  T
   5   -167.8014167 -0.274525E-06  0.183E-03    1.22       6.3  T
   6   -167.8014168 -0.747767E-07  0.648E-04    1.22      17.8  T
   7   -167.8014168 -0.143572E-07  0.264E-04    1.22      43.7  T
     SCC iter.                  ...        0 min,  0.048 sec
     gradient                   ...        0 min,  0.016 sec
 * total energy  :  -166.0882423 Eh     change       -0.3192351E-03 Eh
   gradient norm :     0.0060578 Eh/α   predicted    -0.2722251E-03 ( -14.73%)
   displ. norm   :     0.6873393 α      lambda       -0.3630945E-03
   maximum displ.:     0.4557815 α      in ANC's #2, #4, #3, ...

........................................................................
.............................. CYCLE   36 ..............................
........................................................................
   1   -167.8018386 -0.167802E+03  0.766E-02    1.22       0.0  T
   2   -167.8018436 -0.491734E-05  0.448E-02    1.22       1.0  T
   3   -167.8018366  0.699742E-05  0.117E-02    1.22       1.0  T
   4   -167.8018454 -0.885168E-05  0.336E-03    1.22       3.4  T
   5   -167.8018458 -0.396779E-06  0.188E-03    1.22       6.1  T
   6   -167.8018459 -0.800318E-07  0.721E-04    1.22      16.0  T
   7   -167.8018459 -0.167661E-07  0.319E-04    1.22      36.2  T
     SCC iter.                  ...        0 min,  0.048 sec
     gradient                   ...        0 min,  0.016 sec
 * total energy  :  -166.0885555 Eh     change       -0.3132236E-03 Eh
   gradient norm :     0.0059096 Eh/α   predicted    -0.2673270E-03 ( -14.65%)
   displ. norm   :     0.7069539 α      lambda       -0.3863211E-03
   maximum displ.:     0.4710853 α      in ANC's #2, #4, #3, ...

........................................................................
.............................. CYCLE   37 ..............................
........................................................................
   1   -167.8035329 -0.167804E+03  0.796E-02    1.22       0.0  T
   2   -167.8035380 -0.511268E-05  0.465E-02    1.22       1.0  T
   3   -167.8035313  0.671996E-05  0.116E-02    1.22       1.0  T
   4   -167.8035399 -0.868836E-05  0.318E-03    1.22       3.6  T
   5   -167.8035402 -0.244585E-06  0.178E-03    1.22       6.5  T
   6   -167.8035403 -0.896680E-07  0.720E-04    1.22      16.0  T
   7   -167.8035403 -0.157083E-07  0.355E-04    1.22      32.6  T
     SCC iter.                  ...        0 min,  0.052 sec
     gradient                   ...        0 min,  0.016 sec
 * total energy  :  -166.0888588 Eh     change       -0.3032836E-03 Eh
   gradient norm :     0.0062899 Eh/α   predicted    -0.2897054E-03 (  -4.48%)
   displ. norm   :     0.7230198 α      lambda       -0.3464159E-03
   maximum displ.:     0.4854834 α      in ANC's #2, #4, #3, ...

........................................................................
.............................. CYCLE   38 ..............................
........................................................................
   1   -167.8015424 -0.167802E+03  0.746E-02    1.22       0.0  T
   2   -167.8015491 -0.676627E-05  0.437E-02    1.22       1.0  T
   3   -167.8015386  0.105144E-04  0.142E-02    1.22       1.0  T
   4   -167.8015518 -0.132100E-04  0.350E-03    1.22       3.3  T
   5   -167.8015522 -0.339610E-06  0.199E-03    1.22       5.8  T
   6   -167.8015523 -0.873752E-07  0.978E-04    1.22      11.8  T
   7   -167.8015523 -0.414211E-07  0.389E-04    1.22      29.7  T
     SCC iter.                  ...        0 min,  0.047 sec
     gradient                   ...        0 min,  0.016 sec
 * total energy  :  -166.0891494 Eh     change       -0.2906449E-03 Eh
   gradient norm :     0.0050496 Eh/α   predicted    -0.2637603E-03 (  -9.25%)
   displ. norm   :     0.6573862 α      lambda       -0.3145937E-03
   maximum displ.:     0.4477184 α      in ANC's #2, #4, #3, ...

........................................................................
.............................. CYCLE   39 ..............................
........................................................................
   1   -167.8060907 -0.167806E+03  0.672E-02    1.23       0.0  T
   2   -167.8060964 -0.573788E-05  0.390E-02    1.23       1.0  T
   3   -167.8060892  0.719776E-05  0.118E-02    1.23       1.0  T
   4   -167.8060985 -0.923934E-05  0.330E-03    1.23       3.5  T
   5   -167.8060987 -0.252486E-06  0.167E-03    1.23       6.9  T
   6   -167.8060988 -0.504420E-07  0.873E-04    1.23      13.2  T
   7   -167.8060988 -0.296977E-07  0.391E-04    1.23      29.5  T
     SCC iter.                  ...        0 min,  0.048 sec
     gradient                   ...        0 min,  0.016 sec
 * total energy  :  -166.0893985 Eh     change       -0.2490350E-03 Eh
   gradient norm :     0.0063542 Eh/α   predicted    -0.2252814E-03 (  -9.54%)
   displ. norm   :     0.7611164 α      lambda       -0.3509855E-03
   maximum displ.:     0.5249792 α      in ANC's #2, #4, #3, ...

........................................................................
.............................. CYCLE   40 ..............................
........................................................................
   1   -167.8043628 -0.167804E+03  0.731E-02    1.22       0.0  T
   2   -167.8043752 -0.124254E-04  0.424E-02    1.22       1.0  T
   3   -167.8043713  0.395761E-05  0.115E-02    1.22       1.0  T
   4   -167.8043771 -0.585434E-05  0.471E-03    1.22       2.5  T
   5   -167.8043781 -0.941971E-06  0.183E-03    1.22       6.3  T
   6   -167.8043781  0.167392E-08  0.994E-04    1.22      11.6  T
   7   -167.8043781 -0.347481E-07  0.381E-04    1.22      30.3  T
     SCC iter.                  ...        0 min,  0.047 sec
     gradient                   ...        0 min,  0.016 sec
 * total energy  :  -166.0896581 Eh     change       -0.2596276E-03 Eh
   gradient norm :     0.0081888 Eh/α   predicted    -0.2771673E-03 (   6.76%)
   displ. norm   :     0.6706404 α      lambda       -0.3228240E-03
   maximum displ.:     0.4662739 α      in ANC's #2, #4, #3, ...

........................................................................
.............................. CYCLE   41 ..............................
........................................................................
   1   -167.8035998 -0.167804E+03  0.619E-02    1.22       0.0  T
   2   -167.8036054 -0.562334E-05  0.358E-02    1.22       1.0  T
   3   -167.8036035  0.192912E-05  0.804E-03    1.22       1.4  T
   4   -167.8036065 -0.307659E-05  0.321E-03    1.22       3.6  T
   5   -167.8036069 -0.368499E-06  0.135E-03    1.22       8.6  T
   6   -167.8036069 -0.602950E-08  0.691E-04    1.22      16.7  T
   7   -167.8036069 -0.204496E-07  0.275E-04    1.22      42.0  T
     SCC iter.                  ...        0 min,  0.047 sec
     gradient                   ...        0 min,  0.016 sec
 * total energy  :  -166.0899172 Eh     change       -0.2591340E-03 Eh
   gradient norm :     0.0055959 Eh/α   predicted    -0.2340182E-03 (  -9.69%)
   displ. norm   :     0.6707128 α      lambda       -0.3090711E-03
   maximum displ.:     0.4802555 α      in ANC's #2, #4, #3, ...

........................................................................
.............................. CYCLE   42 ..............................
........................................................................
   1   -167.8064882 -0.167806E+03  0.618E-02    1.22       0.0  T
   2   -167.8064923 -0.408733E-05  0.358E-02    1.22       1.0  T
   3   -167.8064902  0.212215E-05  0.802E-03    1.22       1.4  T
   4   -167.8064938 -0.360295E-05  0.304E-03    1.22       3.8  T
   5   -167.8064940 -0.143887E-06  0.170E-03    1.22       6.8  T
   6   -167.8064941 -0.961053E-07  0.745E-04    1.22      15.5  T
   7   -167.8064941 -0.234067E-07  0.313E-04    1.22      36.9  T
     SCC iter.                  ...        0 min,  0.048 sec
     gradient                   ...        0 min,  0.016 sec
 * total energy  :  -166.0901727 Eh     change       -0.2554598E-03 Eh
   gradient norm :     0.0045474 Eh/α   predicted    -0.2240647E-03 ( -12.29%)
   displ. norm   :     0.7778350 α      lambda       -0.2792687E-03
   maximum displ.:     0.5615345 α      in ANC's #2, #4, #3, ...
 * RMSD in coord.:     1.2975018 α      energy gain  -0.4999682E-02 Eh

generating ANC from model Hessian ...
Using Lindh-Hessian (1995)
 Shifting diagonal of input Hessian by   9.958400751412157E-003
 Lowest  eigenvalues of input Hessian
    0.000000    0.000000    0.000000    0.000000    0.000000    0.000000
    0.010000    0.010049    0.010088    0.010127    0.010288    0.010399
    0.010653    0.010847    0.011268    0.011508    0.011774    0.011954
 Highest eigenvalues
    2.291285    2.646583    2.665343    2.669340    2.671986    2.688234
 

........................................................................
.............................. CYCLE   43 ..............................
........................................................................
   1   -167.8041016 -0.167804E+03  0.713E-02    1.22       0.0  T
   2   -167.8041056 -0.402894E-05  0.415E-02    1.22       1.0  T
   3   -167.8041041  0.150722E-05  0.757E-03    1.22       1.5  T
   4   -167.8041073 -0.320507E-05  0.326E-03    1.22       3.5  T
   5   -167.8041074 -0.134934E-06  0.181E-03    1.22       6.4  T
   6   -167.8041075 -0.119180E-06  0.658E-04    1.22      17.5  T
   7   -167.8041076 -0.124253E-07  0.268E-04    1.22      43.1  T
     SCC iter.                  ...        0 min,  0.047 sec
     gradient                   ...        0 min,  0.016 sec
 * total energy  :  -166.0904173 Eh     change       -0.2446210E-03 Eh
   gradient norm :     0.0047238 Eh/α   predicted     0.0000000E+00 (-100.00%)
   displ. norm   :     0.0575830 α      lambda       -0.7253823E-04
   maximum displ.:     0.0325672 α      in ANC's #2, #5, #17, ...

........................................................................
.............................. CYCLE   44 ..............................
........................................................................
   1   -167.8060572 -0.167806E+03  0.136E-02    1.22       0.0  T
   2   -167.8060577 -0.589785E-06  0.797E-03    1.22       1.4  T
   3   -167.8060575  0.289814E-06  0.330E-03    1.22       3.5  T
   4   -167.8060579 -0.436273E-06  0.816E-04    1.22      14.1  T
   5   -167.8060579 -0.270999E-07  0.385E-04    1.22      30.0  T
     SCC iter.                  ...        0 min,  0.035 sec
     gradient                   ...        0 min,  0.017 sec
 * total energy  :  -166.0904756 Eh     change       -0.5828089E-04 Eh
   gradient norm :     0.0027216 Eh/α   predicted    -0.3861792E-04 ( -33.74%)
   displ. norm   :     0.1638433 α      lambda       -0.1404736E-03
   maximum displ.:     0.0925737 α      in ANC's #2, #5, #17, ...

........................................................................
.............................. CYCLE   45 ..............................
........................................................................
   1   -167.8094202 -0.167809E+03  0.339E-02    1.22       0.0  T
   2   -167.8094232 -0.294390E-05  0.198E-02    1.22       1.0  T
   3   -167.8094213  0.185020E-05  0.779E-03    1.22       1.5  T
   4   -167.8094240 -0.263222E-05  0.201E-03    1.22       5.8  T
   5   -167.8094241 -0.165388E-06  0.969E-04    1.22      11.9  T
   6   -167.8094241 -0.203322E-07  0.509E-04    1.22      22.7  T
     SCC iter.                  ...        0 min,  0.045 sec
     gradient                   ...        0 min,  0.017 sec
 * total energy  :  -166.0905479 Eh     change       -0.7228220E-04 Eh
   gradient norm :     0.0042437 Eh/α   predicted    -0.7213408E-04 (  -0.20%)
   displ. norm   :     0.1202604 α      lambda       -0.7460819E-04
   maximum displ.:     0.0720149 α      in ANC's #2, #5, #17, ...

........................................................................
.............................. CYCLE   46 ..............................
........................................................................
   1   -167.8089327 -0.167809E+03  0.213E-02    1.22       0.0  T
   2   -167.8089332 -0.559329E-06  0.125E-02    1.22       1.0  T
   3   -167.8089326  0.617614E-06  0.368E-03    1.22       3.1  T
   4   -167.8089334 -0.818530E-06  0.119E-03    1.22       9.7  T
   5   -167.8089335 -0.431823E-07  0.706E-04    1.22      16.4  T
   6   -167.8089335 -0.147254E-07  0.289E-04    1.22      40.0  T
     SCC iter.                  ...        0 min,  0.045 sec
     gradient                   ...        0 min,  0.017 sec
 * total energy  :  -166.0906057 Eh     change       -0.5785498E-04 Eh
   gradient norm :     0.0039740 Eh/α   predicted    -0.3784417E-04 ( -34.59%)
   displ. norm   :     0.1792565 α      lambda       -0.9329263E-04
   maximum displ.:     0.1084066 α      in ANC's #2, #5, #4, ...

........................................................................
.............................. CYCLE   47 ..............................
........................................................................
   1   -167.8070588 -0.167807E+03  0.287E-02    1.22       0.0  T
   2   -167.8070599 -0.115170E-05  0.168E-02    1.22       1.0  T
   3   -167.8070591  0.795006E-06  0.459E-03    1.22       2.5  T
   4   -167.8070603 -0.116919E-05  0.171E-03    1.22       6.7  T
   5   -167.8070604 -0.788249E-07  0.101E-03    1.22      11.5  T
   6   -167.8070604 -0.326877E-07  0.428E-04    1.22      27.0  T
   7   -167.8070604 -0.492321E-08  0.173E-04    1.22      66.7  T
     SCC iter.                  ...        0 min,  0.051 sec
     gradient                   ...        0 min,  0.017 sec
 * total energy  :  -166.0906828 Eh     change       -0.7706255E-04 Eh
   gradient norm :     0.0033859 Eh/α   predicted    -0.4814572E-04 ( -37.52%)
   displ. norm   :     0.2544773 α      lambda       -0.1113675E-03
   maximum displ.:     0.1547250 α      in ANC's #2, #5, #4, ...

........................................................................
.............................. CYCLE   48 ..............................
........................................................................
   1   -167.8049940 -0.167805E+03  0.391E-02    1.21       0.0  T
   2   -167.8049959 -0.191518E-05  0.228E-02    1.22       1.0  T
   3   -167.8049952  0.700828E-06  0.546E-03    1.22       2.1  T
   4   -167.8049967 -0.142376E-05  0.224E-03    1.22       5.1  T
   5   -167.8049968 -0.925968E-07  0.131E-03    1.22       8.8  T
   6   -167.8049968 -0.537891E-07  0.529E-04    1.22      21.8  T
   7   -167.8049968 -0.894545E-08  0.216E-04    1.22      53.4  T
     SCC iter.                  ...        0 min,  0.052 sec
     gradient                   ...        0 min,  0.017 sec
 * total energy  :  -166.0907734 Eh     change       -0.9063568E-04 Eh
   gradient norm :     0.0038916 Eh/α   predicted    -0.5929184E-04 ( -34.58%)
   displ. norm   :     0.2989649 α      lambda       -0.1178919E-03
   maximum displ.:     0.1838215 α      in ANC's #2, #5, #4, ...

........................................................................
.............................. CYCLE   49 ..............................
........................................................................
   1   -167.8036795 -0.167804E+03  0.442E-02    1.21       0.0  T
   2   -167.8036817 -0.218141E-05  0.258E-02    1.21       1.0  T
   3   -167.8036803  0.138621E-05  0.667E-03    1.21       1.7  T
   4   -167.8036828 -0.242792E-05  0.246E-03    1.21       4.7  T
   5   -167.8036828 -0.815241E-07  0.144E-03    1.21       8.0  T
   6   -167.8036829 -0.577230E-07  0.524E-04    1.21      22.0  T
   7   -167.8036829 -0.108167E-07  0.226E-04    1.21      51.1  T
     SCC iter.                  ...        0 min,  0.051 sec
     gradient                   ...        0 min,  0.017 sec
 * total energy  :  -166.0908650 Eh     change       -0.9154230E-04 Eh
   gradient norm :     0.0051253 Eh/α   predicted    -0.6421505E-04 ( -29.85%)
   displ. norm   :     0.3340583 α      lambda       -0.1345481E-03
   maximum displ.:     0.2080010 α      in ANC's #2, #5, #4, ...

........................................................................
.............................. CYCLE   50 ..............................
........................................................................
   1   -167.8034485 -0.167803E+03  0.480E-02    1.21       0.0  T
   2   -167.8034513 -0.276503E-05  0.280E-02    1.21       1.0  T
   3   -167.8034501  0.118916E-05  0.708E-03    1.21       1.6  T
   4   -167.8034526 -0.245409E-05  0.256E-03    1.21       4.5  T
   5   -167.8034526 -0.670120E-07  0.159E-03    1.21       7.3  T
   6   -167.8034527 -0.758576E-07  0.476E-04    1.21      24.2  T
   7   -167.8034527 -0.858731E-08  0.228E-04    1.21      50.7  T
     SCC iter.                  ...        0 min,  0.051 sec
     gradient                   ...        0 min,  0.017 sec
 * total energy  :  -166.0909704 Eh     change       -0.1054886E-03 Eh
   gradient norm :     0.0053881 Eh/α   predicted    -0.7478616E-04 ( -29.10%)
   displ. norm   :     0.3558959 α      lambda       -0.1401425E-03
   maximum displ.:     0.2267688 α      in ANC's #2, #5, #3, ...

........................................................................
.............................. CYCLE   51 ..............................
........................................................................
   1   -167.8048508 -0.167805E+03  0.487E-02    1.21       0.0  T
   2   -167.8048530 -0.220738E-05  0.285E-02    1.21       1.0  T
   3   -167.8048521  0.884220E-06  0.603E-03    1.21       1.9  T
   4   -167.8048541 -0.197528E-05  0.244E-03    1.21       4.7  T
   5   -167.8048541 -0.623043E-07  0.121E-03    1.21       9.5  T
   6   -167.8048542 -0.373608E-07  0.555E-04    1.21      20.8  T
   7   -167.8048542 -0.139104E-07  0.178E-04    1.21      64.9  T
     SCC iter.                  ...        0 min,  0.052 sec
     gradient                   ...        0 min,  0.017 sec
 * total energy  :  -166.0910896 Eh     change       -0.1191867E-03 Eh
   gradient norm :     0.0041526 Eh/α   predicted    -0.7894808E-04 ( -33.76%)
   displ. norm   :     0.4201718 α      lambda       -0.1552165E-03
   maximum displ.:     0.2726787 α      in ANC's #2, #5, #3, ...

........................................................................
.............................. CYCLE   52 ..............................
........................................................................
   1   -167.8067675 -0.167807E+03  0.556E-02    1.21       0.0  T
   2   -167.8067704 -0.297432E-05  0.325E-02    1.21       1.0  T
   3   -167.8067692  0.120059E-05  0.685E-03    1.21       1.7  T
   4   -167.8067719 -0.262773E-05  0.273E-03    1.21       4.2  T
   5   -167.8067720 -0.861559E-07  0.144E-03    1.21       8.0  T
   6   -167.8067720 -0.457205E-07  0.626E-04    1.21      18.4  T
   7   -167.8067720 -0.189736E-07  0.244E-04    1.21      47.4  T
     SCC iter.                  ...        0 min,  0.051 sec
     gradient                   ...        0 min,  0.017 sec
 * total energy  :  -166.0912204 Eh     change       -0.1307411E-03 Eh
   gradient norm :     0.0029849 Eh/α   predicted    -0.9131121E-04 ( -30.16%)
   displ. norm   :     0.4714663 α      lambda       -0.1544752E-03
   maximum displ.:     0.3091763 α      in ANC's #2, #5, #3, ...

........................................................................
.............................. CYCLE   53 ..............................
........................................................................
   1   -167.8078415 -0.167808E+03  0.610E-02    1.21       0.0  T
   2   -167.8078455 -0.397239E-05  0.357E-02    1.21       1.0  T
   3   -167.8078441  0.138867E-05  0.787E-03    1.21       1.5  T
   4   -167.8078472 -0.314922E-05  0.302E-03    1.21       3.8  T
   5   -167.8078473 -0.960134E-07  0.187E-03    1.21       6.2  T
   6   -167.8078474 -0.105816E-06  0.640E-04    1.21      18.0  T
   7   -167.8078475 -0.215215E-07  0.274E-04    1.21      42.1  T
     SCC iter.                  ...        0 min,  0.052 sec
     gradient                   ...        0 min,  0.017 sec
 * total energy  :  -166.0913490 Eh     change       -0.1286662E-03 Eh
   gradient norm :     0.0034400 Eh/α   predicted    -0.9441096E-04 ( -26.62%)
   displ. norm   :     0.5007847 α      lambda       -0.1688725E-03
   maximum displ.:     0.3305871 α      in ANC's #2, #5, #3, ...

........................................................................
.............................. CYCLE   54 ..............................
........................................................................
   1   -167.8083433 -0.167808E+03  0.632E-02    1.21       0.0  T
   2   -167.8083470 -0.369598E-05  0.369E-02    1.21       1.0  T
   3   -167.8083449  0.208099E-05  0.797E-03    1.21       1.4  T
   4   -167.8083488 -0.388838E-05  0.313E-03    1.21       3.7  T
   5   -167.8083489 -0.105029E-06  0.174E-03    1.21       6.6  T
   6   -167.8083490 -0.911011E-07  0.704E-04    1.21      16.4  T
   7   -167.8083490 -0.283602E-07  0.263E-04    1.21      43.9  T
     SCC iter.                  ...        0 min,  0.052 sec
     gradient                   ...        0 min,  0.017 sec
 * total energy  :  -166.0914863 Eh     change       -0.1372310E-03 Eh
   gradient norm :     0.0037636 Eh/α   predicted    -0.1056123E-03 ( -23.04%)
   displ. norm   :     0.5008876 α      lambda       -0.1629436E-03
   maximum displ.:     0.3326645 α      in ANC's #2, #5, #3, ...

........................................................................
.............................. CYCLE   55 ..............................
........................................................................
   1   -167.8082965 -0.167808E+03  0.624E-02    1.21       0.0  T
   2   -167.8083007 -0.413494E-05  0.365E-02    1.21       1.0  T
   3   -167.8082982  0.243071E-05  0.866E-03    1.21       1.3  T
   4   -167.8083024 -0.411438E-05  0.322E-03    1.21       3.6  T
   5   -167.8083026 -0.196720E-06  0.197E-03    1.21       5.8  T
   6   -167.8083027 -0.124575E-06  0.676E-04    1.21      17.1  T
   7   -167.8083027 -0.209898E-07  0.288E-04    1.21      40.1  T
     SCC iter.                  ...        0 min,  0.052 sec
     gradient                   ...        0 min,  0.017 sec
 * total energy  :  -166.0916310 Eh     change       -0.1447289E-03 Eh
   gradient norm :     0.0036838 Eh/α   predicted    -0.1019140E-03 ( -29.58%)
   displ. norm   :     0.5301088 α      lambda       -0.1724655E-03
   maximum displ.:     0.3536983 α      in ANC's #2, #5, #3, ...

........................................................................
.............................. CYCLE   56 ..............................
........................................................................
   1   -167.8074380 -0.167807E+03  0.662E-02    1.20       0.0  T
   2   -167.8074418 -0.383335E-05  0.386E-02    1.21       1.0  T
   3   -167.8074393  0.244482E-05  0.829E-03    1.20       1.4  T
   4   -167.8074434 -0.410404E-05  0.327E-03    1.21       3.5  T
   5   -167.8074436 -0.181107E-06  0.195E-03    1.20       5.9  T
   6   -167.8074438 -0.143403E-06  0.638E-04    1.21      18.1  T
   7   -167.8074438 -0.141410E-07  0.293E-04    1.21      39.4  T
     SCC iter.                  ...        0 min,  0.053 sec
     gradient                   ...        0 min,  0.017 sec
 * total energy  :  -166.0917802 Eh     change       -0.1491548E-03 Eh
   gradient norm :     0.0034331 Eh/α   predicted    -0.1104678E-03 ( -25.94%)
   displ. norm   :     0.5455916 α      lambda       -0.1751137E-03
   maximum displ.:     0.3657379 α      in ANC's #2, #5, #3, ...

........................................................................
.............................. CYCLE   57 ..............................
........................................................................
   1   -167.8069319 -0.167807E+03  0.690E-02    1.20       0.0  T
   2   -167.8069375 -0.559951E-05  0.404E-02    1.20       1.0  T
   3   -167.8069332  0.431762E-05  0.109E-02    1.20       1.1  T
   4   -167.8069398 -0.664627E-05  0.320E-03    1.20       3.6  T
   5   -167.8069399 -0.121849E-06  0.197E-03    1.20       5.9  T
   6   -167.8069401 -0.126745E-06  0.709E-04    1.20      16.3  T
   7   -167.8069401 -0.201313E-07  0.353E-04    1.20      32.7  T
     SCC iter.                  ...        0 min,  0.053 sec
     gradient                   ...        0 min,  0.017 sec
 * total energy  :  -166.0919096 Eh     change       -0.1294160E-03 Eh
   gradient norm :     0.0047170 Eh/α   predicted    -0.1136255E-03 ( -12.20%)
   displ. norm   :     0.4877675 α      lambda       -0.1514498E-03
   maximum displ.:     0.3313575 α      in ANC's #2, #5, #3, ...

........................................................................
.............................. CYCLE   58 ..............................
........................................................................
   1   -167.8068833 -0.167807E+03  0.613E-02    1.20       0.0  T
   2   -167.8068879 -0.462386E-05  0.358E-02    1.20       1.0  T
   3   -167.8068840  0.389748E-05  0.103E-02    1.20       1.1  T
   4   -167.8068897 -0.570846E-05  0.270E-03    1.20       4.3  T
   5   -167.8068899 -0.130366E-06  0.167E-03    1.20       6.9  T
   6   -167.8068899 -0.792157E-07  0.603E-04    1.20      19.2  T
   7   -167.8068900 -0.131829E-07  0.307E-04    1.20      37.6  T
     SCC iter.                  ...        0 min,  0.052 sec
     gradient                   ...        0 min,  0.017 sec
 * total energy  :  -166.0920198 Eh     change       -0.1102088E-03 Eh
   gradient norm :     0.0046526 Eh/α   predicted    -0.9374306E-04 ( -14.94%)
   displ. norm   :     0.4098688 α      lambda       -0.1052190E-03
   maximum displ.:     0.2821156 α      in ANC's #2, #5, #3, ...

........................................................................
.............................. CYCLE   59 ..............................
........................................................................
   1   -167.8049837 -0.167805E+03  0.520E-02    1.19       0.0  T
   2   -167.8049887 -0.504596E-05  0.305E-02    1.19       1.0  T
   3   -167.8049851  0.361898E-05  0.976E-03    1.20       1.2  T
   4   -167.8049902 -0.511775E-05  0.272E-03    1.19       4.2  T
   5   -167.8049905 -0.244614E-06  0.158E-03    1.20       7.3  T
   6   -167.8049906 -0.712811E-07  0.778E-04    1.20      14.8  T
   7   -167.8049906 -0.822959E-08  0.364E-04    1.20      31.7  T
     SCC iter.                  ...        0 min,  0.053 sec
     gradient                   ...        0 min,  0.017 sec
 * total energy  :  -166.0920972 Eh     change       -0.7745234E-04 Eh
   gradient norm :     0.0053313 Eh/α   predicted    -0.6145038E-04 ( -20.66%)
   displ. norm   :     0.3888341 α      lambda       -0.1372016E-03
   maximum displ.:     0.2742112 α      in ANC's #2, #5, #3, ...

........................................................................
.............................. CYCLE   60 ..............................
........................................................................
   1   -167.8084262 -0.167808E+03  0.473E-02    1.20       0.0  T
   2   -167.8084306 -0.439807E-05  0.278E-02    1.20       1.0  T
[...]
       139        2.0000           -0.4289934             -11.6735
       140        2.0000           -0.4215317             -11.4705
       141        2.0000           -0.4165011             -11.3336
       142        2.0000           -0.3869904             -10.5305 (HOMO)
       143                         -0.3435511              -9.3485 (LUMO)
       144                         -0.3393757              -9.2349
       145                         -0.3366226              -9.1600
       146                         -0.3327476              -9.0545
       147                         -0.3325679              -9.0496
       148                         -0.3124315              -8.5017
       149                         -0.2975896              -8.0978
       150                         -0.2816598              -7.6644
       151                         -0.2670667              -7.2673
       152                         -0.2527436              -6.8775
       153                         -0.2463746              -6.7042
       ...                                ...                  ...
       253                          0.6940181              18.8852
      -------------------------------------------------------------
                  HL-Gap            0.0434394 Eh            1.1820 eV
             Fermi-level           -0.3652769 Eh           -9.9397 eV

     #   Z          covCN         q      C6AA      α(0)
     1   6 C        3.061     0.078    26.194     8.393
     2   8 O        1.731    -0.149    16.541     5.492
     3   6 C        3.080     0.124    25.192     8.229
     4   6 C        3.023    -0.021    28.515     8.759
     5   6 C        2.989    -0.051    29.265     8.874
     6   7 N        2.756     0.556    13.418     5.440
     7   8 O        0.933    -0.381    21.265     6.184
     8   8 O        0.930    -0.386    21.367     6.199
     9   6 C        3.088     0.115    25.376     8.257
    10   8 O        1.732    -0.139    16.400     5.468
    11   6 C        3.060     0.135    24.999     8.199
    12   6 C        3.013    -0.027    28.653     8.781
    13   6 C        2.986    -0.051    29.249     8.872
    14   7 N        2.756     0.550    13.481     5.453
    15   8 O        0.931    -0.399    21.619     6.236
    16   8 O        0.933    -0.377    21.186     6.173
    17   6 C        3.067     0.114    25.434     8.270
    18   8 O        1.736    -0.159    16.699     5.518
    19   6 C        3.101     0.142    24.804     8.161
    20   6 C        3.009    -0.029    28.710     8.789
    21   6 C        2.975    -0.048    29.175     8.860
    22   7 N        2.757     0.545    13.538     5.465
    23   8 O        0.933    -0.377    21.186     6.173
    24   8 O        0.931    -0.418    22.010     6.292
    25   6 C        2.993     0.002    27.975     8.676
    26  16 S        2.309     0.072   138.127    19.781
    27   6 C        3.024     0.023    27.477     8.598
    28   6 C        3.018    -0.019    28.456     8.750
    29   6 C        3.037     0.145    24.819     8.171
    30   8 O        1.702    -0.255    18.232     5.765
    31   6 C        3.792     0.137    18.377     6.105
    32   6 C        3.803    -0.064    21.720     6.635
    33   6 C        3.751    -0.110    22.675     6.791
    34   6 C        3.804    -0.064    21.730     6.636
    35   6 C        3.751    -0.107    22.615     6.782
    36   6 C        3.143    -0.021    28.277     8.701
    37   6 C        3.066    -0.050    29.161     8.855
    38   6 C        3.068    -0.073    29.750     8.944
    39   6 C        2.994     0.008    27.838     8.655
    40  16 S        2.288     0.050   139.042    19.846
    41   6 C        3.123     0.124    25.111     8.206
    42   8 O        1.731    -0.165    16.782     5.531
    43   6 C        3.053     0.126    25.197     8.232
    44   6 C        3.009    -0.021    28.507     8.758
    45   6 C        2.987    -0.063    29.567     8.920
    46   7 N        2.756     0.554    13.433     5.443
    47   8 O        0.933    -0.378    21.214     6.177
    48   8 O        0.931    -0.383    21.304     6.190
    49   6 C        3.128     0.114    25.315     8.238
    50   8 O        1.731    -0.112    16.008     5.402
    51   6 C        3.049     0.096    25.824     8.334
    52   6 C        3.024    -0.017    28.413     8.744
    53   6 C        2.999    -0.051    29.264     8.874
    54   7 N        2.756     0.557    13.403     5.437
    55   8 O        0.932    -0.384    21.322     6.193
    56   8 O        0.932    -0.371    21.076     6.157
    57   1 H        0.926     0.087     1.909     2.161
    58   1 H        0.927     0.093     1.848     2.126
    59   1 H        0.927     0.099     1.795     2.095
    60   1 H        0.926     0.126     1.564     1.956
    61   1 H        0.924     0.056     2.246     2.344
    62   1 H        0.924     0.032     2.562     2.503
    63   1 H        0.925     0.049     2.327     2.385
    64   1 H        0.925     0.047     2.353     2.399
    65   1 H        0.925     0.043     2.410     2.428
    66   1 H        0.924     0.048     2.344     2.394
    67   1 H        0.925     0.058     2.224     2.332
    68   1 H        0.925     0.044     2.400     2.423
    69   1 H        0.925     0.052     2.297     2.370
    70   1 H        0.925     0.045     2.377     2.411
    71   1 H        0.926     0.103     1.761     2.075
    72   1 H        0.926     0.073     2.053     2.241
    73   1 H        0.927     0.089     1.885     2.147
    74   1 H        0.926     0.110     1.694     2.035
    75   1 H        0.927     0.101     1.778     2.085

 Mol. C6AA /au·bohr⁶  :      95265.391520
 Mol. C8AA /au·bohr⁸  :    2468621.656039
 Mol. α(0) /au        :        477.973653


Wiberg/Mayer (AO) data.
largest (>0.10) Wiberg bond orders for each atom

 ---------------------------------------------------------------------------
     #   Z sym  total        # sym  WBO       # sym  WBO       # sym  WBO
 ---------------------------------------------------------------------------
     1   6 C    3.887 --     5 C    1.611     2 O    1.129    57 H    0.962
                             3 C    0.113
     2   8 O    2.469 --     3 C    1.143     1 C    1.129
     3   6 C    3.924 --     4 C    1.402     2 O    1.143     9 C    1.121
                             1 C    0.113
     4   6 C    3.940 --     3 C    1.402     5 C    1.261     6 N    0.996
     5   6 C    3.976 --     1 C    1.611     4 C    1.261    58 H    0.966
     6   7 N    3.917 --     8 O    1.442     7 O    1.442     4 C    0.996
     7   8 O    1.918 --     6 N    1.442     8 O    0.361
     8   8 O    1.932 --     6 N    1.442     7 O    0.361
     9   6 C    3.907 --    13 C    1.488     3 C    1.121    10 O    1.095
    10   8 O    2.466 --    11 C    1.146     9 C    1.095
    11   6 C    3.903 --    12 C    1.353    17 C    1.150    10 O    1.146
    12   6 C    3.936 --    11 C    1.353    13 C    1.292    14 N    1.015
    13   6 C    3.971 --     9 C    1.488    12 C    1.292    59 H    0.965
    14   7 N    3.912 --    16 O    1.438    15 O    1.420    12 C    1.015
    15   8 O    1.907 --    14 N    1.420    16 O    0.351
    16   8 O    1.917 --    14 N    1.438    15 O    0.351
    17   6 C    3.895 --    21 C    1.476    11 C    1.150    18 O    1.065
    18   8 O    2.443 --    19 C    1.141    17 C    1.065
    19   6 C    3.902 --    20 C    1.310    25 C    1.213    18 O    1.141
    20   6 C    3.930 --    19 C    1.310    21 C    1.302    22 N    1.028
    21   6 C    3.960 --    17 C    1.476    20 C    1.302    60 H    0.954
    22   7 N    3.907 --    23 O    1.439    24 O    1.399    20 C    1.028
    23   8 O    1.912 --    22 N    1.439    24 O    0.339
    24   8 O    1.884 --    22 N    1.399    23 O    0.339
    25   6 C    3.924 --    37 C    1.400    19 C    1.213    26 S    1.111
    26  16 S    2.644 --    27 C    1.190    25 C    1.111
    27   6 C    3.937 --    36 C    1.358    28 C    1.208    26 S    1.190
    28   6 C    3.923 --    29 C    1.331    27 C    1.208    40 S    1.142
    29   6 C    3.926 --    28 C    1.331    38 C    1.296    30 O    1.112
    30   8 O    2.264 --    29 C    1.112    31 C    0.912
    31   6 C    3.922 --    36 C    0.980    34 C    0.976    32 C    0.959
                            30 O    0.912
    32   6 C    3.987 --    33 C    1.020    62 H    0.976    61 H    0.970
                            31 C    0.959
    33   6 C    3.993 --    32 C    1.020    63 H    0.984    64 H    0.984
                            65 H    0.983
    34   6 C    3.989 --    35 C    1.019    31 C    0.976    66 H    0.975
                            67 H    0.969
    35   6 C    3.993 --    34 C    1.019    69 H    0.986    70 H    0.985
                            68 H    0.985
    36   6 C    3.962 --    37 C    1.389    27 C    1.358    31 C    0.980
    37   6 C    3.968 --    25 C    1.400    36 C    1.389    71 H    0.941
    38   6 C    3.967 --    39 C    1.455    29 C    1.296    72 H    0.960
    39   6 C    3.928 --    38 C    1.455    41 C    1.153    40 S    1.148
    40  16 S    2.620 --    39 C    1.148    28 C    1.142
    41   6 C    3.900 --    45 C    1.475    39 C    1.153    42 O    1.085
    42   8 O    2.445 --    43 C    1.135    41 C    1.085
    43   6 C    3.905 --    44 C    1.385    42 O    1.135    49 C    1.125
    44   6 C    3.952 --    43 C    1.385    45 C    1.289    46 N    0.997
    45   6 C    3.954 --    41 C    1.475    44 C    1.289    73 H    0.967
    46   7 N    3.918 --    48 O    1.443    47 O    1.442    44 C    0.997
    47   8 O    1.922 --    46 N    1.442    48 O    0.363
    48   8 O    1.933 --    46 N    1.443    47 O    0.363
    49   6 C    3.914 --    53 C    1.486    43 C    1.125    50 O    1.101
                            51 C    0.109
    50   8 O    2.513 --    51 C    1.216    49 C    1.101
    51   6 C    3.892 --    52 C    1.465    50 O    1.216    74 H    0.956
                            49 C    0.109
    52   6 C    3.954 --    51 C    1.465    53 C    1.285    54 N    0.991
    53   6 C    3.960 --    49 C    1.486    52 C    1.285    75 H    0.966
    54   7 N    3.920 --    56 O    1.452    55 O    1.445    52 C    0.991
    55   8 O    1.930 --    54 N    1.445    56 O    0.368
    56   8 O    1.940 --    54 N    1.452    55 O    0.368
    57   1 H    0.991 --     1 C    0.962
    58   1 H    0.991 --     5 C    0.966
    59   1 H    0.990 --    13 C    0.965
    60   1 H    0.983 --    21 C    0.954
    61   1 H    0.995 --    32 C    0.970
    62   1 H    0.999 --    32 C    0.976
    63   1 H    0.997 --    33 C    0.984
    64   1 H    0.997 --    33 C    0.984
    65   1 H    0.998 --    33 C    0.983
    66   1 H    0.998 --    34 C    0.975
    67   1 H    0.996 --    34 C    0.969
    68   1 H    0.998 --    35 C    0.985
    69   1 H    0.997 --    35 C    0.986
    70   1 H    0.997 --    35 C    0.985
    71   1 H    0.989 --    37 C    0.941
    72   1 H    0.994 --    38 C    0.960
    73   1 H    0.992 --    45 C    0.967
    74   1 H    0.987 --    51 C    0.956
    75   1 H    0.990 --    53 C    0.966
 ---------------------------------------------------------------------------

Topologies differ in total number of bonds
Writing corrected topology to xtbtopo.mol

molecular dipole:
                 x           y           z       tot (Debye)
 q only:        0.480      -0.643      -0.717
   full:        0.530      -0.729      -0.625       2.788
molecular quadrupole (traceless):
                xx          xy          yy          xz          yz          zz
 q only:        4.802      56.457     -15.511      40.549     -75.190      10.709
  q+dip:        6.874      63.518     -19.226      37.916     -73.717      12.352
   full:       10.874      69.044     -17.591      38.035     -74.574       6.717

           -------------------------------------------------
          |                Geometry Summary                 |
           -------------------------------------------------

      molecular mass/u    :      805.6587285
   center of mass at/Å    :        0.1725365      -1.0844193       0.6496933
  moments of inertia/u·Å² :        0.9970773E+04   0.2066228E+05   0.3013905E+05
rotational constants/cm⁻¹ :        0.1690705E-02   0.8158650E-03   0.5593285E-03

 * 79 selected distances

     #   Z          #   Z                                           value/Å
     1   6 C        2   8 O                                       1.3455242
     2   8 O        3   6 C                                       1.3404631
     3   6 C        4   6 C                                       1.3912128
     1   6 C        5   6 C                                       1.3578341
     4   6 C        5   6 C                                       1.4208660
     4   6 C        6   7 N                                       1.4212915
     6   7 N        7   8 O                                       1.2132469
     6   7 N        8   8 O                                       1.2124429
     3   6 C        9   6 C                                       1.4325404
     9   6 C       10   8 O                                       1.3496281
    10   8 O       11   6 C                                       1.3385134
    11   6 C       12   6 C                                       1.3975881
     9   6 C       13   6 C                                       1.3735703
    12   6 C       13   6 C                                       1.4150598
    12   6 C       14   7 N                                       1.4135642
    14   7 N       15   8 O                                       1.2150824
    14   7 N       16   8 O                                       1.2126755
    11   6 C       17   6 C                                       1.4256230
    17   6 C       18   8 O                                       1.3616344
    18   8 O       19   6 C                                       1.3385551
    19   6 C       20   6 C                                       1.4076958
    17   6 C       21   6 C                                       1.3735582
    20   6 C       21   6 C                                       1.4142811
    20   6 C       22   7 N                                       1.4093834
    22   7 N       23   8 O                                       1.2127756
    22   7 N       24   8 O                                       1.2198718
    19   6 C       25   6 C                                       1.4135616
    25   6 C       26  16 S                                       1.7516272 (max)
    26  16 S       27   6 C                                       1.7166723
    27   6 C       28   6 C                                       1.4108134
    28   6 C       29   6 C                                       1.3947017
    29   6 C       30   8 O                                       1.3371441
    32   6 C       33   6 C                                       1.5218153
    31   6 C       34   6 C                                       1.5359847
    34   6 C       35   6 C                                       1.5241817
    27   6 C       36   6 C                                       1.3946839
    25   6 C       37   6 C                                       1.3865460
    36   6 C       37   6 C                                       1.3895274
    29   6 C       38   6 C                                       1.4019891
    38   6 C       39   6 C                                       1.3790399
    28   6 C       40  16 S                                       1.7249567
    39   6 C       40  16 S                                       1.7372288
    39   6 C       41   6 C                                       1.4248172
    41   6 C       42   8 O                                       1.3571239
    42   8 O       43   6 C                                       1.3423982
    43   6 C       44   6 C                                       1.3924586
    41   6 C       45   6 C                                       1.3746178
    44   6 C       45   6 C                                       1.4142263
    44   6 C       46   7 N                                       1.4213669
    46   7 N       47   8 O                                       1.2126741
    46   7 N       48   8 O                                       1.2114111
    43   6 C       49   6 C                                       1.4324469
    49   6 C       50   8 O                                       1.3521432
    50   8 O       51   6 C                                       1.3197884
    51   6 C       52   6 C                                       1.3788801
    49   6 C       53   6 C                                       1.3776702
    52   6 C       53   6 C                                       1.4141224
    52   6 C       54   7 N                                       1.4220358
    54   7 N       55   8 O                                       1.2120644
    54   7 N       56   8 O                                       1.2103496
     1   6 C       57   1 H                                       1.0714376
     5   6 C       58   1 H                                       1.0699215
    13   6 C       59   1 H                                       1.0700625
    21   6 C       60   1 H                                       1.0710730
    32   6 C       61   1 H                                       1.0907051
    32   6 C       62   1 H                                       1.0941053
    33   6 C       63   1 H                                       1.0858694
    33   6 C       64   1 H                                       1.0871826
    33   6 C       65   1 H                                       1.0870129
    34   6 C       66   1 H                                       1.0920475
    34   6 C       67   1 H                                       1.0884402
    35   6 C       68   1 H                                       1.0863854
    35   6 C       69   1 H                                       1.0862467
    35   6 C       70   1 H                                       1.0869385
    37   6 C       71   1 H                                       1.0731424
    38   6 C       72   1 H                                       1.0728879
    45   6 C       73   1 H                                       1.0692241 (min)
    51   6 C       74   1 H                                       1.0727296
    53   6 C       75   1 H                                       1.0700580

 * 6 distinct bonds (by element types)

   Z      Z             #   av. dist./Å        max./Å        min./Å
   1 H    6 C          19     1.0802879     1.0941053     1.0692241
   6 C    6 C          30     1.4123971     1.5359847     1.3578341
   6 C    7 N           5     1.4175284     1.4220358     1.4093834
   6 C    8 O          11     1.3439015     1.3616344     1.3197884
   7 N    8 O          10     1.2132594     1.2198718     1.2103496
   6 C   16 S           4     1.7326213     1.7516272     1.7166723


optimized geometry written to: xtbopt.mol


           -------------------------------------------------
          | TOTAL ENERGY             -166.093677442620 Eh   |
          | GRADIENT NORM               0.000340966151 Eh/α |
          | HOMO-LUMO GAP               1.182044992959 eV   |
           -------------------------------------------------

------------------------------------------------------------------------
 * finished run on 2022/03/02 at 05:38:17.303     
------------------------------------------------------------------------
 total:
 * wall-time:     0 d,  0 h,  0 min,  9.183 sec
 *  cpu-time:     0 d,  0 h,  1 min, 12.748 sec
 * ratio c/w:     7.922 speedup
 SCF:
 * wall-time:     0 d,  0 h,  0 min,  0.123 sec
 *  cpu-time:     0 d,  0 h,  0 min,  0.972 sec
 * ratio c/w:     7.921 speedup
 ANC optimizer:
 * wall-time:     0 d,  0 h,  0 min,  8.820 sec
 *  cpu-time:     0 d,  0 h,  1 min, 10.409 sec
 * ratio c/w:     7.982 speedup

