      -----------------------------------------------------------      
     |                   =====================                   |     
     |                           x T B                           |     
     |                   =====================                   |     
     |                         S. Grimme                         |     
     |          Mulliken Center for Theoretical Chemistry        |     
     |                    University of Bonn                     |     
      -----------------------------------------------------------      

   * xtb version 6.4.1 (unknown) compiled by 'oda6@login1.crc.pitt.edu' on 2021-06-25

   xtb is free software: you can redistribute it and/or modify it under
   the terms of the GNU Lesser General Public License as published by
   the Free Software Foundation, either version 3 of the License, or
   (at your option) any later version.
   
   xtb is distributed in the hope that it will be useful,
   but WITHOUT ANY WARRANTY; without even the implied warranty of
   MERCHANTABILITY or FITNESS FOR A PARTICULAR PURPOSE.  See the
   GNU Lesser General Public License for more details.
   
   Cite this work as:
   * C. Bannwarth, E. Caldeweyher, S. Ehlert, A. Hansen, P. Pracht,
     J. Seibert, S. Spicher, S. Grimme, WIREs Comput. Mol. Sci., 2020, 11,
     e01493. DOI: 10.1002/wcms.1493
   
   for GFN2-xTB:
   * C. Bannwarth, S. Ehlert and S. Grimme., J. Chem. Theory Comput., 2019,
     15, 1652-1671. DOI: 10.1021/acs.jctc.8b01176
   for GFN1-xTB:
   * S. Grimme, C. Bannwarth, P. Shushkov, J. Chem. Theory Comput., 2017,
     13, 1989-2009. DOI: 10.1021/acs.jctc.7b00118
   for GFN0-xTB:
   * P. Pracht, E. Caldeweyher, S. Ehlert, S. Grimme, ChemRxiv, 2019, preprint.
     DOI: 10.26434/chemrxiv.8326202.v1
   for GFN-FF:
   * S. Spicher and S. Grimme, Angew. Chem. Int. Ed., 2020, 59, 15665-15673.
     DOI: 10.1002/anie.202004239
   
   for DFT-D4:
   * E. Caldeweyher, C. Bannwarth and S. Grimme, J. Chem. Phys., 2017,
     147, 034112. DOI: 10.1063/1.4993215
   * E. Caldeweyher, S. Ehlert, A. Hansen, H. Neugebauer, S. Spicher,
     C. Bannwarth and S. Grimme, J. Chem. Phys., 2019, 150, 154122.
     DOI: 10.1063/1.5090222
   * E. Caldeweyher, J.-M. Mewes, S. Ehlert and S. Grimme, Phys. Chem. Chem. Phys.
     2020, 22, 8499-8512. DOI: 10.1039/D0CP00502A
   
   for sTDA-xTB:
   * S. Grimme and C. Bannwarth, J. Chem. Phys., 2016, 145, 054103.
     DOI: 10.1063/1.4959605
   
   in the mass-spec context:
   * V. Asgeirsson, C. Bauer and S. Grimme, Chem. Sci., 2017, 8, 4879.
     DOI: 10.1039/c7sc00601b
   * J. Koopman and S. Grimme, ACS Omega 2019, 4, 12, 15120-15133.
     DOI: 10.1021/acsomega.9b02011
   
   for metadynamics refer to:
   * S. Grimme, J. Chem. Theory Comput., 2019, 155, 2847-2862
     DOI: 10.1021/acs.jctc.9b00143
   
   for SPH calculations refer to:
   * S. Spicher and S. Grimme, J. Chem. Theory Comput., 2021, 17, 1701-1714
     DOI: 10.1021/acs.jctc.0c01306
   
   with help from (in alphabetical order)
   P. Atkinson, C. Bannwarth, F. Bohle, G. Brandenburg, E. Caldeweyher
   M. Checinski, S. Dohm, S. Ehlert, S. Ehrlich, I. Gerasimov, J. Koopman
   C. Lavigne, S. Lehtola, F. März, M. Müller, F. Musil, H. Neugebauer
   J. Pisarek, C. Plett, P. Pracht, J. Seibert, P. Shushkov, S. Spicher
   M. Stahn, M. Steiner, T. Strunk, J. Stückrath, T. Rose, and J. Unsleber
   
 * started run on 2022/03/01 at 22:43:13.338     

           -------------------------------------------------
          |                Calculation Setup                |
           -------------------------------------------------

          program call               : /ihome/ghutchison/oda6/xtb/xtb-641/bin/xtb ../../FF_optimized/121_61_001110.mol -opt
          hostname                   : smp-n90
          coordinate file            : ../../FF_optimized/121_61_001110.mol
          omp threads                :                     8
          number of atoms            :                   212
          number of electrons        :                   704
          charge                     :                     0
          spin                       :                   0.0
          first test random number   :      0.47599711989041

   ID    Z sym.   atoms
    1    6 C      1, 3-5, 7-15, 17, 19-21, 23-31, 33-37, 39-42, 44, 46-49,
                  51-55, 58, 60, 61, 63-67, 69-72, 74, 76-79, 81-85, 88, 90,
                  91, 93-97, 99-102, 104, 106-109, 111-115, 118, 120, 121,
                  123, 125-127, 129-137
    2   16 S      2, 16, 18, 32, 38, 50, 59, 62, 68, 80, 89, 92, 98, 110,
                  119, 122, 124, 138
    3    8 O      6, 22, 128
    4   17 Cl     43, 45, 56, 57, 73, 75, 86, 87, 103, 105, 116, 117
    5    1 H      139-212
########################################################################
[WARNING] Please study the warnings concerning your input carefully
-1- prog_main_parseArguments: the use of '-opt' is discouraged, please use '--opt' next time
########################################################################

           -------------------------------------------------
          |                 G F N 2 - x T B                 |
           -------------------------------------------------

        Reference                      10.1021/acs.jctc.8b01176
      * Hamiltonian:
        H0-scaling (s, p, d)           1.850000    2.230000    2.230000
        zeta-weighting                 0.500000
      * Dispersion:
        s8                             2.700000
        a1                             0.520000
        a2                             5.000000
        s9                             5.000000
      * Repulsion:
        kExp                           1.500000    1.000000
        rExp                           1.000000
      * Coulomb:
        alpha                          2.000000
        third order                    shell-resolved
        anisotropic                    true
        a3                             3.000000
        a5                             4.000000
        cn-shift                       1.200000
        cn-exp                         4.000000
        max-rad                        5.000000


          ...................................................
          :                      SETUP                      :
          :.................................................:
          :  # basis functions                 806          :
          :  # atomic orbitals                 776          :
          :  # shells                          380          :
          :  # electrons                       704          :
          :  max. iterations                   250          :
          :  Hamiltonian                  GFN2-xTB          :
          :  restarted?                      false          :
          :  GBSA solvation                  false          :
          :  PC potential                    false          :
          :  electronic temp.          300.0000000     K    :
          :  accuracy                    1.0000000          :
          :  -> integral cutoff          0.2500000E+02      :
          :  -> integral neglect         0.1000000E-07      :
          :  -> SCF convergence          0.1000000E-05 Eh   :
          :  -> wf. convergence          0.1000000E-03 e    :
          :  Broyden damping             0.4000000          :
          ...................................................

 iter      E             dE          RMSdq      gap      omega  full diag
   1   -392.2679581 -0.392268E+03  0.406E+00    1.43       0.0  T
   2   -392.5178471 -0.249889E+00  0.229E+00    1.35       1.0  T
   3   -392.3444248  0.173422E+00  0.119E+00    1.13       1.0  T
   4   -392.5339146 -0.189490E+00  0.564E-01    1.26       1.0  T
   5   -392.5773938 -0.434792E-01  0.199E-01    1.24       1.0  T
   6   -392.5800147 -0.262082E-02  0.114E-01    1.25       1.0  T
   7   -392.5810451 -0.103046E-02  0.718E-02    1.25       1.0  T
   8   -392.5814571 -0.411961E-03  0.527E-02    1.25       1.0  T
   9   -392.5815891 -0.132035E-03  0.399E-02    1.26       1.0  T
  10   -392.5817303 -0.141130E-03  0.238E-02    1.26       1.0  T
  11   -392.5817850 -0.547342E-04  0.139E-02    1.26       1.0  T
  12   -392.5818018 -0.168373E-04  0.770E-03    1.26       1.0  T
  13   -392.5818067 -0.483908E-05  0.418E-03    1.27       1.6  T
  14   -392.5818081 -0.139153E-05  0.293E-03    1.27       2.3  T
  15   -392.5818084 -0.389909E-06  0.239E-03    1.27       2.9  T
  16   -392.5818090 -0.548395E-06  0.159E-03    1.27       4.3  T
  17   -392.5818093 -0.256258E-06  0.105E-03    1.27       6.5  T
  18   -392.5818094 -0.120160E-06  0.642E-04    1.27      10.7  T
  19   -392.5818094 -0.377343E-07  0.418E-04    1.27      16.4  T

   *** convergence criteria satisfied after 19 iterations ***

         #    Occupation            Energy/Eh            Energy/eV
      -------------------------------------------------------------
         1        2.0000           -1.0646821             -28.9715
       ...           ...                  ...                  ...
       346        2.0000           -0.3884865             -10.5713
       347        2.0000           -0.3730680             -10.1517
       348        2.0000           -0.3724835             -10.1358
       349        2.0000           -0.3703512             -10.0778
       350        2.0000           -0.3645522              -9.9200
       351        2.0000           -0.3602513              -9.8029
       352        2.0000           -0.3529217              -9.6035 (HOMO)
       353                         -0.3063887              -8.3373 (LUMO)
       354                         -0.2983070              -8.1173
       355                         -0.2913908              -7.9291
       356                         -0.2839778              -7.7274
       357                         -0.2756650              -7.5012
       ...                                ...                  ...
       776                          0.7761409              21.1199
      -------------------------------------------------------------
                  HL-Gap            0.0465330 Eh            1.2662 eV
             Fermi-level           -0.3296552 Eh           -8.9704 eV

 SCC (total)                   0 d,  0 h,  0 min,  1.296 sec
 SCC setup                      ...        0 min,  0.004 sec (  0.310%)
 Dispersion                     ...        0 min,  0.010 sec (  0.803%)
 classical contributions        ...        0 min,  0.000 sec (  0.033%)
 integral evaluation            ...        0 min,  0.053 sec (  4.072%)
 iterations                     ...        0 min,  1.051 sec ( 81.114%)
 molecular gradient             ...        0 min,  0.172 sec ( 13.270%)
 printout                       ...        0 min,  0.005 sec (  0.391%)

         :::::::::::::::::::::::::::::::::::::::::::::::::::::
         ::                     SUMMARY                     ::
         :::::::::::::::::::::::::::::::::::::::::::::::::::::
         :: total energy            -387.940059380930 Eh    ::
         :: gradient norm              0.376475922721 Eh/a0 ::
         :: HOMO-LUMO gap              1.266228645306 eV    ::
         ::.................................................::
         :: SCC energy              -392.581809411999 Eh    ::
         :: -> isotropic ES            0.115127656073 Eh    ::
         :: -> anisotropic ES          0.000500276686 Eh    ::
         :: -> anisotropic XC          0.109300904308 Eh    ::
         :: -> dispersion             -0.387562980038 Eh    ::
         :: repulsion energy           4.632932966262 Eh    ::
         :: add. restraining           0.000000000000 Eh    ::
         :: total charge              -0.000000000000 e     ::
         :::::::::::::::::::::::::::::::::::::::::::::::::::::

      ----------------------------------------------------------- 
     |                   =====================                   |
     |                        A N C O P T                        |
     |                   =====================                   |
     |               Approximate Normal Coordinate               |
     |                Rational Function Optimizer                |
      ----------------------------------------------------------- 

          ...................................................
          :                      SETUP                      :
          :.................................................:
          :   optimization level            normal          :
          :   max. optcycles                   636          :
          :   ANC micro-cycles                  20          :
          :   degrees of freedom               630          :
          :.................................................:
          :   RF solver                   davidson          :
          :   write xtbopt.log                true          :
          :   linear?                        false          :
          :   energy convergence         0.5000000E-05 Eh   :
          :   grad. convergence          0.1000000E-02 Eh/α :
          :   maximium RF displ.         1.0000000          :
          :   Hlow (freq-cutoff)         0.1000000E-01      :
          :   Hmax (freq-cutoff)         5.0000000          :
          :   S6 in model hess.         20.0000000          :
          ...................................................

generating ANC from model Hessian ...
Using Lindh-Hessian (1995)
 Shifting diagonal of input Hessian by   1.000140480785120E-002
 Lowest  eigenvalues of input Hessian
    0.010000    0.000000    0.000000    0.000000    0.000000    0.000000
    0.000000    0.010009    0.010013    0.010030    0.010037    0.010054
    0.010064    0.010069    0.010081    0.010089    0.010117    0.010125
 Highest eigenvalues
    2.029901    2.040070    2.040489    2.083588    2.098880    2.100082
 

........................................................................
.............................. CYCLE    1 ..............................
........................................................................
   1   -392.5818094 -0.392582E+03  0.268E-04    1.27       0.0  T
   2   -392.5818094 -0.102756E-08  0.234E-04    1.27      29.3  T
   3   -392.5818094 -0.363804E-08  0.190E-04    1.27      36.2  T
     SCC iter.                  ...        0 min,  0.169 sec
     gradient                   ...        0 min,  0.169 sec
 * total energy  :  -387.9400594 Eh     change       -0.2059687E-07 Eh
   gradient norm :     0.3764761 Eh/α   predicted     0.0000000E+00 (-100.00%)
   displ. norm   :     0.4313839 α      lambda       -0.1224535E+00
   maximum displ.:     0.1080828 α      in ANC's #549, #383, #343, ...

........................................................................
.............................. CYCLE    2 ..............................
........................................................................
   1   -392.7261929 -0.392726E+03  0.270E-01    1.22       0.0  T
   2   -392.7277893 -0.159645E-02  0.164E-01    1.23       1.0  T
   3   -392.7278279 -0.385922E-04  0.923E-02    1.25       1.0  T
   4   -392.7287203 -0.892372E-03  0.386E-02    1.24       1.0  T
   5   -392.7288193 -0.989964E-04  0.188E-02    1.24       1.0  T
   6   -392.7288498 -0.305102E-04  0.112E-02    1.24       1.0  T
   7   -392.7288584 -0.862693E-05  0.778E-03    1.24       1.0  T
   8   -392.7288614 -0.293174E-05  0.601E-03    1.24       1.1  T
   9   -392.7288643 -0.296071E-05  0.356E-03    1.23       1.9  T
  10   -392.7288656 -0.126483E-05  0.194E-03    1.23       3.5  T
  11   -392.7288660 -0.439362E-06  0.106E-03    1.23       6.5  T
  12   -392.7288661 -0.483253E-07  0.780E-04    1.23       8.8  T
  13   -392.7288661 -0.484777E-07  0.504E-04    1.23      13.6  T
     SCC iter.                  ...        0 min,  0.710 sec
     gradient                   ...        0 min,  0.169 sec
 * total energy  :  -388.0342308 Eh     change       -0.9417141E-01 Eh
   gradient norm :     0.2117032 Eh/α   predicted    -0.7263610E-01 ( -22.87%)
   displ. norm   :     0.4336333 α      lambda       -0.7030597E-01
   maximum displ.:     0.1214388 α      in ANC's #549, #383, #566, ...

........................................................................
.............................. CYCLE    3 ..............................
........................................................................
   1   -392.8380621 -0.392838E+03  0.276E-01    1.17       0.0  T
   2   -392.8404129 -0.235079E-02  0.168E-01    1.18       1.0  T
   3   -392.8411508 -0.737837E-03  0.947E-02    1.20       1.0  T
   4   -392.8418437 -0.692969E-03  0.456E-02    1.19       1.0  T
   5   -392.8419837 -0.139964E-03  0.223E-02    1.20       1.0  T
   6   -392.8420230 -0.392739E-04  0.138E-02    1.19       1.0  T
   7   -392.8420351 -0.121459E-04  0.965E-03    1.19       1.0  T
   8   -392.8420395 -0.436950E-05  0.730E-03    1.19       1.0  T
   9   -392.8420445 -0.506380E-05  0.407E-03    1.19       1.7  T
  10   -392.8420462 -0.160750E-05  0.210E-03    1.19       3.3  T
  11   -392.8420467 -0.526947E-06  0.117E-03    1.19       5.8  T
  12   -392.8420467 -0.598989E-07  0.889E-04    1.19       7.7  T
  13   -392.8420468 -0.601069E-07  0.590E-04    1.19      11.6  T
     SCC iter.                  ...        0 min,  0.703 sec
     gradient                   ...        0 min,  0.168 sec
 * total energy  :  -388.0777213 Eh     change       -0.4349051E-01 Eh
   gradient norm :     0.0547623 Eh/α   predicted    -0.4176990E-01 (  -3.96%)
   displ. norm   :     0.4509875 α      lambda       -0.1162323E-01
   maximum displ.:     0.0922607 α      in ANC's #129, #103, #56, ...

........................................................................
.............................. CYCLE    4 ..............................
........................................................................
   1   -392.8770041 -0.392877E+03  0.110E-01    1.15       0.0  T
   2   -392.8772560 -0.251913E-03  0.661E-02    1.16       1.0  T
   3   -392.8772510  0.500308E-05  0.395E-02    1.17       1.0  T
   4   -392.8774051 -0.154106E-03  0.158E-02    1.17       1.0  T
   5   -392.8774234 -0.183034E-04  0.815E-03    1.17       1.0  T
   6   -392.8774294 -0.593346E-05  0.491E-03    1.17       1.4  T
   7   -392.8774309 -0.151223E-05  0.347E-03    1.17       2.0  T
   8   -392.8774315 -0.584045E-06  0.264E-03    1.17       2.6  T
   9   -392.8774321 -0.623794E-06  0.149E-03    1.17       4.6  T
  10   -392.8774323 -0.241497E-06  0.734E-04    1.17       9.4  T
  11   -392.8774324 -0.565483E-07  0.442E-04    1.17      15.5  T
     SCC iter.                  ...        0 min,  0.591 sec
     gradient                   ...        0 min,  0.169 sec
 * total energy  :  -388.0857102 Eh     change       -0.7988835E-02 Eh
   gradient norm :     0.0199081 Eh/α   predicted    -0.6993660E-02 ( -12.46%)
   displ. norm   :     0.4926456 α      lambda       -0.4709849E-02
   maximum displ.:     0.1351554 α      in ANC's #56, #66, #81, ...

........................................................................
.............................. CYCLE    5 ..............................
........................................................................
   1   -392.9037434 -0.392904E+03  0.667E-02    1.14       0.0  T
   2   -392.9037747 -0.313371E-04  0.382E-02    1.15       1.0  T
   3   -392.9037222  0.525158E-04  0.202E-02    1.15       1.0  T
   4   -392.9037894 -0.672495E-04  0.634E-03    1.15       1.1  T
   5   -392.9037920 -0.250877E-05  0.352E-03    1.15       1.9  T
   6   -392.9037933 -0.133679E-05  0.184E-03    1.15       3.7  T
   7   -392.9037935 -0.225474E-06  0.134E-03    1.15       5.1  T
   8   -392.9037936 -0.889369E-07  0.105E-03    1.15       6.6  T
   9   -392.9037937 -0.813808E-07  0.627E-04    1.15      11.0  T
  10   -392.9037937 -0.520436E-07  0.324E-04    1.15      21.2  T
     SCC iter.                  ...        0 min,  0.543 sec
     gradient                   ...        0 min,  0.169 sec
 * total energy  :  -388.0891662 Eh     change       -0.3456033E-02 Eh
   gradient norm :     0.0124971 Eh/α   predicted    -0.2926636E-02 ( -15.32%)
   displ. norm   :     0.5102447 α      lambda       -0.2651933E-02
   maximum displ.:     0.1766582 α      in ANC's #56, #66, #36, ...

........................................................................
.............................. CYCLE    6 ..............................
........................................................................
   1   -392.9265913 -0.392927E+03  0.579E-02    1.14       0.0  T
   2   -392.9266002 -0.889220E-05  0.321E-02    1.14       1.0  T
   3   -392.9265782  0.220227E-04  0.123E-02    1.14       1.0  T
   4   -392.9266029 -0.247120E-04  0.437E-03    1.14       1.6  T
   5   -392.9266040 -0.109584E-05  0.217E-03    1.14       3.2  T
   6   -392.9266046 -0.632329E-06  0.894E-04    1.14       7.7  T
   7   -392.9266047 -0.866561E-07  0.574E-04    1.14      12.0  T
     SCC iter.                  ...        0 min,  0.374 sec
     gradient                   ...        0 min,  0.169 sec
 * total energy  :  -388.0911383 Eh     change       -0.1972122E-02 Eh
   gradient norm :     0.0117027 Eh/α   predicted    -0.1671284E-02 ( -15.25%)
   displ. norm   :     0.4949975 α      lambda       -0.1605872E-02
   maximum displ.:     0.2008887 α      in ANC's #56, #36, #45, ...

........................................................................
.............................. CYCLE    7 ..............................
........................................................................
   1   -392.9422612 -0.392942E+03  0.544E-02    1.13       0.0  T
   2   -392.9422713 -0.100973E-04  0.301E-02    1.13       1.0  T
   3   -392.9422487  0.225930E-04  0.127E-02    1.13       1.0  T
   4   -392.9422742 -0.254853E-04  0.439E-03    1.13       1.6  T
   5   -392.9422758 -0.160126E-05  0.198E-03    1.13       3.5  T
   6   -392.9422762 -0.386623E-06  0.924E-04    1.13       7.4  T
   7   -392.9422763 -0.126657E-06  0.469E-04    1.13      14.7  T
     SCC iter.                  ...        0 min,  0.387 sec
     gradient                   ...        0 min,  0.169 sec
 * total energy  :  -388.0923489 Eh     change       -0.1210636E-02 Eh
   gradient norm :     0.0098030 Eh/α   predicted    -0.9996738E-03 ( -17.43%)
   displ. norm   :     0.4849333 α      lambda       -0.1095994E-02
   maximum displ.:     0.2121855 α      in ANC's #56, #36, #27, ...

........................................................................
.............................. CYCLE    8 ..............................
........................................................................
   1   -392.9505052 -0.392951E+03  0.537E-02    1.13       0.0  T
   2   -392.9505142 -0.901004E-05  0.299E-02    1.13       1.0  T
   3   -392.9504942  0.200294E-04  0.118E-02    1.13       1.0  T
   4   -392.9505165 -0.223119E-04  0.420E-03    1.13       1.6  T
   5   -392.9505180 -0.153928E-05  0.191E-03    1.13       3.6  T
   6   -392.9505184 -0.369105E-06  0.877E-04    1.13       7.8  T
   7   -392.9505185 -0.106264E-06  0.491E-04    1.13      14.0  T
     SCC iter.                  ...        0 min,  0.387 sec
     gradient                   ...        0 min,  0.169 sec
 * total energy  :  -388.0931848 Eh     change       -0.8358572E-03 Eh
   gradient norm :     0.0067153 Eh/α   predicted    -0.6768692E-03 ( -19.02%)
   displ. norm   :     0.4838579 α      lambda       -0.8269860E-03
   maximum displ.:     0.2094111 α      in ANC's #56, #27, #36, ...

........................................................................
.............................. CYCLE    9 ..............................
........................................................................
   1   -392.9526148 -0.392953E+03  0.548E-02    1.12       0.0  T
   2   -392.9526210 -0.614232E-05  0.307E-02    1.12       1.0  T
   3   -392.9526033  0.176508E-04  0.107E-02    1.12       1.0  T
   4   -392.9526230 -0.196509E-04  0.379E-03    1.12       1.8  T
   5   -392.9526239 -0.935187E-06  0.186E-03    1.12       3.7  T
   6   -392.9526244 -0.435082E-06  0.793E-04    1.12       8.7  T
   7   -392.9526244 -0.694951E-07  0.530E-04    1.12      13.0  T
     SCC iter.                  ...        0 min,  0.382 sec
     gradient                   ...        0 min,  0.169 sec
 * total energy  :  -388.0938243 Eh     change       -0.6394819E-03 Eh
   gradient norm :     0.0055974 Eh/α   predicted    -0.5103054E-03 ( -20.20%)
   displ. norm   :     0.4959746 α      lambda       -0.6905395E-03
   maximum displ.:     0.1940100 α      in ANC's #56, #27, #41, ...

........................................................................
.............................. CYCLE   10 ..............................
........................................................................
   1   -392.9507820 -0.392951E+03  0.567E-02    1.12       0.0  T
   2   -392.9507864 -0.442493E-05  0.317E-02    1.12       1.0  T
   3   -392.9507703  0.161136E-04  0.992E-03    1.12       1.0  T
   4   -392.9507884 -0.180867E-04  0.358E-03    1.12       1.9  T
   5   -392.9507889 -0.480486E-06  0.183E-03    1.12       3.8  T
   6   -392.9507894 -0.537398E-06  0.705E-04    1.12       9.7  T
   7   -392.9507895 -0.389222E-07  0.529E-04    1.12      13.0  T
     SCC iter.                  ...        0 min,  0.385 sec
     gradient                   ...        0 min,  0.170 sec
 * total energy  :  -388.0943663 Eh     change       -0.5419740E-03 Eh
   gradient norm :     0.0067654 Eh/α   predicted    -0.4302102E-03 ( -20.62%)
   displ. norm   :     0.5109729 α      lambda       -0.6169901E-03
   maximum displ.:     0.1723006 α      in ANC's #27, #56, #22, ...

........................................................................
.............................. CYCLE   11 ..............................
........................................................................
   1   -392.9473342 -0.392947E+03  0.571E-02    1.12       0.0  T
   2   -392.9473385 -0.431510E-05  0.319E-02    1.12       1.0  T
   3   -392.9473256  0.128961E-04  0.883E-03    1.12       1.0  T
   4   -392.9473399 -0.142556E-04  0.361E-03    1.12       1.9  T
   5   -392.9473406 -0.722814E-06  0.174E-03    1.12       4.0  T
   6   -392.9473411 -0.485679E-06  0.654E-04    1.12      10.5  T
   7   -392.9473411 -0.332911E-07  0.479E-04    1.12      14.3  T
     SCC iter.                  ...        0 min,  0.373 sec
     gradient                   ...        0 min,  0.169 sec
 * total energy  :  -388.0948538 Eh     change       -0.4875542E-03 Eh
   gradient norm :     0.0072007 Eh/α   predicted    -0.3890670E-03 ( -20.20%)
   displ. norm   :     0.5119351 α      lambda       -0.5501980E-03
   maximum displ.:     0.1669409 α      in ANC's #27, #22, #56, ...

........................................................................
.............................. CYCLE   12 ..............................
........................................................................
   1   -392.9444692 -0.392944E+03  0.541E-02    1.12       0.0  T
   2   -392.9444738 -0.458823E-05  0.302E-02    1.12       1.0  T
   3   -392.9444642  0.961981E-05  0.789E-03    1.12       1.0  T
   4   -392.9444745 -0.103476E-04  0.354E-03    1.12       1.9  T
   5   -392.9444756 -0.106297E-05  0.160E-03    1.12       4.3  T
   6   -392.9444759 -0.347038E-06  0.654E-04    1.12      10.5  T
   7   -392.9444760 -0.406650E-07  0.444E-04    1.12      15.5  T
     SCC iter.                  ...        0 min,  0.377 sec
     gradient                   ...        0 min,  0.169 sec
 * total energy  :  -388.0952878 Eh     change       -0.4339436E-03 Eh
   gradient norm :     0.0062147 Eh/α   predicted    -0.3472295E-03 ( -19.98%)
   displ. norm   :     0.5050099 α      lambda       -0.4744969E-03
   maximum displ.:     0.1667158 α      in ANC's #22, #27, #21, ...

........................................................................
.............................. CYCLE   13 ..............................
........................................................................
   1   -392.9432871 -0.392943E+03  0.497E-02    1.12       0.0  T
   2   -392.9432913 -0.417801E-05  0.278E-02    1.12       1.0  T
   3   -392.9432813  0.100214E-04  0.832E-03    1.12       1.0  T
   4   -392.9432925 -0.112275E-04  0.323E-03    1.12       2.1  T
   5   -392.9432932 -0.651335E-06  0.146E-03    1.12       4.7  T
   6   -392.9432935 -0.281908E-06  0.624E-04    1.12      11.0  T
   7   -392.9432935 -0.313509E-07  0.442E-04    1.12      15.5  T
     SCC iter.                  ...        0 min,  0.379 sec
     gradient                   ...        0 min,  0.169 sec
 * total energy  :  -388.0956593 Eh     change       -0.3715777E-03 Eh
   gradient norm :     0.0052631 Eh/α   predicted    -0.2977575E-03 ( -19.87%)
   displ. norm   :     0.4878201 α      lambda       -0.3951053E-03
   maximum displ.:     0.1679070 α      in ANC's #22, #27, #21, ...

........................................................................
.............................. CYCLE   14 ..............................
........................................................................
   1   -392.9439745 -0.392944E+03  0.444E-02    1.12       0.0  T
   2   -392.9439778 -0.330772E-05  0.249E-02    1.12       1.0  T
   3   -392.9439670  0.107647E-04  0.871E-03    1.12       1.0  T
   4   -392.9439794 -0.123708E-04  0.288E-03    1.12       2.4  T
   5   -392.9439797 -0.311130E-06  0.137E-03    1.12       5.0  T
   6   -392.9439800 -0.258588E-06  0.607E-04    1.12      11.3  T
   7   -392.9439800 -0.252318E-07  0.452E-04    1.12      15.2  T
     SCC iter.                  ...        0 min,  0.389 sec
     gradient                   ...        0 min,  0.169 sec
 * total energy  :  -388.0959689 Eh     change       -0.3096057E-03 Eh
   gradient norm :     0.0053092 Eh/α   predicted    -0.2445910E-03 ( -21.00%)
   displ. norm   :     0.4780928 α      lambda       -0.3380446E-03
   maximum displ.:     0.1679968 α      in ANC's #22, #21, #27, ...

........................................................................
.............................. CYCLE   15 ..............................
........................................................................
   1   -392.9456511 -0.392946E+03  0.405E-02    1.12       0.0  T
   2   -392.9456539 -0.275784E-05  0.227E-02    1.12       1.0  T
   3   -392.9456451  0.876644E-05  0.802E-03    1.12       1.0  T
   4   -392.9456552 -0.101388E-04  0.267E-03    1.12       2.6  T
   5   -392.9456555 -0.252092E-06  0.128E-03    1.12       5.4  T
   6   -392.9456557 -0.211698E-06  0.614E-04    1.12      11.2  T
   7   -392.9456557 -0.269490E-07  0.460E-04    1.12      14.9  T
     SCC iter.                  ...        0 min,  0.381 sec
     gradient                   ...        0 min,  0.169 sec
 * total energy  :  -388.0962353 Eh     change       -0.2663867E-03 Eh
   gradient norm :     0.0051786 Eh/α   predicted    -0.2076586E-03 ( -22.05%)
   displ. norm   :     0.4746127 α      lambda       -0.2982922E-03
   maximum displ.:     0.1667261 α      in ANC's #22, #21, #2, ...

........................................................................
.............................. CYCLE   16 ..............................
........................................................................
   1   -392.9475009 -0.392948E+03  0.372E-02    1.12       0.0  T
   2   -392.9475032 -0.237993E-05  0.208E-02    1.12       1.0  T
   3   -392.9474977  0.556420E-05  0.665E-03    1.12       1.0  T
   4   -392.9475041 -0.639955E-05  0.251E-03    1.12       2.7  T
   5   -392.9475044 -0.310436E-06  0.114E-03    1.12       6.0  T
   6   -392.9475045 -0.141141E-06  0.611E-04    1.12      11.2  T
   7   -392.9475046 -0.292175E-07  0.449E-04    1.12      15.3  T
     SCC iter.                  ...        0 min,  0.377 sec
     gradient                   ...        0 min,  0.169 sec
 * total energy  :  -388.0964692 Eh     change       -0.2338777E-03 Eh
   gradient norm :     0.0044383 Eh/α   predicted    -0.1827482E-03 ( -21.86%)
   displ. norm   :     0.4668491 α      lambda       -0.2519882E-03
   maximum displ.:     0.1609865 α      in ANC's #22, #21, #2, ...

........................................................................
.............................. CYCLE   17 ..............................
........................................................................
   1   -392.9482581 -0.392948E+03  0.340E-02    1.12       0.0  T
   2   -392.9482600 -0.186869E-05  0.191E-02    1.12       1.0  T
   3   -392.9482560  0.399544E-05  0.570E-03    1.12       1.2  T
   4   -392.9482605 -0.451630E-05  0.227E-03    1.12       3.0  T
   5   -392.9482608 -0.317631E-06  0.970E-04    1.12       7.1  T
   6   -392.9482609 -0.958796E-07  0.530E-04    1.12      13.0  T
     SCC iter.                  ...        0 min,  0.326 sec
     gradient                   ...        0 min,  0.169 sec
 * total energy  :  -388.0966654 Eh     change       -0.1961652E-03 Eh
   gradient norm :     0.0040681 Eh/α   predicted    -0.1534569E-03 ( -21.77%)
   displ. norm   :     0.4359697 α      lambda       -0.2068862E-03
   maximum displ.:     0.1442086 α      in ANC's #22, #21, #2, ...

........................................................................
.............................. CYCLE   18 ..............................
........................................................................
   1   -392.9490607 -0.392949E+03  0.283E-02    1.12       0.0  T
   2   -392.9490618 -0.110696E-05  0.161E-02    1.12       1.0  T
   3   -392.9490582  0.353030E-05  0.503E-03    1.12       1.4  T
   4   -392.9490622 -0.398263E-05  0.181E-03    1.12       3.8  T
   5   -392.9490624 -0.184689E-06  0.827E-04    1.12       8.3  T
   6   -392.9490625 -0.744474E-07  0.466E-04    1.12      14.7  T
     SCC iter.                  ...        0 min,  0.327 sec
     gradient                   ...        0 min,  0.169 sec
 * total energy  :  -388.0968253 Eh     change       -0.1599043E-03 Eh
   gradient norm :     0.0045461 Eh/α   predicted    -0.1231071E-03 ( -23.01%)
   displ. norm   :     0.4329194 α      lambda       -0.1786692E-03
   maximum displ.:     0.1398226 α      in ANC's #21, #22, #2, ...

........................................................................
.............................. CYCLE   19 ..............................
........................................................................
   1   -392.9469768 -0.392947E+03  0.275E-02    1.11       0.0  T
   2   -392.9469779 -0.109873E-05  0.156E-02    1.11       1.0  T
   3   -392.9469737  0.423502E-05  0.529E-03    1.11       1.3  T
   4   -392.9469785 -0.479095E-05  0.174E-03    1.11       4.0  T
   5   -392.9469786 -0.148202E-06  0.842E-04    1.11       8.2  T
   6   -392.9469787 -0.857368E-07  0.456E-04    1.11      15.1  T
     SCC iter.                  ...        0 min,  0.331 sec
     gradient                   ...        0 min,  0.171 sec
 * total energy  :  -388.0969596 Eh     change       -0.1343460E-03 Eh
   gradient norm :     0.0042727 Eh/α   predicted    -0.1060830E-03 ( -21.04%)
   displ. norm   :     0.4101753 α      lambda       -0.1863691E-03
   maximum displ.:     0.1310310 α      in ANC's #2, #7, #21, ...

........................................................................
.............................. CYCLE   20 ..............................
........................................................................
   1   -392.9507317 -0.392951E+03  0.258E-02    1.11       0.0  T
   2   -392.9507339 -0.210089E-05  0.148E-02    1.11       1.0  T
   3   -392.9507278  0.604192E-05  0.626E-03    1.11       1.1  T
   4   -392.9507348 -0.698240E-05  0.209E-03    1.11       3.3  T
   5   -392.9507351 -0.339649E-06  0.117E-03    1.11       5.9  T
   6   -392.9507352 -0.101275E-06  0.737E-04    1.11       9.3  T
   7   -392.9507353 -0.447007E-07  0.547E-04    1.11      12.6  T
     SCC iter.                  ...        0 min,  0.384 sec
     gradient                   ...        0 min,  0.169 sec
 * total energy  :  -388.0970689 Eh     change       -0.1093228E-03 Eh
   gradient norm :     0.0058916 Eh/α   predicted    -0.1088692E-03 (  -0.41%)
   displ. norm   :     0.3461012 α      lambda       -0.1556433E-03
   maximum displ.:     0.1186096 α      in ANC's #2, #7, #21, ...
 * RMSD in coord.:     0.4589890 α      energy gain  -0.1570096E+00 Eh

generating ANC from model Hessian ...
Using Lindh-Hessian (1995)
 Shifting diagonal of input Hessian by   1.000403685180796E-002
 Lowest  eigenvalues of input Hessian
    0.010000    0.000000    0.000000    0.000000    0.000000    0.000000
    0.000000    0.010009    0.010017    0.010033    0.010040    0.010055
    0.010071    0.010078    0.010092    0.010100    0.010129    0.010136
 Highest eigenvalues
    2.050408    2.077499    2.078802    2.086319    2.109909    2.115999
 

........................................................................
.............................. CYCLE   21 ..............................
........................................................................
   1   -392.9474840 -0.392947E+03  0.210E-02    1.11       0.0  T
   2   -392.9474851 -0.110312E-05  0.119E-02    1.11       1.0  T
   3   -392.9474814  0.367410E-05  0.489E-03    1.11       1.4  T
   4   -392.9474857 -0.426200E-05  0.149E-03    1.11       4.6  T
   5   -392.9474858 -0.102732E-06  0.856E-04    1.11       8.0  T
   6   -392.9474859 -0.852259E-07  0.462E-04    1.11      14.9  T
     SCC iter.                  ...        0 min,  0.321 sec
     gradient                   ...        0 min,  0.169 sec
 * total energy  :  -388.0971821 Eh     change       -0.1132079E-03 Eh
   gradient norm :     0.0039313 Eh/α   predicted     0.0000000E+00 (-100.00%)
   displ. norm   :     0.0639797 α      lambda       -0.7069192E-04
   maximum displ.:     0.0162575 α      in ANC's #8, #2, #40, ...

........................................................................
.............................. CYCLE   22 ..............................
........................................................................
   1   -392.9481191 -0.392948E+03  0.750E-03    1.11       0.0  T
   2   -392.9481193 -0.171891E-06  0.433E-03    1.11       1.6  T
   3   -392.9481185  0.786546E-06  0.232E-03    1.11       3.0  T
   4   -392.9481194 -0.942983E-06  0.609E-04    1.11      11.3  T
   5   -392.9481194 -0.176731E-07  0.374E-04    1.11      18.4  T
     SCC iter.                  ...        0 min,  0.269 sec
     gradient                   ...        0 min,  0.169 sec
 * total energy  :  -388.0972465 Eh     change       -0.6431520E-04 Eh
   gradient norm :     0.0023431 Eh/α   predicted    -0.3681080E-04 ( -42.77%)
   displ. norm   :     0.2669917 α      lambda       -0.2206547E-03
   maximum displ.:     0.0723742 α      in ANC's #8, #2, #40, ...

........................................................................
.............................. CYCLE   23 ..............................
........................................................................
   1   -392.9493729 -0.392949E+03  0.274E-02    1.11       0.0  T
   2   -392.9493747 -0.178602E-05  0.156E-02    1.11       1.0  T
   3   -392.9493667  0.798944E-05  0.740E-03    1.11       1.0  T
   4   -392.9493760 -0.931777E-05  0.193E-03    1.11       3.6  T
   5   -392.9493762 -0.171758E-06  0.106E-03    1.11       6.5  T
   6   -392.9493763 -0.118759E-06  0.563E-04    1.11      12.2  T
   7   -392.9493764 -0.221525E-07  0.428E-04    1.11      16.0  T
     SCC iter.                  ...        0 min,  0.380 sec
     gradient                   ...        0 min,  0.169 sec
 * total energy  :  -388.0973871 Eh     change       -0.1406844E-03 Eh
   gradient norm :     0.0030692 Eh/α   predicted    -0.1181928E-03 ( -15.99%)
   displ. norm   :     0.1767043 α      lambda       -0.7384390E-04
   maximum displ.:     0.0533652 α      in ANC's #2, #8, #40, ...

........................................................................
.............................. CYCLE   24 ..............................
........................................................................
   1   -392.9493818 -0.392949E+03  0.159E-02    1.11       0.0  T
   2   -392.9493821 -0.352773E-06  0.892E-03    1.11       1.0  T
   3   -392.9493811  0.987121E-06  0.279E-03    1.11       2.5  T
   4   -392.9493823 -0.113049E-05  0.103E-03    1.11       6.7  T
   5   -392.9493823 -0.434861E-07  0.486E-04    1.11      14.1  T
   6   -392.9493823 -0.308639E-07  0.256E-04    1.11      26.8  T
     SCC iter.                  ...        0 min,  0.322 sec
     gradient                   ...        0 min,  0.169 sec
 * total energy  :  -388.0974480 Eh     change       -0.6086390E-04 Eh
   gradient norm :     0.0040054 Eh/α   predicted    -0.3807496E-04 ( -37.44%)
   displ. norm   :     0.3366773 α      lambda       -0.1414894E-03
   maximum displ.:     0.1075921 α      in ANC's #2, #8, #17, ...

........................................................................
.............................. CYCLE   25 ..............................
........................................................................
   1   -392.9485718 -0.392949E+03  0.285E-02    1.11       0.0  T
   2   -392.9485728 -0.935508E-06  0.159E-02    1.12       1.0  T
   3   -392.9485710  0.172511E-05  0.386E-03    1.11       1.8  T
   4   -392.9485729 -0.186399E-05  0.182E-03    1.12       3.8  T
   5   -392.9485731 -0.199149E-06  0.756E-04    1.12       9.1  T
   6   -392.9485732 -0.997491E-07  0.281E-04    1.12      24.5  T
     SCC iter.                  ...        0 min,  0.328 sec
     gradient                   ...        0 min,  0.169 sec
 * total energy  :  -388.0975606 Eh     change       -0.1125410E-03 Eh
   gradient norm :     0.0039462 Eh/α   predicted    -0.7876500E-04 ( -30.01%)
   displ. norm   :     0.4027591 α      lambda       -0.1534383E-03
   maximum displ.:     0.1368719 α      in ANC's #2, #8, #4, ...

........................................................................
.............................. CYCLE   26 ..............................
........................................................................
   1   -392.9471949 -0.392947E+03  0.321E-02    1.12       0.0  T
   2   -392.9471962 -0.134969E-05  0.179E-02    1.12       1.0  T
   3   -392.9471930  0.328056E-05  0.499E-03    1.12       1.4  T
   4   -392.9471966 -0.365260E-05  0.206E-03    1.12       3.3  T
   5   -392.9471968 -0.222335E-06  0.853E-04    1.12       8.0  T
   6   -392.9471970 -0.120879E-06  0.350E-04    1.12      19.6  T
     SCC iter.                  ...        0 min,  0.323 sec
     gradient                   ...        0 min,  0.169 sec
 * total energy  :  -388.0976795 Eh     change       -0.1189335E-03 Eh
   gradient norm :     0.0028918 Eh/α   predicted    -0.8917154E-04 ( -25.02%)
   displ. norm   :     0.3878038 α      lambda       -0.1280829E-03
   maximum displ.:     0.1404358 α      in ANC's #2, #8, #4, ...

........................................................................
.............................. CYCLE   27 ..............................
........................................................................
   1   -392.9465601 -0.392947E+03  0.284E-02    1.12       0.0  T
   2   -392.9465614 -0.128625E-05  0.158E-02    1.12       1.0  T
   3   -392.9465573  0.408620E-05  0.535E-03    1.12       1.3  T
   4   -392.9465619 -0.462433E-05  0.189E-03    1.12       3.6  T
   5   -392.9465620 -0.156038E-06  0.901E-04    1.12       7.6  T
   6   -392.9465622 -0.123886E-06  0.413E-04    1.12      16.6  T
     SCC iter.                  ...        0 min,  0.325 sec
     gradient                   ...        0 min,  0.169 sec
 * total energy  :  -388.0977792 Eh     change       -0.9970083E-04 Eh
   gradient norm :     0.0022569 Eh/α   predicted    -0.7368011E-04 ( -26.10%)
   displ. norm   :     0.3724876 α      lambda       -0.1120059E-03
   maximum displ.:     0.1424842 α      in ANC's #2, #8, #4, ...

........................................................................
.............................. CYCLE   28 ..............................
........................................................................
   1   -392.9470423 -0.392947E+03  0.244E-02    1.11       0.0  T
   2   -392.9470432 -0.986580E-06  0.136E-02    1.12       1.0  T
   3   -392.9470398  0.344244E-05  0.485E-03    1.12       1.4  T
   4   -392.9470437 -0.389388E-05  0.165E-03    1.12       4.2  T
   5   -392.9470438 -0.120136E-06  0.854E-04    1.12       8.0  T
   6   -392.9470439 -0.106589E-06  0.415E-04    1.12      16.5  T
     SCC iter.                  ...        0 min,  0.324 sec
     gradient                   ...        0 min,  0.169 sec
 * total energy  :  -388.0978696 Eh     change       -0.9037213E-04 Eh
   gradient norm :     0.0027349 Eh/α   predicted    -0.6379667E-04 ( -29.41%)
   displ. norm   :     0.3990637 α      lambda       -0.1204503E-03
   maximum displ.:     0.1589046 α      in ANC's #2, #8, #4, ...

........................................................................
.............................. CYCLE   29 ..............................
........................................................................
   1   -392.9484448 -0.392948E+03  0.232E-02    1.11       0.0  T
   2   -392.9484456 -0.779953E-06  0.130E-02    1.11       1.0  T
   3   -392.9484430  0.257283E-05  0.418E-03    1.11       1.6  T
   4   -392.9484459 -0.287659E-05  0.152E-03    1.11       4.5  T
   5   -392.9484460 -0.110799E-06  0.783E-04    1.11       8.8  T
   6   -392.9484461 -0.921964E-07  0.380E-04    1.11      18.1  T
     SCC iter.                  ...        0 min,  0.328 sec
     gradient                   ...        0 min,  0.169 sec
 * total energy  :  -388.0979694 Eh     change       -0.9980198E-04 Eh
   gradient norm :     0.0033663 Eh/α   predicted    -0.6981684E-04 ( -30.04%)
   displ. norm   :     0.4525700 α      lambda       -0.1401185E-03
   maximum displ.:     0.1854303 α      in ANC's #2, #8, #4, ...

........................................................................
.............................. CYCLE   30 ..............................
........................................................................
   1   -392.9502814 -0.392950E+03  0.236E-02    1.11       0.0  T
   2   -392.9502821 -0.712247E-06  0.133E-02    1.11       1.0  T
   3   -392.9502803  0.176721E-05  0.356E-03    1.11       1.9  T
   4   -392.9502823 -0.195227E-05  0.147E-03    1.11       4.7  T
   5   -392.9502824 -0.117644E-06  0.716E-04    1.11       9.6  T
   6   -392.9502825 -0.840702E-07  0.334E-04    1.11      20.6  T
     SCC iter.                  ...        0 min,  0.323 sec
     gradient                   ...        0 min,  0.169 sec
 * total energy  :  -388.0980864 Eh     change       -0.1169996E-03 Eh
   gradient norm :     0.0035237 Eh/α   predicted    -0.8442073E-04 ( -27.85%)
   displ. norm   :     0.5014465 α      lambda       -0.1559261E-03
   maximum displ.:     0.2100399 α      in ANC's #2, #8, #4, ...

........................................................................
.............................. CYCLE   31 ..............................
........................................................................
   1   -392.9518040 -0.392952E+03  0.242E-02    1.11       0.0  T
   2   -392.9518048 -0.809617E-06  0.137E-02    1.11       1.0  T
   3   -392.9518029  0.191942E-05  0.370E-03    1.11       1.9  T
   4   -392.9518050 -0.216826E-05  0.144E-03    1.11       4.8  T
   5   -392.9518051 -0.891419E-07  0.714E-04    1.11       9.6  T
   6   -392.9518052 -0.885178E-07  0.321E-04    1.11      21.4  T
     SCC iter.                  ...        0 min,  0.323 sec
     gradient                   ...        0 min,  0.169 sec
 * total energy  :  -388.0982175 Eh     change       -0.1311000E-03 Eh
   gradient norm :     0.0032284 Eh/α   predicted    -0.9757495E-04 ( -25.57%)
   displ. norm   :     0.5412212 α      lambda       -0.1699017E-03
   maximum displ.:     0.2304438 α      in ANC's #2, #8, #4, ...

........................................................................
.............................. CYCLE   32 ..............................
........................................................................
   1   -392.9524425 -0.392952E+03  0.255E-02    1.11       0.0  T
   2   -392.9524435 -0.100773E-05  0.144E-02    1.11       1.0  T
   3   -392.9524406  0.291805E-05  0.443E-03    1.11       1.5  T
   4   -392.9524439 -0.332409E-05  0.153E-03    1.11       4.5  T
   5   -392.9524440 -0.814147E-07  0.805E-04    1.11       8.5  T
   6   -392.9524441 -0.110842E-06  0.345E-04    1.11      19.9  T
     SCC iter.                  ...        0 min,  0.329 sec
     gradient                   ...        0 min,  0.169 sec
 * total energy  :  -388.0983625 Eh     change       -0.1450424E-03 Eh
   gradient norm :     0.0030647 Eh/α   predicted    -0.1098360E-03 ( -24.27%)
   displ. norm   :     0.5816775 α      lambda       -0.1897715E-03
   maximum displ.:     0.2503534 α      in ANC's #2, #8, #4, ...

........................................................................
.............................. CYCLE   33 ..............................
........................................................................
   1   -392.9518945 -0.392952E+03  0.280E-02    1.11       0.0  T
   2   -392.9518957 -0.121802E-05  0.158E-02    1.11       1.0  T
   3   -392.9518921  0.365500E-05  0.497E-03    1.11       1.4  T
   4   -392.9518962 -0.415949E-05  0.169E-03    1.11       4.1  T
   5   -392.9518963 -0.101919E-06  0.906E-04    1.11       7.6  T
   6   -392.9518965 -0.138572E-06  0.375E-04    1.11      18.3  T
     SCC iter.                  ...        0 min,  0.328 sec
     gradient                   ...        0 min,  0.169 sec
 * total energy  :  -388.0985264 Eh     change       -0.1638922E-03 Eh
   gradient norm :     0.0034335 Eh/α   predicted    -0.1269952E-03 ( -22.51%)
   displ. norm   :     0.6225331 α      lambda       -0.2104261E-03
   maximum displ.:     0.2697766 α      in ANC's #2, #8, #4, ...

........................................................................
.............................. CYCLE   34 ..............................
........................................................................
   1   -392.9501345 -0.392950E+03  0.313E-02    1.11       0.0  T
   2   -392.9501359 -0.138561E-05  0.176E-02    1.11       1.0  T
   3   -392.9501324  0.344300E-05  0.497E-03    1.11       1.4  T
   4   -392.9501363 -0.390719E-05  0.186E-03    1.11       3.7  T
   5   -392.9501365 -0.144602E-06  0.957E-04    1.11       7.2  T
   6   -392.9501366 -0.153978E-06  0.395E-04    1.11      17.4  T
     SCC iter.                  ...        0 min,  0.325 sec
     gradient                   ...        0 min,  0.169 sec
 * total energy  :  -388.0987078 Eh     change       -0.1814412E-03 Eh
   gradient norm :     0.0038668 Eh/α   predicted    -0.1460003E-03 ( -19.53%)
   displ. norm   :     0.6556725 α      lambda       -0.2179665E-03
   maximum displ.:     0.2861660 α      in ANC's #2, #8, #4, ...

........................................................................
.............................. CYCLE   35 ..............................
........................................................................
   1   -392.9476637 -0.392948E+03  0.336E-02    1.11       0.0  T
   2   -392.9476651 -0.147717E-05  0.189E-02    1.11       1.0  T
   3   -392.9476624  0.275664E-05  0.466E-03    1.11       1.5  T
   4   -392.9476655 -0.311530E-05  0.198E-03    1.11       3.5  T
   5   -392.9476657 -0.216014E-06  0.932E-04    1.11       7.4  T
   6   -392.9476659 -0.138143E-06  0.412E-04    1.11      16.7  T
     SCC iter.                  ...        0 min,  0.324 sec
     gradient                   ...        0 min,  0.169 sec
 * total energy  :  -388.0988959 Eh     change       -0.1881030E-03 Eh
   gradient norm :     0.0037999 Eh/α   predicted    -0.1558421E-03 ( -17.15%)
   displ. norm   :     0.6734222 α      lambda       -0.2155940E-03
   maximum displ.:     0.2961069 α      in ANC's #2, #8, #4, ...

........................................................................
.............................. CYCLE   36 ..............................
........................................................................
   1   -392.9455500 -0.392946E+03  0.342E-02    1.11       0.0  T
   2   -392.9455515 -0.149777E-05  0.192E-02    1.11       1.0  T
   3   -392.9455486  0.284525E-05  0.471E-03    1.11       1.5  T
   4   -392.9455518 -0.321246E-05  0.203E-03    1.11       3.4  T
   5   -392.9455521 -0.231590E-06  0.935E-04    1.11       7.3  T
   6   -392.9455522 -0.137028E-06  0.430E-04    1.11      16.0  T
     SCC iter.                  ...        0 min,  0.329 sec
     gradient                   ...        0 min,  0.169 sec
 * total energy  :  -388.0990831 Eh     change       -0.1871426E-03 Eh
   gradient norm :     0.0033569 Eh/α   predicted    -0.1566899E-03 ( -16.27%)
   displ. norm   :     0.6926598 α      lambda       -0.2169424E-03
   maximum displ.:     0.3063214 α      in ANC's #2, #8, #4, ...

........................................................................
.............................. CYCLE   37 ..............................
........................................................................
   1   -392.9445422 -0.392945E+03  0.342E-02    1.11       0.0  T
   2   -392.9445437 -0.149474E-05  0.192E-02    1.11       1.0  T
   3   -392.9445404  0.323226E-05  0.498E-03    1.11       1.4  T
   4   -392.9445441 -0.366638E-05  0.207E-03    1.11       3.3  T
   5   -392.9445443 -0.198231E-06  0.980E-04    1.11       7.0  T
   6   -392.9445445 -0.162852E-06  0.448E-04    1.11      15.3  T
     SCC iter.                  ...        0 min,  0.320 sec
     gradient                   ...        0 min,  0.169 sec
 * total energy  :  -388.0992734 Eh     change       -0.1903352E-03 Eh
   gradient norm :     0.0032312 Eh/α   predicted    -0.1605153E-03 ( -15.67%)
   displ. norm   :     0.7129071 α      lambda       -0.2202315E-03
   maximum displ.:     0.3165365 α      in ANC's #2, #8, #4, ...

........................................................................
.............................. CYCLE   38 ..............................
........................................................................
   1   -392.9450432 -0.392945E+03  0.340E-02    1.11       0.0  T
   2   -392.9450446 -0.148049E-05  0.191E-02    1.11       1.0  T
   3   -392.9450419  0.276290E-05  0.487E-03    1.11       1.4  T
   4   -392.9450450 -0.315636E-05  0.209E-03    1.11       3.3  T
   5   -392.9450452 -0.190900E-06  0.968E-04    1.11       7.1  T
   6   -392.9450454 -0.167051E-06  0.445E-04    1.11      15.4  T
     SCC iter.                  ...        0 min,  0.337 sec
     gradient                   ...        0 min,  0.170 sec
 * total energy  :  -388.0994662 Eh     change       -0.1928066E-03 Eh
   gradient norm :     0.0035625 Eh/α   predicted    -0.1660820E-03 ( -13.86%)
   displ. norm   :     0.7330750 α      lambda       -0.2112949E-03
   maximum displ.:     0.3270274 α      in ANC's #2, #8, #4, ...

........................................................................
.............................. CYCLE   39 ..............................
........................................................................
   1   -392.9464098 -0.392946E+03  0.333E-02    1.11       0.0  T
   2   -392.9464112 -0.148181E-05  0.186E-02    1.11       1.0  T
   3   -392.9464093  0.194683E-05  0.444E-03    1.11       1.5  T
   4   -392.9464115 -0.221329E-05  0.209E-03    1.11       3.3  T
   5   -392.9464117 -0.228672E-06  0.907E-04    1.11       7.6  T
   6   -392.9464119 -0.140809E-06  0.423E-04    1.11      16.2  T
     SCC iter.                  ...        0 min,  0.335 sec
     gradient                   ...        0 min,  0.170 sec
 * total energy  :  -388.0996500 Eh     change       -0.1837328E-03 Eh
   gradient norm :     0.0035701 Eh/α   predicted    -0.1624256E-03 ( -11.60%)
   displ. norm   :     0.7477358 α      lambda       -0.1891546E-03
   maximum displ.:     0.3361233 α      in ANC's #2, #8, #4, ...

........................................................................
.............................. CYCLE   40 ..............................
........................................................................
   1   -392.9479397 -0.392948E+03  0.323E-02    1.10       0.0  T
   2   -392.9479412 -0.148986E-05  0.181E-02    1.10       1.0  T
   3   -392.9479386  0.260736E-05  0.464E-03    1.10       1.5  T
   4   -392.9479414 -0.285140E-05  0.210E-03    1.10       3.3  T
   5   -392.9479417 -0.265235E-06  0.961E-04    1.10       7.1  T
   6   -392.9479418 -0.157543E-06  0.403E-04    1.10      17.0  T
     SCC iter.                  ...        0 min,  0.326 sec
     gradient                   ...        0 min,  0.170 sec
 * total energy  :  -388.0998146 Eh     change       -0.1646658E-03 Eh
   gradient norm :     0.0029795 Eh/α   predicted    -0.1474621E-03 ( -10.45%)
   displ. norm   :     0.7469285 α      lambda       -0.1658622E-03
   maximum displ.:     0.3388247 α      in ANC's #2, #8, #4, ...

........................................................................
.............................. CYCLE   41 ..............................
........................................................................
   1   -392.9493579 -0.392949E+03  0.312E-02    1.10       0.0  T
   2   -392.9493592 -0.135778E-05  0.174E-02    1.10       1.0  T
   3   -392.9493558  0.339289E-05  0.486E-03    1.10       1.4  T
   4   -392.9493595 -0.369201E-05  0.203E-03    1.10       3.4  T
   5   -392.9493598 -0.245090E-06  0.972E-04    1.10       7.1  T
   6   -392.9493599 -0.167126E-06  0.366E-04    1.10      18.8  T
     SCC iter.                  ...        0 min,  0.328 sec
     gradient                   ...        0 min,  0.169 sec
 * total energy  :  -388.0999602 Eh     change       -0.1455275E-03 Eh
   gradient norm :     0.0024220 Eh/α   predicted    -0.1292054E-03 ( -11.22%)
   displ. norm   :     0.7353570 α      lambda       -0.1490904E-03
   maximum displ.:     0.3363371 α      in ANC's #2, #8, #4, ...

........................................................................
.............................. CYCLE   42 ..............................
........................................................................
   1   -392.9504124 -0.392950E+03  0.302E-02    1.10       0.0  T
   2   -392.9504135 -0.112947E-05  0.169E-02    1.10       1.0  T
   3   -392.9504104  0.314136E-05  0.458E-03    1.10       1.5  T
   4   -392.9504138 -0.338724E-05  0.194E-03    1.10       3.5  T
   5   -392.9504140 -0.236948E-06  0.912E-04    1.10       7.5  T
   6   -392.9504142 -0.154449E-06  0.338E-04    1.10      20.3  T
     SCC iter.                  ...        0 min,  0.325 sec
     gradient                   ...        0 min,  0.169 sec
 * total energy  :  -388.1000920 Eh     change       -0.1318120E-03 Eh
   gradient norm :     0.0024918 Eh/α   predicted    -0.1148609E-03 ( -12.86%)
   displ. norm   :     0.7217823 α      lambda       -0.1398233E-03
   maximum displ.:     0.3325275 α      in ANC's #2, #8, #4, ...
 * RMSD in coord.:     0.7446204 α      energy gain  -0.3023022E-02 Eh

generating ANC from model Hessian ...
Using Lindh-Hessian (1995)
 Shifting diagonal of input Hessian by   1.000787787454197E-002
 Lowest  eigenvalues of input Hessian
    0.010000    0.000000    0.000000    0.000000    0.000000    0.000000
    0.000000    0.010010    0.010025    0.010040    0.010048    0.010061
    0.010077    0.010088    0.010105    0.010119    0.010131    0.010146
 Highest eigenvalues
    2.052827    2.078519    2.080744    2.085676    2.107839    2.114266
 

........................................................................
.............................. CYCLE   43 ..............................
........................................................................
   1   -392.9510555 -0.392951E+03  0.296E-02    1.10       0.0  T
   2   -392.9510565 -0.988009E-06  0.166E-02    1.10       1.0  T
   3   -392.9510542  0.229757E-05  0.405E-03    1.10       1.7  T
   4   -392.9510566 -0.242172E-05  0.188E-03    1.10       3.7  T
   5   -392.9510569 -0.271358E-06  0.835E-04    1.10       8.2  T
   6   -392.9510570 -0.129761E-06  0.340E-04    1.10      20.2  T
     SCC iter.                  ...        0 min,  0.329 sec
     gradient                   ...        0 min,  0.169 sec
 * total energy  :  -388.1002155 Eh     change       -0.1235588E-03 Eh
   gradient norm :     0.0027476 Eh/α   predicted     0.0000000E+00 (-100.00%)
   displ. norm   :     0.0373432 α      lambda       -0.2173810E-04
   maximum displ.:     0.0104804 α      in ANC's #2, #20, #63, ...

........................................................................
.............................. CYCLE   44 ..............................
........................................................................
   1   -392.9512987 -0.392951E+03  0.392E-03    1.10       0.0  T
   2   -392.9512988 -0.956376E-07  0.222E-03    1.10       3.1  T
   3   -392.9512986  0.190607E-06  0.122E-03    1.10       5.6  T
   4   -392.9512989 -0.236729E-06  0.407E-04    1.10      16.9  T
   5   -392.9512989 -0.155227E-07  0.233E-04    1.10      29.5  T
     SCC iter.                  ...        0 min,  0.276 sec
     gradient                   ...        0 min,  0.169 sec
 * total energy  :  -388.1002375 Eh     change       -0.2200425E-04 Eh
   gradient norm :     0.0016644 Eh/α   predicted    -0.1248811E-04 ( -43.25%)
   displ. norm   :     0.2550526 α      lambda       -0.8191560E-04
   maximum displ.:     0.0747946 α      in ANC's #2, #20, #1, ...

........................................................................
.............................. CYCLE   45 ..............................
........................................................................
   1   -392.9502718 -0.392950E+03  0.232E-02    1.10       0.0  T
   2   -392.9502744 -0.259887E-05  0.130E-02    1.10       1.0  T
   3   -392.9502678  0.655414E-05  0.675E-03    1.10       1.0  T
   4   -392.9502755 -0.765315E-05  0.215E-03    1.10       3.2  T
   5   -392.9502759 -0.469085E-06  0.109E-03    1.10       6.3  T
   6   -392.9502761 -0.121701E-06  0.570E-04    1.10      12.1  T
   7   -392.9502761 -0.255890E-07  0.398E-04    1.10      17.3  T
     SCC iter.                  ...        0 min,  0.380 sec
     gradient                   ...        0 min,  0.170 sec
 * total energy  :  -388.1002918 Eh     change       -0.5427318E-04 Eh
   gradient norm :     0.0038534 Eh/α   predicted    -0.4214228E-04 ( -22.35%)
   displ. norm   :     0.0411555 α      lambda       -0.1823666E-04
   maximum displ.:     0.0144171 α      in ANC's #2, #1, #20, ...

........................................................................
.............................. CYCLE   46 ..............................
........................................................................
   1   -392.9498573 -0.392950E+03  0.314E-03    1.10       0.0  T
   2   -392.9498573 -0.325821E-07  0.180E-03    1.10       3.8  T
   3   -392.9498572  0.115833E-06  0.874E-04    1.10       7.9  T
   4   -392.9498573 -0.136621E-06  0.261E-04    1.10      26.3  T
     SCC iter.                  ...        0 min,  0.223 sec
     gradient                   ...        0 min,  0.170 sec
 * total energy  :  -388.1003111 Eh     change       -0.1933751E-04 Eh
   gradient norm :     0.0030671 Eh/α   predicted    -0.1037114E-04 ( -46.37%)
   displ. norm   :     0.3179610 α      lambda       -0.1238101E-03
   maximum displ.:     0.1103094 α      in ANC's #2, #1, #20, ...

........................................................................
.............................. CYCLE   47 ..............................
........................................................................
   1   -392.9483049 -0.392948E+03  0.223E-02    1.10       0.0  T
   2   -392.9483060 -0.110443E-05  0.127E-02    1.10       1.0  T
   3   -392.9483021  0.397449E-05  0.493E-03    1.10       1.4  T
   4   -392.9483066 -0.451633E-05  0.147E-03    1.10       4.7  T
   5   -392.9483067 -0.120100E-06  0.799E-04    1.10       8.6  T
   6   -392.9483068 -0.833133E-07  0.370E-04    1.10      18.6  T
     SCC iter.                  ...        0 min,  0.325 sec
     gradient                   ...        0 min,  0.170 sec
 * total energy  :  -388.1003954 Eh     change       -0.8430675E-04 Eh
   gradient norm :     0.0019428 Eh/α   predicted    -0.6838198E-04 ( -18.89%)
   displ. norm   :     0.4326491 α      lambda       -0.5454892E-04
   maximum displ.:     0.1533775 α      in ANC's #2, #1, #20, ...

........................................................................
.............................. CYCLE   48 ..............................
........................................................................
   1   -392.9474657 -0.392947E+03  0.280E-02    1.11       0.0  T
   2   -392.9474667 -0.105276E-05  0.158E-02    1.11       1.0  T
   3   -392.9474633  0.344682E-05  0.460E-03    1.11       1.5  T
   4   -392.9474671 -0.383118E-05  0.173E-03    1.11       4.0  T
   5   -392.9474673 -0.167715E-06  0.865E-04    1.11       7.9  T
   6   -392.9474674 -0.103851E-06  0.393E-04    1.11      17.5  T
     SCC iter.                  ...        0 min,  0.331 sec
     gradient                   ...        0 min,  0.170 sec
 * total energy  :  -388.1004521 Eh     change       -0.5668631E-04 Eh
   gradient norm :     0.0040233 Eh/α   predicted    -0.2968467E-04 ( -47.63%)
   displ. norm   :     0.2594467 α      lambda       -0.5352587E-04
   maximum displ.:     0.0953629 α      in ANC's #2, #1, #20, ...

........................................................................
.............................. CYCLE   49 ..............................
........................................................................
   1   -392.9482904 -0.392948E+03  0.155E-02    1.11       0.0  T
   2   -392.9482907 -0.347873E-06  0.879E-03    1.11       1.0  T
   3   -392.9482896  0.116863E-05  0.264E-03    1.11       2.6  T
   4   -392.9482909 -0.129407E-05  0.984E-04    1.11       7.0  T
   5   -392.9482909 -0.615175E-07  0.499E-04    1.11      13.8  T
   6   -392.9482909 -0.308665E-07  0.232E-04    1.11      29.6  T
     SCC iter.                  ...        0 min,  0.326 sec
     gradient                   ...        0 min,  0.170 sec
 * total energy  :  -388.1005001 Eh     change       -0.4797047E-04 Eh
   gradient norm :     0.0033498 Eh/α   predicted    -0.2856451E-04 ( -40.45%)
   displ. norm   :     0.4964231 α      lambda       -0.1134435E-03
   maximum displ.:     0.1870952 α      in ANC's #2, #1, #3, ...

........................................................................
.............................. CYCLE   50 ..............................
........................................................................
   1   -392.9502071 -0.392950E+03  0.281E-02    1.11       0.0  T
   2   -392.9502084 -0.132488E-05  0.160E-02    1.11       1.0  T
   3   -392.9502036  0.477340E-05  0.526E-03    1.11       1.3  T
   4   -392.9502090 -0.534786E-05  0.176E-03    1.11       3.9  T
   5   -392.9502091 -0.178070E-06  0.929E-04    1.11       7.4  T
   6   -392.9502092 -0.110707E-06  0.405E-04    1.11      16.9  T
     SCC iter.                  ...        0 min,  0.324 sec
     gradient                   ...        0 min,  0.171 sec
 * total energy  :  -388.1005917 Eh     change       -0.9157956E-04 Eh
   gradient norm :     0.0016788 Eh/α   predicted    -0.7070793E-04 ( -22.79%)
   displ. norm   :     0.7913777 α      lambda       -0.9708234E-04
   maximum displ.:     0.3052543 α      in ANC's #2, #1, #3, ...

........................................................................
.............................. CYCLE   51 ..............................
........................................................................
   1   -392.9511919 -0.392951E+03  0.426E-02    1.11       0.0  T
   2   -392.9511948 -0.295640E-05  0.243E-02    1.11       1.0  T
   3   -392.9511842  0.105837E-04  0.777E-03    1.11       1.0  T
   4   -392.9511961 -0.118435E-04  0.264E-03    1.11       2.6  T
   5   -392.9511965 -0.407788E-06  0.141E-03    1.11       4.9  T
   6   -392.9511967 -0.265878E-06  0.630E-04    1.11      10.9  T
   7   -392.9511968 -0.300903E-07  0.478E-04    1.11      14.4  T
     SCC iter.                  ...        0 min,  0.382 sec
     gradient                   ...        0 min,  0.170 sec
 * total energy  :  -388.1006965 Eh     change       -0.1048347E-03 Eh
   gradient norm :     0.0029696 Eh/α   predicted    -0.6205315E-04 ( -40.81%)
   displ. norm   :     0.3729144 α      lambda       -0.6498118E-04
   maximum displ.:     0.1483232 α      in ANC's #2, #1, #3, ...

........................................................................
.............................. CYCLE   52 ..............................
........................................................................
   1   -392.9517258 -0.392952E+03  0.191E-02    1.11       0.0  T
   2   -392.9517263 -0.480728E-06  0.109E-02    1.11       1.0  T
   3   -392.9517250  0.135828E-05  0.288E-03    1.11       2.4  T
   4   -392.9517265 -0.152932E-05  0.115E-03    1.11       6.0  T
   5   -392.9517266 -0.833074E-07  0.551E-04    1.11      12.5  T
   6   -392.9517266 -0.374161E-07  0.294E-04    1.11      23.3  T
     SCC iter.                  ...        0 min,  0.328 sec
     gradient                   ...        0 min,  0.170 sec
 * total energy  :  -388.1007548 Eh     change       -0.5825858E-04 Eh
   gradient norm :     0.0028189 Eh/α   predicted    -0.3700928E-04 ( -36.47%)
   displ. norm   :     0.5111098 α      lambda       -0.1119616E-03
   maximum displ.:     0.2062810 α      in ANC's #2, #1, #3, ...

........................................................................
.............................. CYCLE   53 ..............................
........................................................................
   1   -392.9524819 -0.392952E+03  0.276E-02    1.11       0.0  T
   2   -392.9524829 -0.969130E-06  0.157E-02    1.11       1.0  T
   3   -392.9524805  0.237325E-05  0.394E-03    1.11       1.7  T
   4   -392.9524832 -0.262100E-05  0.165E-03    1.11       4.2  T
   5   -392.9524833 -0.173934E-06  0.770E-04    1.11       8.9  T
   6   -392.9524834 -0.950895E-07  0.343E-04    1.11      20.0  T
     SCC iter.                  ...        0 min,  0.329 sec
     gradient                   ...        0 min,  0.170 sec
 * total energy  :  -388.1008486 Eh     change       -0.9380184E-04 Eh
   gradient norm :     0.0021024 Eh/α   predicted    -0.7060755E-04 ( -24.73%)
   displ. norm   :     0.5694049 α      lambda       -0.1118756E-03
   maximum displ.:     0.2316513 α      in ANC's #2, #1, #3, ...

........................................................................
.............................. CYCLE   54 ..............................
........................................................................
   1   -392.9512638 -0.392951E+03  0.317E-02    1.11       0.0  T
   2   -392.9512650 -0.126642E-05  0.180E-02    1.10       1.0  T
   3   -392.9512623  0.270289E-05  0.438E-03    1.11       1.6  T
   4   -392.9512653 -0.300101E-05  0.188E-03    1.10       3.6  T
   5   -392.9512656 -0.225517E-06  0.832E-04    1.11       8.3  T
   6   -392.9512657 -0.109365E-06  0.362E-04    1.11      19.0  T
     SCC iter.                  ...        0 min,  0.322 sec
     gradient                   ...        0 min,  0.170 sec
 * total energy  :  -388.1009395 Eh     change       -0.9092846E-04 Eh
   gradient norm :     0.0019309 Eh/α   predicted    -0.7407419E-04 ( -18.54%)
   displ. norm   :     0.7716713 α      lambda       -0.9443134E-04
   maximum displ.:     0.3165292 α      in ANC's #2, #1, #3, ...

........................................................................
.............................. CYCLE   55 ..............................
........................................................................
   1   -392.9497509 -0.392950E+03  0.454E-02    1.11       0.0  T
   2   -392.9497536 -0.262426E-05  0.256E-02    1.11       1.0  T
   3   -392.9497482  0.536878E-05  0.638E-03    1.11       1.1  T
   4   -392.9497542 -0.602222E-05  0.272E-03    1.11       2.5  T
   5   -392.9497547 -0.434035E-06  0.117E-03    1.11       5.9  T
   6   -392.9497549 -0.208109E-06  0.500E-04    1.11      13.7  T
   7   -392.9497549 -0.164657E-07  0.375E-04    1.11      18.3  T
     SCC iter.                  ...        0 min,  0.378 sec
     gradient                   ...        0 min,  0.170 sec
 * total energy  :  -388.1010376 Eh     change       -0.9810081E-04 Eh
   gradient norm :     0.0030492 Eh/α   predicted    -0.5971407E-04 ( -39.13%)
   displ. norm   :     0.3332960 α      lambda       -0.6017158E-04
   maximum displ.:     0.1397564 α      in ANC's #2, #1, #3, ...

........................................................................
.............................. CYCLE   56 ..............................
........................................................................
   1   -392.9492959 -0.392949E+03  0.178E-02    1.11       0.0  T
   2   -392.9492964 -0.473254E-06  0.101E-02    1.11       1.0  T
   3   -392.9492950  0.138589E-05  0.302E-03    1.11       2.3  T
   4   -392.9492966 -0.157118E-05  0.108E-03    1.11       6.4  T
   5   -392.9492966 -0.494389E-07  0.545E-04    1.11      12.6  T
   6   -392.9492967 -0.448669E-07  0.230E-04    1.11      29.8  T
     SCC iter.                  ...        0 min,  0.322 sec
     gradient                   ...        0 min,  0.170 sec
 * total energy  :  -388.1010911 Eh     change       -0.5350791E-04 Eh
   gradient norm :     0.0026640 Eh/α   predicted    -0.3343620E-04 ( -37.51%)
   displ. norm   :     0.4667760 α      lambda       -0.1248237E-03
   maximum displ.:     0.1926202 α      in ANC's #2, #1, #3, ...

........................................................................
.............................. CYCLE   57 ..............................
........................................................................
   1   -392.9518886 -0.392952E+03  0.277E-02    1.11       0.0  T
   2   -392.9518898 -0.125084E-05  0.157E-02    1.11       1.0  T
   3   -392.9518855  0.434142E-05  0.524E-03    1.11       1.3  T
   4   -392.9518903 -0.482439E-05  0.176E-03    1.11       3.9  T
   5   -392.9518904 -0.152961E-06  0.930E-04    1.11       7.4  T
   6   -392.9518906 -0.134480E-06  0.376E-04    1.11      18.3  T
     SCC iter.                  ...        0 min,  0.322 sec
     gradient                   ...        0 min,  0.170 sec
 * total energy  :  -388.1011806 Eh     change       -0.8953387E-04 Eh
   gradient norm :     0.0022031 Eh/α   predicted    -0.7601133E-04 ( -15.10%)
   displ. norm   :     0.5509137 α      lambda       -0.9453772E-04
   maximum displ.:     0.2307558 α      in ANC's #2, #1, #3, ...

........................................................................
.............................. CYCLE   58 ..............................
........................................................................
   1   -392.9487424 -0.392949E+03  0.284E-02    1.11       0.0  T
   2   -392.9487439 -0.154654E-05  0.162E-02    1.11       1.0  T
   3   -392.9487391  0.483111E-05  0.547E-03    1.11       1.3  T
   4   -392.9487446 -0.546545E-05  0.175E-03    1.11       3.9  T
   5   -392.9487447 -0.146337E-06  0.988E-04    1.11       7.0  T
   6   -392.9487448 -0.135339E-06  0.424E-04    1.11      16.2  T
     SCC iter.                  ...        0 min,  0.326 sec
     gradient                   ...        0 min,  0.170 sec
 * total energy  :  -388.1012443 Eh     change       -0.6364069E-04 Eh
   gradient norm :     0.0025937 Eh/α   predicted    -0.6161521E-04 (  -3.18%)
   displ. norm   :     0.3594315 α      lambda       -0.5751493E-04
   maximum displ.:     0.1512407 α      in ANC's #2, #1, #3, ...

........................................................................
.............................. CYCLE   59 ..............................
........................................................................
   1   -392.9492603 -0.392949E+03  0.185E-02    1.11       0.0  T
   2   -392.9492607 -0.479044E-06  0.105E-02    1.11       1.0  T
   3   -392.9492590  0.176338E-05  0.330E-03    1.11       2.1  T
   4   -392.9492609 -0.195800E-05  0.115E-03    1.11       5.9  T
   5   -392.9492610 -0.601294E-07  0.631E-04    1.11      10.9  T
   6   -392.9492610 -0.619385E-07  0.275E-04    1.11      24.9  T
     SCC iter.                  ...        0 min,  0.328 sec
     gradient                   ...        0 min,  0.169 sec
 * total energy  :  -388.1012914 Eh     change       -0.4711426E-04 Eh
   gradient norm :     0.0024531 Eh/α   predicted    -0.3247297E-04 ( -31.08%)
   displ. norm   :     0.4010383 α      lambda       -0.7956461E-04
   maximum displ.:     0.1681160 α      in ANC's #2, #1, #3, ...

........................................................................
.............................. CYCLE   60 ..............................
........................................................................
   1   -392.9506491 -0.392951E+03  0.193E-02    1.11       0.0  T
   2   -392.9506497 -0.545964E-06  0.109E-02    1.11       1.0  T
   3   -392.9506477  0.197887E-05  0.344E-03    1.11       2.0  T
   4   -392.9506499 -0.220666E-05  0.117E-03    1.11       5.9  T
   5   -392.9506500 -0.674885E-07  0.606E-04    1.11      11.3  T
   6   -392.9506500 -0.531652E-07  0.252E-04    1.11      27.3  T
     SCC iter.                  ...        0 min,  0.327 sec
     gradient                   ...        0 min,  0.170 sec
 * total energy  :  -388.1013578 Eh     change       -0.6643929E-04 Eh
   gradient norm :     0.0020798 Eh/α   predicted    -0.4618244E-04 ( -30.49%)
   displ. norm   :     0.5071345 α      lambda       -0.9645682E-04
   maximum displ.:     0.2126100 α      in ANC's #1, #2, #3, ...

........................................................................
.............................. CYCLE   61 ..............................
........................................................................
   1   -392.9512066 -0.392951E+03  0.235E-02    1.11       0.0  T
   2   -392.9512075 -0.846902E-06  0.134E-02    1.11       1.0  T
   3   -392.9512044  0.314097E-05  0.421E-03    1.11       1.6  T
   4   -392.9512078 -0.348681E-05  0.143E-03    1.11       4.8  T
   5   -392.9512080 -0.123434E-06  0.720E-04    1.11       9.5  T
   6   -392.9512080 -0.722495E-07  0.288E-04    1.11      23.9  T
     SCC iter.                  ...        0 min,  0.327 sec
     gradient                   ...        0 min,  0.170 sec
 * total energy  :  -388.1014355 Eh     change       -0.7770141E-04 Eh
   gradient norm :     0.0019816 Eh/α   predicted    -0.6063307E-04 ( -21.97%)
   displ. norm   :     0.7689189 α      lambda       -0.7996878E-04
   maximum displ.:     0.3267372 α      in ANC's #1, #2, #3, ...

........................................................................
.............................. CYCLE   62 ..............................
........................................................................
   1   -392.9510980 -0.392951E+03  0.348E-02    1.11       0.0  T
   2   -392.9510997 -0.176570E-05  0.197E-02    1.11       1.0  T
   3   -392.9510938  0.595181E-05  0.578E-03    1.11       1.2  T
   4   -392.9511004 -0.657165E-05  0.210E-03    1.11       3.3  T
[...]
   203   1 H    0.998 --   131 C    0.985
   204   1 H    0.998 --   131 C    0.985
   205   1 H    0.998 --   132 C    0.976
   206   1 H    0.997 --   132 C    0.970
   207   1 H    0.998 --   133 C    0.986
   208   1 H    0.998 --   133 C    0.985
   209   1 H    0.998 --   133 C    0.983
   210   1 H    0.997 --   135 C    0.955
   211   1 H    0.996 --   136 C    0.962
   212   1 H    0.996 --   137 C    0.970
 ---------------------------------------------------------------------------

Topologies differ in bond orders
Writing corrected topology to xtbtopo.mol

molecular dipole:
                 x           y           z       tot (Debye)
 q only:        1.253      -0.297       3.260
   full:        0.717      -0.641       2.743       7.389
molecular quadrupole (traceless):
                xx          xy          yy          xz          yz          zz
 q only:       21.925     -70.761      16.392     -16.321      -6.668     -38.317
  q+dip:        3.602     -42.813       2.410       5.349       7.896      -6.012
   full:        4.016     -40.735       1.487       5.437       7.803      -5.503

           -------------------------------------------------
          |                Geometry Summary                 |
           -------------------------------------------------

      molecular mass/u    :     2386.3145241
   center of mass at/Å    :       -0.5689791      -0.0692702      -1.2801788
  moments of inertia/u·Å² :        0.8089528E+05   0.1141559E+06   0.1504515E+06
rotational constants/cm⁻¹ :        0.2083883E-03   0.1476720E-03   0.1120470E-03

 * 222 selected distances

     #   Z          #   Z                                           value/Å
     1   6 C        2  16 S                                       1.7225848
     2  16 S        3   6 C                                       1.7294673
     3   6 C        4   6 C                                       1.4170699
     4   6 C        5   6 C                                       1.3858928
     5   6 C        6   8 O                                       1.3476230
     6   8 O        7   6 C                                       1.4436622
     7   6 C        8   6 C                                       1.5370525
     8   6 C        9   6 C                                       1.5248668
    10   6 C       11   6 C                                       1.5232436
     3   6 C       12   6 C                                       1.3771019
     1   6 C       13   6 C                                       1.3599244
    12   6 C       13   6 C                                       1.4096854
     5   6 C       14   6 C                                       1.4028651
    14   6 C       15   6 C                                       1.3778305
     4   6 C       16  16 S                                       1.7278881
    15   6 C       16  16 S                                       1.7450866
    15   6 C       17   6 C                                       1.4187388
    17   6 C       18  16 S                                       1.7460926
    18  16 S       19   6 C                                       1.7287487
    19   6 C       20   6 C                                       1.4128020
    20   6 C       21   6 C                                       1.3898326
    21   6 C       22   8 O                                       1.3445108
    22   8 O       23   6 C                                       1.4402238
    24   6 C       25   6 C                                       1.5225859
    26   6 C       27   6 C                                       1.5252178
    19   6 C       28   6 C                                       1.3834212
    17   6 C       29   6 C                                       1.3797050
    28   6 C       29   6 C                                       1.3974570
    21   6 C       30   6 C                                       1.4035792
    30   6 C       31   6 C                                       1.3758396
    20   6 C       32  16 S                                       1.7245656
    31   6 C       32  16 S                                       1.7465442
    31   6 C       33   6 C                                       1.4228009
    33   6 C       34   6 C                                       1.3643023
    34   6 C       35   6 C                                       1.4131390
    35   6 C       36   6 C                                       1.4040598
    37   6 C       38  16 S                                       1.7382126
    38  16 S       39   6 C                                       1.7321876
    39   6 C       40   6 C                                       1.4887057
    40   6 C       41   6 C                                       1.5303953
    39   6 C       42   6 C                                       1.3618590
    42   6 C       43  17 Cl                                      1.7134518
    37   6 C       44   6 C                                       1.3674336
    42   6 C       44   6 C                                       1.4210384
    44   6 C       45  17 Cl                                      1.7181801
    36   6 C       46   6 C                                       1.3874281
    46   6 C       47   6 C                                       1.4154142
    47   6 C       48   6 C                                       1.4100391
    49   6 C       50  16 S                                       1.7386990
    50  16 S       51   6 C                                       1.7303087
    51   6 C       52   6 C                                       1.4886679
    52   6 C       53   6 C                                       1.5305809
    51   6 C       54   6 C                                       1.3633135
    49   6 C       55   6 C                                       1.3695443
    54   6 C       55   6 C                                       1.4198135
    55   6 C       56  17 Cl                                      1.7162843
    54   6 C       57  17 Cl                                      1.7163281
    35   6 C       58   6 C                                       1.4174529
    48   6 C       58   6 C                                       1.3898278
    33   6 C       59  16 S                                       1.7560035
    58   6 C       59  16 S                                       1.7452931
    47   6 C       60   6 C                                       1.4207796
    60   6 C       61   6 C                                       1.3628538
    46   6 C       62  16 S                                       1.7360308
    61   6 C       62  16 S                                       1.7575816
    61   6 C       63   6 C                                       1.4336051
    63   6 C       64   6 C                                       1.3658176
    64   6 C       65   6 C                                       1.4193104
    65   6 C       66   6 C                                       1.4129821
    67   6 C       68  16 S                                       1.7397400
    68  16 S       69   6 C                                       1.7298519
    69   6 C       70   6 C                                       1.4883893
    70   6 C       71   6 C                                       1.5307315
    69   6 C       72   6 C                                       1.3637494
    72   6 C       73  17 Cl                                      1.7166669
    67   6 C       74   6 C                                       1.3731687
    72   6 C       74   6 C                                       1.4182515
    74   6 C       75  17 Cl                                      1.7159704
    66   6 C       76   6 C                                       1.3923504
    76   6 C       77   6 C                                       1.4176806
    77   6 C       78   6 C                                       1.4029526
    79   6 C       80  16 S                                       1.7359502
    80  16 S       81   6 C                                       1.7314351
    81   6 C       82   6 C                                       1.4888190
    82   6 C       83   6 C                                       1.5307003
    81   6 C       84   6 C                                       1.3622924
    79   6 C       85   6 C                                       1.3640648
    84   6 C       85   6 C                                       1.4205540
    85   6 C       86  17 Cl                                      1.7128096
    84   6 C       87  17 Cl                                      1.7159998
    65   6 C       88   6 C                                       1.4133025
    78   6 C       88   6 C                                       1.3854591
    63   6 C       89  16 S                                       1.7536650
    88   6 C       89  16 S                                       1.7429350
    77   6 C       90   6 C                                       1.4170807
    90   6 C       91   6 C                                       1.3638201
    76   6 C       92  16 S                                       1.7453946
    91   6 C       92  16 S                                       1.7608037 (max)
    91   6 C       93   6 C                                       1.4366844
    93   6 C       94   6 C                                       1.3651669
    94   6 C       95   6 C                                       1.4103723
    95   6 C       96   6 C                                       1.4031083
    97   6 C       98  16 S                                       1.7346068
    98  16 S       99   6 C                                       1.7341943
    99   6 C      100   6 C                                       1.4888483
   100   6 C      101   6 C                                       1.5266239
    99   6 C      102   6 C                                       1.3623531
   102   6 C      103  17 Cl                                      1.7164292
    97   6 C      104   6 C                                       1.3670469
   102   6 C      104   6 C                                       1.4209265
   104   6 C      105  17 Cl                                      1.7191460
    96   6 C      106   6 C                                       1.3830304
   106   6 C      107   6 C                                       1.4182647
   107   6 C      108   6 C                                       1.4098293
   109   6 C      110  16 S                                       1.7396279
   110  16 S      111   6 C                                       1.7304709
   111   6 C      112   6 C                                       1.4886720
   112   6 C      113   6 C                                       1.5305883
   111   6 C      114   6 C                                       1.3625862
   109   6 C      115   6 C                                       1.3680054
   114   6 C      115   6 C                                       1.4205630
   115   6 C      116  17 Cl                                      1.7135031
   114   6 C      117  17 Cl                                      1.7158475
    95   6 C      118   6 C                                       1.4142723
   108   6 C      118   6 C                                       1.3916684
    93   6 C      119  16 S                                       1.7492577
   118   6 C      119  16 S                                       1.7487297
   107   6 C      120   6 C                                       1.4177526
   120   6 C      121   6 C                                       1.3657237
   106   6 C      122  16 S                                       1.7374197
   121   6 C      122  16 S                                       1.7548380
   121   6 C      123   6 C                                       1.4212023
   123   6 C      124  16 S                                       1.7444451
   124  16 S      125   6 C                                       1.7280006
   125   6 C      126   6 C                                       1.4174062
   126   6 C      127   6 C                                       1.3841516
   127   6 C      128   8 O                                       1.3455065
   128   8 O      129   6 C                                       1.4467044
   130   6 C      131   6 C                                       1.5217026
   129   6 C      132   6 C                                       1.5369355
   132   6 C      133   6 C                                       1.5233669
   125   6 C      134   6 C                                       1.3834877
   123   6 C      135   6 C                                       1.3778449
   134   6 C      135   6 C                                       1.3976564
   127   6 C      136   6 C                                       1.4128279
   136   6 C      137   6 C                                       1.3602663
   126   6 C      138  16 S                                       1.7297162
   137   6 C      138  16 S                                       1.7193324
     1   6 C      139   1 H                                       1.0712788 (min)
     8   6 C      140   1 H                                       1.0902098
     8   6 C      141   1 H                                       1.0893509
     9   6 C      142   1 H                                       1.0875665
     9   6 C      143   1 H                                       1.0870823
     9   6 C      144   1 H                                       1.0878091
    10   6 C      145   1 H                                       1.0939451
    10   6 C      146   1 H                                       1.0912015
    11   6 C      147   1 H                                       1.0862328
    11   6 C      148   1 H                                       1.0873121
    11   6 C      149   1 H                                       1.0869558
    13   6 C      150   1 H                                       1.0749023
    14   6 C      151   1 H                                       1.0745032
    24   6 C      152   1 H                                       1.0941835
    24   6 C      153   1 H                                       1.0917803
    25   6 C      154   1 H                                       1.0863396
    25   6 C      155   1 H                                       1.0871567
    25   6 C      156   1 H                                       1.0878114
    26   6 C      157   1 H                                       1.0924801
    26   6 C      158   1 H                                       1.0907966
    27   6 C      159   1 H                                       1.0843326
    27   6 C      160   1 H                                       1.0859412
    27   6 C      161   1 H                                       1.0878273
    29   6 C      162   1 H                                       1.0751127
    30   6 C      163   1 H                                       1.0743310
    34   6 C      164   1 H                                       1.0742869
    40   6 C      165   1 H                                       1.0924522
    40   6 C      166   1 H                                       1.0916124
    41   6 C      167   1 H                                       1.0867317
    41   6 C      168   1 H                                       1.0874930
    41   6 C      169   1 H                                       1.0872840
    52   6 C      170   1 H                                       1.0914507
    52   6 C      171   1 H                                       1.0913142
    53   6 C      172   1 H                                       1.0866281
    53   6 C      173   1 H                                       1.0870299
    53   6 C      174   1 H                                       1.0873877
    60   6 C      175   1 H                                       1.0746163
    64   6 C      176   1 H                                       1.0749413
    70   6 C      177   1 H                                       1.0914870
    70   6 C      178   1 H                                       1.0912832
    71   6 C      179   1 H                                       1.0866104
    71   6 C      180   1 H                                       1.0873412
    71   6 C      181   1 H                                       1.0870537
    82   6 C      182   1 H                                       1.0912007
    82   6 C      183   1 H                                       1.0917686
    83   6 C      184   1 H                                       1.0865890
    83   6 C      185   1 H                                       1.0873101
    83   6 C      186   1 H                                       1.0870533
    90   6 C      187   1 H                                       1.0741030
    94   6 C      188   1 H                                       1.0731612
   100   6 C      189   1 H                                       1.0941315
   100   6 C      190   1 H                                       1.0909359
   101   6 C      191   1 H                                       1.0870299
   101   6 C      192   1 H                                       1.0867721
   101   6 C      193   1 H                                       1.0876428
   112   6 C      194   1 H                                       1.0914879
   112   6 C      195   1 H                                       1.0913838
   113   6 C      196   1 H                                       1.0866087
   113   6 C      197   1 H                                       1.0870576
   113   6 C      198   1 H                                       1.0874616
   120   6 C      199   1 H                                       1.0748273
   130   6 C      200   1 H                                       1.0942267
   130   6 C      201   1 H                                       1.0898823
   131   6 C      202   1 H                                       1.0875227
   131   6 C      203   1 H                                       1.0866941
   131   6 C      204   1 H                                       1.0875985
   132   6 C      205   1 H                                       1.0925375
   132   6 C      206   1 H                                       1.0887905
   133   6 C      207   1 H                                       1.0875089
   133   6 C      208   1 H                                       1.0864840
   133   6 C      209   1 H                                       1.0862714
   135   6 C      210   1 H                                       1.0749119
   136   6 C      211   1 H                                       1.0740628
   137   6 C      212   1 H                                       1.0713815

 * 5 distinct bonds (by element types)

   Z      Z             #   av. dist./Å        max./Å        min./Å
   1 H    6 C          74     1.0860520     1.0942267     1.0712788
   6 C    6 C          94     1.4205125     1.5370525     1.3599244
   6 C    8 O           6     1.3947051     1.4467044     1.3445108
   6 C   16 S          36     1.7387697     1.7608037     1.7193324
   6 C   17 Cl         12     1.7158847     1.7191460     1.7128096


optimized geometry written to: xtbopt.mol


           -------------------------------------------------
          | TOTAL ENERGY             -388.105537166392 Eh   |
          | GRADIENT NORM               0.000556302731 Eh/α |
          | HOMO-LUMO GAP               1.139713142773 eV   |
           -------------------------------------------------

------------------------------------------------------------------------
 * finished run on 2022/03/01 at 22:44:44.658     
------------------------------------------------------------------------
 total:
 * wall-time:     0 d,  0 h,  1 min, 31.320 sec
 *  cpu-time:     0 d,  0 h, 12 min,  7.106 sec
 * ratio c/w:     7.962 speedup
 SCF:
 * wall-time:     0 d,  0 h,  0 min,  1.299 sec
 *  cpu-time:     0 d,  0 h,  0 min, 10.372 sec
 * ratio c/w:     7.985 speedup
 ANC optimizer:
 * wall-time:     0 d,  0 h,  1 min, 29.386 sec
 *  cpu-time:     0 d,  0 h, 11 min, 54.877 sec
 * ratio c/w:     7.998 speedup

