      -----------------------------------------------------------      
     |                   =====================                   |     
     |                           x T B                           |     
     |                   =====================                   |     
     |                         S. Grimme                         |     
     |          Mulliken Center for Theoretical Chemistry        |     
     |                    University of Bonn                     |     
      -----------------------------------------------------------      

   * xtb version 6.4.1 (unknown) compiled by 'oda6@login1.crc.pitt.edu' on 2021-06-25

   xtb is free software: you can redistribute it and/or modify it under
   the terms of the GNU Lesser General Public License as published by
   the Free Software Foundation, either version 3 of the License, or
   (at your option) any later version.
   
   xtb is distributed in the hope that it will be useful,
   but WITHOUT ANY WARRANTY; without even the implied warranty of
   MERCHANTABILITY or FITNESS FOR A PARTICULAR PURPOSE.  See the
   GNU Lesser General Public License for more details.
   
   Cite this work as:
   * C. Bannwarth, E. Caldeweyher, S. Ehlert, A. Hansen, P. Pracht,
     J. Seibert, S. Spicher, S. Grimme, WIREs Comput. Mol. Sci., 2020, 11,
     e01493. DOI: 10.1002/wcms.1493
   
   for GFN2-xTB:
   * C. Bannwarth, S. Ehlert and S. Grimme., J. Chem. Theory Comput., 2019,
     15, 1652-1671. DOI: 10.1021/acs.jctc.8b01176
   for GFN1-xTB:
   * S. Grimme, C. Bannwarth, P. Shushkov, J. Chem. Theory Comput., 2017,
     13, 1989-2009. DOI: 10.1021/acs.jctc.7b00118
   for GFN0-xTB:
   * P. Pracht, E. Caldeweyher, S. Ehlert, S. Grimme, ChemRxiv, 2019, preprint.
     DOI: 10.26434/chemrxiv.8326202.v1
   for GFN-FF:
   * S. Spicher and S. Grimme, Angew. Chem. Int. Ed., 2020, 59, 15665-15673.
     DOI: 10.1002/anie.202004239
   
   for DFT-D4:
   * E. Caldeweyher, C. Bannwarth and S. Grimme, J. Chem. Phys., 2017,
     147, 034112. DOI: 10.1063/1.4993215
   * E. Caldeweyher, S. Ehlert, A. Hansen, H. Neugebauer, S. Spicher,
     C. Bannwarth and S. Grimme, J. Chem. Phys., 2019, 150, 154122.
     DOI: 10.1063/1.5090222
   * E. Caldeweyher, J.-M. Mewes, S. Ehlert and S. Grimme, Phys. Chem. Chem. Phys.
     2020, 22, 8499-8512. DOI: 10.1039/D0CP00502A
   
   for sTDA-xTB:
   * S. Grimme and C. Bannwarth, J. Chem. Phys., 2016, 145, 054103.
     DOI: 10.1063/1.4959605
   
   in the mass-spec context:
   * V. Asgeirsson, C. Bauer and S. Grimme, Chem. Sci., 2017, 8, 4879.
     DOI: 10.1039/c7sc00601b
   * J. Koopman and S. Grimme, ACS Omega 2019, 4, 12, 15120-15133.
     DOI: 10.1021/acsomega.9b02011
   
   for metadynamics refer to:
   * S. Grimme, J. Chem. Theory Comput., 2019, 155, 2847-2862
     DOI: 10.1021/acs.jctc.9b00143
   
   for SPH calculations refer to:
   * S. Spicher and S. Grimme, J. Chem. Theory Comput., 2021, 17, 1701-1714
     DOI: 10.1021/acs.jctc.0c01306
   
   with help from (in alphabetical order)
   P. Atkinson, C. Bannwarth, F. Bohle, G. Brandenburg, E. Caldeweyher
   M. Checinski, S. Dohm, S. Ehlert, S. Ehrlich, I. Gerasimov, J. Koopman
   C. Lavigne, S. Lehtola, F. März, M. Müller, F. Musil, H. Neugebauer
   J. Pisarek, C. Plett, P. Pracht, J. Seibert, P. Shushkov, S. Spicher
   M. Stahn, M. Steiner, T. Strunk, J. Stückrath, T. Rose, and J. Unsleber
   
 * started run on 2022/03/01 at 12:20:35.967     

           -------------------------------------------------
          |                Calculation Setup                |
           -------------------------------------------------

          program call               : /ihome/ghutchison/oda6/xtb/xtb-641/bin/xtb ../../FF_optimized/149_61_110110.mol -opt
          hostname                   : smp-n90
          coordinate file            : ../../FF_optimized/149_61_110110.mol
          omp threads                :                     8
          number of atoms            :                   254
          number of electrons        :                   890
          charge                     :                     0
          spin                       :                   0.0
          first test random number   :      0.58688826108607

   ID    Z sym.   atoms
    1    6 C      1-5, 7-10, 12, 14-17, 19-23, 26, 28, 29, 31-35, 37-40, 42,
                  44-47, 49-53, 56, 58, 59, 61-67, 69-71, 73-76, 78-82, 84,
                  86, 87, 89-93, 95-98, 100, 102-105, 107-111, 114, 116, 117,
                  119-123, 125-128, 130, 132-135, 137-141, 144, 146, 147,
                  149-155, 157-159, 161-164, 166-170, 172, 174, 175
    2   16 S      6, 18, 27, 30, 36, 48, 57, 60, 72, 77, 85, 88, 94, 106,
                  115, 118, 124, 136, 145, 148, 160, 165, 173, 176
    3   17 Cl     11, 13, 24, 25, 41, 43, 54, 55, 99, 101, 112, 113, 129,
                  131, 142, 143
    4    9 F      68, 83, 156, 171
    5    1 H      177-254
########################################################################
[WARNING] Please study the warnings concerning your input carefully
-1- prog_main_parseArguments: the use of '-opt' is discouraged, please use '--opt' next time
########################################################################

           -------------------------------------------------
          |                 G F N 2 - x T B                 |
           -------------------------------------------------

        Reference                      10.1021/acs.jctc.8b01176
      * Hamiltonian:
        H0-scaling (s, p, d)           1.850000    2.230000    2.230000
        zeta-weighting                 0.500000
      * Dispersion:
        s8                             2.700000
        a1                             0.520000
        a2                             5.000000
        s9                             5.000000
      * Repulsion:
        kExp                           1.500000    1.000000
        rExp                           1.000000
      * Coulomb:
        alpha                          2.000000
        third order                    shell-resolved
        anisotropic                    true
        a3                             3.000000
        a5                             4.000000
        cn-shift                       1.200000
        cn-exp                         4.000000
        max-rad                        5.000000


          ...................................................
          :                      SETUP                      :
          :.................................................:
          :  # basis functions                1022          :
          :  # atomic orbitals                 982          :
          :  # shells                          470          :
          :  # electrons                       890          :
          :  max. iterations                   250          :
          :  Hamiltonian                  GFN2-xTB          :
          :  restarted?                      false          :
          :  GBSA solvation                  false          :
          :  PC potential                    false          :
          :  electronic temp.          300.0000000     K    :
          :  accuracy                    1.0000000          :
          :  -> integral cutoff          0.2500000E+02      :
          :  -> integral neglect         0.1000000E-07      :
          :  -> SCF convergence          0.1000000E-05 Eh   :
          :  -> wf. convergence          0.1000000E-03 e    :
          :  Broyden damping             0.4000000          :
          ...................................................

 iter      E             dE          RMSdq      gap      omega  full diag
   1   -497.7844006 -0.497784E+03  0.414E+00    1.47       0.0  T
   2   -498.0528790 -0.268478E+00  0.236E+00    1.38       1.0  T
   3   -497.8215803  0.231299E+00  0.124E+00    1.39       1.0  T
   4   -498.0846998 -0.263119E+00  0.546E-01    1.36       1.0  T
   5   -498.1323712 -0.476714E-01  0.202E-01    1.36       1.0  T
   6   -498.1352490 -0.287782E-02  0.116E-01    1.38       1.0  T
   7   -498.1364866 -0.123753E-02  0.732E-02    1.37       1.0  T
   8   -498.1368904 -0.403777E-03  0.546E-02    1.38       1.0  T
   9   -498.1370052 -0.114850E-03  0.409E-02    1.39       1.0  T
  10   -498.1372118 -0.206597E-03  0.231E-02    1.39       1.0  T
  11   -498.1372748 -0.629515E-04  0.122E-02    1.40       1.0  T
  12   -498.1372861 -0.113703E-04  0.649E-03    1.40       1.0  T
  13   -498.1372900 -0.390628E-05  0.350E-03    1.40       1.8  T
  14   -498.1372921 -0.207495E-05  0.169E-03    1.40       3.7  T
  15   -498.1372924 -0.339052E-06  0.111E-03    1.40       5.7  T
  16   -498.1372925 -0.635848E-07  0.791E-04    1.40       7.9  T
  17   -498.1372926 -0.607823E-07  0.560E-04    1.40      11.2  T

   *** convergence criteria satisfied after 17 iterations ***

         #    Occupation            Energy/Eh            Energy/eV
      -------------------------------------------------------------
         1        2.0000           -1.0648587             -28.9763
       ...           ...                  ...                  ...
       439        2.0000           -0.3896621             -10.6032
       440        2.0000           -0.3758681             -10.2279
       441        2.0000           -0.3752967             -10.2123
       442        2.0000           -0.3719905             -10.1224
       443        2.0000           -0.3705918             -10.0843
       444        2.0000           -0.3653852              -9.9426
       445        2.0000           -0.3652156              -9.9380 (HOMO)
       446                         -0.3137895              -8.5386 (LUMO)
       447                         -0.3076167              -8.3707
       448                         -0.2981631              -8.1134
       449                         -0.2901069              -7.8942
       450                         -0.2898092              -7.8861
       ...                                ...                  ...
       982                          0.7814211              21.2636
      -------------------------------------------------------------
                  HL-Gap            0.0514261 Eh            1.3994 eV
             Fermi-level           -0.3392220 Eh           -9.2307 eV

 SCC (total)                   0 d,  0 h,  0 min,  1.878 sec
 SCC setup                      ...        0 min,  0.005 sec (  0.268%)
 Dispersion                     ...        0 min,  0.016 sec (  0.835%)
 classical contributions        ...        0 min,  0.001 sec (  0.029%)
 integral evaluation            ...        0 min,  0.081 sec (  4.339%)
 iterations                     ...        0 min,  1.510 sec ( 80.404%)
 molecular gradient             ...        0 min,  0.256 sec ( 13.650%)
 printout                       ...        0 min,  0.009 sec (  0.469%)

         :::::::::::::::::::::::::::::::::::::::::::::::::::::
         ::                     SUMMARY                     ::
         :::::::::::::::::::::::::::::::::::::::::::::::::::::
         :: total energy            -492.230054431550 Eh    ::
         :: gradient norm              0.436245586490 Eh/a0 ::
         :: HOMO-LUMO gap              1.399375476760 eV    ::
         ::.................................................::
         :: SCC energy              -498.137292566323 Eh    ::
         :: -> isotropic ES            0.128762888471 Eh    ::
         :: -> anisotropic ES         -0.016087629616 Eh    ::
         :: -> anisotropic XC          0.123340848690 Eh    ::
         :: -> dispersion             -0.472589898201 Eh    ::
         :: repulsion energy           5.898309967627 Eh    ::
         :: add. restraining           0.000000000000 Eh    ::
         :: total charge               0.000000000003 e     ::
         :::::::::::::::::::::::::::::::::::::::::::::::::::::

      ----------------------------------------------------------- 
     |                   =====================                   |
     |                        A N C O P T                        |
     |                   =====================                   |
     |               Approximate Normal Coordinate               |
     |                Rational Function Optimizer                |
      ----------------------------------------------------------- 

          ...................................................
          :                      SETUP                      :
          :.................................................:
          :   optimization level            normal          :
          :   max. optcycles                   762          :
          :   ANC micro-cycles                  20          :
          :   degrees of freedom               756          :
          :.................................................:
          :   RF solver                   davidson          :
          :   write xtbopt.log                true          :
          :   linear?                        false          :
          :   energy convergence         0.5000000E-05 Eh   :
          :   grad. convergence          0.1000000E-02 Eh/α :
          :   maximium RF displ.         1.0000000          :
          :   Hlow (freq-cutoff)         0.1000000E-01      :
          :   Hmax (freq-cutoff)         5.0000000          :
          :   S6 in model hess.         20.0000000          :
          ...................................................

generating ANC from model Hessian ...
Using Lindh-Hessian (1995)
 Shifting diagonal of input Hessian by   9.996039758908396E-003
 Lowest  eigenvalues of input Hessian
    0.000000    0.000000    0.000000    0.000000    0.000000    0.000000
    0.010000    0.010002    0.010009    0.010010    0.010017    0.010018
    0.010028    0.010030    0.010035    0.010047    0.010057    0.010074
 Highest eigenvalues
    2.093902    2.094736    2.096232    2.097766    2.104089    2.106679
 

........................................................................
.............................. CYCLE    1 ..............................
........................................................................
   1   -498.1372926 -0.498137E+03  0.402E-04    1.40       0.0  T
   2   -498.1372926 -0.233797E-08  0.362E-04    1.40      17.3  T
   3   -498.1372926 -0.108799E-07  0.301E-04    1.40      20.8  T
     SCC iter.                  ...        0 min,  0.274 sec
     gradient                   ...        0 min,  0.253 sec
 * total energy  :  -492.2300545 Eh     change       -0.4021678E-07 Eh
   gradient norm :     0.4362448 Eh/α   predicted     0.0000000E+00 (-100.00%)
   displ. norm   :     0.4292432 α      lambda       -0.1501635E+00
   maximum displ.:     0.1034748 α      in ANC's #642, #643, #552, ...

........................................................................
.............................. CYCLE    2 ..............................
........................................................................
   1   -498.3007166 -0.498301E+03  0.268E-01    1.44       0.0  T
   2   -498.3024466 -0.172999E-02  0.156E-01    1.45       1.0  T
   3   -498.3021874  0.259165E-03  0.845E-02    1.44       1.0  T
   4   -498.3031754 -0.987981E-03  0.395E-02    1.45       1.0  T
   5   -498.3033235 -0.148160E-03  0.192E-02    1.44       1.0  T
   6   -498.3033600 -0.364373E-04  0.115E-02    1.44       1.0  T
   7   -498.3033725 -0.125548E-04  0.748E-03    1.44       1.0  T
   8   -498.3033754 -0.283364E-05  0.569E-03    1.44       1.1  T
   9   -498.3033782 -0.285553E-05  0.313E-03    1.44       2.0  T
  10   -498.3033794 -0.119269E-05  0.177E-03    1.44       3.6  T
  11   -498.3033799 -0.514389E-06  0.735E-04    1.44       8.5  T
  12   -498.3033800 -0.279668E-07  0.495E-04    1.44      12.7  T
     SCC iter.                  ...        0 min,  1.063 sec
     gradient                   ...        0 min,  0.250 sec
 * total energy  :  -492.3464409 Eh     change       -0.1163864E+00 Eh
   gradient norm :     0.2489094 Eh/α   predicted    -0.8892414E-01 ( -23.60%)
   displ. norm   :     0.4315261 α      lambda       -0.8993800E-01
   maximum displ.:     0.1168900 α      in ANC's #642, #643, #698, ...

........................................................................
.............................. CYCLE    3 ..............................
........................................................................
   1   -498.4324923 -0.498432E+03  0.280E-01    1.48       0.0  T
   2   -498.4350258 -0.253354E-02  0.160E-01    1.49       1.0  T
   3   -498.4350863 -0.604993E-04  0.868E-02    1.48       1.0  T
   4   -498.4359360 -0.849680E-03  0.466E-02    1.49       1.0  T
   5   -498.4361532 -0.217132E-03  0.214E-02    1.48       1.0  T
   6   -498.4361853 -0.321949E-04  0.144E-02    1.48       1.0  T
   7   -498.4362052 -0.198949E-04  0.928E-03    1.48       1.0  T
   8   -498.4362096 -0.434687E-05  0.675E-03    1.48       1.0  T
   9   -498.4362146 -0.498522E-05  0.336E-03    1.48       1.9  T
  10   -498.4362156 -0.103096E-05  0.192E-03    1.48       3.3  T
  11   -498.4362163 -0.718459E-06  0.708E-04    1.48       8.9  T
  12   -498.4362163 -0.227716E-07  0.474E-04    1.48      13.2  T
     SCC iter.                  ...        0 min,  1.068 sec
     gradient                   ...        0 min,  0.251 sec
 * total energy  :  -492.4019403 Eh     change       -0.5549943E-01 Eh
   gradient norm :     0.0652767 Eh/α   predicted    -0.5334770E-01 (  -3.88%)
   displ. norm   :     0.3906928 α      lambda       -0.1247111E-01
   maximum displ.:     0.0907448 α      in ANC's #118, #119, #110, ...

........................................................................
.............................. CYCLE    4 ..............................
........................................................................
   1   -498.4720139 -0.498472E+03  0.113E-01    1.47       0.0  T
   2   -498.4722494 -0.235480E-03  0.638E-02    1.47       1.0  T
   3   -498.4721501  0.993121E-04  0.348E-02    1.47       1.0  T
   4   -498.4723342 -0.184106E-03  0.163E-02    1.47       1.0  T
   5   -498.4723622 -0.280222E-04  0.800E-03    1.47       1.0  T
   6   -498.4723665 -0.430228E-05  0.540E-03    1.47       1.2  T
   7   -498.4723695 -0.299426E-05  0.346E-03    1.47       1.8  T
   8   -498.4723701 -0.602001E-06  0.247E-03    1.47       2.5  T
   9   -498.4723707 -0.645964E-06  0.127E-03    1.47       4.9  T
  10   -498.4723709 -0.198076E-06  0.647E-04    1.47       9.7  T
  11   -498.4723710 -0.646630E-07  0.294E-04    1.47      21.4  T
     SCC iter.                  ...        0 min,  0.979 sec
     gradient                   ...        0 min,  0.250 sec
 * total energy  :  -492.4101180 Eh     change       -0.8177628E-02 Eh
   gradient norm :     0.0229639 Eh/α   predicted    -0.7187380E-02 ( -12.11%)
   displ. norm   :     0.4125917 α      lambda       -0.3838132E-02
   maximum displ.:     0.0997910 α      in ANC's #118, #119, #97, ...

........................................................................
.............................. CYCLE    5 ..............................
........................................................................
   1   -498.4960686 -0.498496E+03  0.620E-02    1.46       0.0  T
   2   -498.4960846 -0.159624E-04  0.345E-02    1.46       1.0  T
   3   -498.4960434  0.412023E-04  0.146E-02    1.46       1.0  T
   4   -498.4960898 -0.463754E-04  0.580E-03    1.46       1.1  T
   5   -498.4960927 -0.296614E-05  0.313E-03    1.46       2.0  T
   6   -498.4960940 -0.127668E-05  0.170E-03    1.46       3.7  T
   7   -498.4960943 -0.276500E-06  0.121E-03    1.46       5.2  T
   8   -498.4960944 -0.680744E-07  0.881E-04    1.46       7.1  T
   9   -498.4960944 -0.713351E-07  0.491E-04    1.46      12.8  T
     SCC iter.                  ...        0 min,  0.799 sec
     gradient                   ...        0 min,  0.251 sec
 * total energy  :  -492.4128678 Eh     change       -0.2749790E-02 Eh
   gradient norm :     0.0122420 Eh/α   predicted    -0.2245753E-02 ( -18.33%)
   displ. norm   :     0.4397320 α      lambda       -0.2043940E-02
   maximum displ.:     0.1152024 α      in ANC's #37, #97, #110, ...

........................................................................
.............................. CYCLE    6 ..............................
........................................................................
   1   -498.5184289 -0.498518E+03  0.562E-02    1.45       0.0  T
   2   -498.5184367 -0.787392E-05  0.312E-02    1.45       1.0  T
   3   -498.5184127  0.240384E-04  0.111E-02    1.45       1.0  T
   4   -498.5184390 -0.262937E-04  0.417E-03    1.45       1.5  T
   5   -498.5184403 -0.134717E-05  0.216E-03    1.45       2.9  T
   6   -498.5184412 -0.826110E-06  0.898E-04    1.45       7.0  T
   7   -498.5184413 -0.957816E-07  0.589E-04    1.45      10.7  T
     SCC iter.                  ...        0 min,  0.631 sec
     gradient                   ...        0 min,  0.251 sec
 * total energy  :  -492.4143576 Eh     change       -0.1489801E-02 Eh
   gradient norm :     0.0107689 Eh/α   predicted    -0.1219682E-02 ( -18.13%)
   displ. norm   :     0.4513604 α      lambda       -0.1280217E-02
   maximum displ.:     0.1565273 α      in ANC's #37, #66, #97, ...

........................................................................
.............................. CYCLE    7 ..............................
........................................................................
   1   -498.5339574 -0.498534E+03  0.572E-02    1.44       0.0  T
   2   -498.5339682 -0.107986E-04  0.317E-02    1.44       1.0  T
   3   -498.5339427  0.255232E-04  0.115E-02    1.44       1.0  T
   4   -498.5339704 -0.276853E-04  0.440E-03    1.44       1.4  T
   5   -498.5339727 -0.227355E-05  0.199E-03    1.44       3.2  T
   6   -498.5339731 -0.445094E-06  0.102E-03    1.44       6.2  T
   7   -498.5339733 -0.177579E-06  0.555E-04    1.44      11.3  T
   8   -498.5339733 -0.120449E-07  0.448E-04    1.44      14.0  T
     SCC iter.                  ...        0 min,  0.720 sec
     gradient                   ...        0 min,  0.252 sec
 * total energy  :  -492.4153519 Eh     change       -0.9943131E-03 Eh
   gradient norm :     0.0102408 Eh/α   predicted    -0.7706197E-03 ( -22.50%)
   displ. norm   :     0.5356815 α      lambda       -0.1188974E-02
   maximum displ.:     0.2188842 α      in ANC's #37, #66, #54, ...

........................................................................
.............................. CYCLE    8 ..............................
........................................................................
   1   -498.5423673 -0.498542E+03  0.675E-02    1.43       0.0  T
   2   -498.5423807 -0.134463E-04  0.375E-02    1.43       1.0  T
   3   -498.5423476  0.331303E-04  0.129E-02    1.43       1.0  T
   4   -498.5423831 -0.355257E-04  0.510E-03    1.43       1.2  T
   5   -498.5423863 -0.313923E-05  0.222E-03    1.43       2.8  T
   6   -498.5423868 -0.509824E-06  0.113E-03    1.43       5.6  T
   7   -498.5423870 -0.239340E-06  0.601E-04    1.43      10.4  T
   8   -498.5423870 -0.159562E-07  0.479E-04    1.43      13.1  T
     SCC iter.                  ...        0 min,  0.705 sec
     gradient                   ...        0 min,  0.251 sec
 * total energy  :  -492.4163192 Eh     change       -0.9673310E-03 Eh
   gradient norm :     0.0085115 Eh/α   predicted    -0.7650854E-03 ( -20.91%)
   displ. norm   :     0.6011358 α      lambda       -0.1191265E-02
   maximum displ.:     0.2643104 α      in ANC's #37, #66, #54, ...

........................................................................
.............................. CYCLE    9 ..............................
........................................................................
   1   -498.5426826 -0.498543E+03  0.746E-02    1.43       0.0  T
   2   -498.5426951 -0.125245E-04  0.415E-02    1.43       1.0  T
   3   -498.5426569  0.381659E-04  0.136E-02    1.43       1.0  T
   4   -498.5426987 -0.417324E-04  0.520E-03    1.43       1.2  T
   5   -498.5427011 -0.242997E-05  0.231E-03    1.43       2.7  T
   6   -498.5427018 -0.703533E-06  0.108E-03    1.43       5.8  T
   7   -498.5427020 -0.197450E-06  0.649E-04    1.43       9.7  T
   8   -498.5427020 -0.204170E-07  0.507E-04    1.43      12.4  T
     SCC iter.                  ...        0 min,  0.703 sec
     gradient                   ...        0 min,  0.251 sec
 * total energy  :  -492.4173132 Eh     change       -0.9939391E-03 Eh
   gradient norm :     0.0078885 Eh/α   predicted    -0.8108748E-03 ( -18.42%)
   displ. norm   :     0.6408276 α      lambda       -0.1162462E-02
   maximum displ.:     0.2957760 α      in ANC's #37, #66, #22, ...

........................................................................
.............................. CYCLE   10 ..............................
........................................................................
   1   -498.5373623 -0.498537E+03  0.777E-02    1.42       0.0  T
   2   -498.5373734 -0.110584E-04  0.433E-02    1.42       1.0  T
   3   -498.5373327  0.406291E-04  0.141E-02    1.42       1.0  T
   4   -498.5373781 -0.453746E-04  0.508E-03    1.42       1.2  T
   5   -498.5373794 -0.133185E-05  0.244E-03    1.42       2.6  T
   6   -498.5373805 -0.108376E-05  0.974E-04    1.42       6.4  T
   7   -498.5373806 -0.108735E-06  0.694E-04    1.42       9.0  T
   8   -498.5373807 -0.240983E-07  0.528E-04    1.42      11.9  T
     SCC iter.                  ...        0 min,  0.708 sec
     gradient                   ...        0 min,  0.251 sec
 * total energy  :  -492.4182826 Eh     change       -0.9694851E-03 Eh
   gradient norm :     0.0089858 Eh/α   predicted    -0.8199255E-03 ( -15.43%)
   displ. norm   :     0.6534648 α      lambda       -0.1038893E-02
   maximum displ.:     0.3116759 α      in ANC's #37, #22, #38, ...

........................................................................
.............................. CYCLE   11 ..............................
........................................................................
   1   -498.5305874 -0.498531E+03  0.766E-02    1.42       0.0  T
   2   -498.5305981 -0.106213E-04  0.427E-02    1.42       1.0  T
   3   -498.5305571  0.409166E-04  0.141E-02    1.42       1.0  T
   4   -498.5306029 -0.457133E-04  0.499E-03    1.42       1.3  T
   5   -498.5306040 -0.119516E-05  0.252E-03    1.42       2.5  T
   6   -498.5306052 -0.119450E-05  0.101E-03    1.42       6.2  T
   7   -498.5306053 -0.949116E-07  0.741E-04    1.42       8.5  T
   8   -498.5306054 -0.274984E-07  0.562E-04    1.42      11.2  T
     SCC iter.                  ...        0 min,  0.700 sec
     gradient                   ...        0 min,  0.251 sec
 * total energy  :  -492.4191498 Eh     change       -0.8671319E-03 Eh
   gradient norm :     0.0090042 Eh/α   predicted    -0.7412771E-03 ( -14.51%)
   displ. norm   :     0.6550031 α      lambda       -0.9140593E-03
   maximum displ.:     0.3172884 α      in ANC's #37, #22, #38, ...

........................................................................
.............................. CYCLE   12 ..............................
........................................................................
   1   -498.5258586 -0.498526E+03  0.733E-02    1.41       0.0  T
   2   -498.5258683 -0.974497E-05  0.410E-02    1.41       1.0  T
   3   -498.5258279  0.404638E-04  0.138E-02    1.41       1.0  T
   4   -498.5258727 -0.448399E-04  0.482E-03    1.41       1.3  T
   5   -498.5258740 -0.130372E-05  0.245E-03    1.41       2.6  T
   6   -498.5258751 -0.109306E-05  0.102E-03    1.41       6.2  T
   7   -498.5258752 -0.104080E-06  0.726E-04    1.41       8.6  T
   8   -498.5258752 -0.242734E-07  0.552E-04    1.41      11.4  T
     SCC iter.                  ...        0 min,  0.704 sec
     gradient                   ...        0 min,  0.251 sec
 * total energy  :  -492.4199143 Eh     change       -0.7645253E-03 Eh
   gradient norm :     0.0073346 Eh/α   predicted    -0.6531327E-03 ( -14.57%)
   displ. norm   :     0.6558655 α      lambda       -0.8150490E-03
   maximum displ.:     0.3162165 α      in ANC's #37, #22, #38, ...

........................................................................
.............................. CYCLE   13 ..............................
........................................................................
   1   -498.5246281 -0.498525E+03  0.693E-02    1.41       0.0  T
   2   -498.5246363 -0.815934E-05  0.389E-02    1.41       1.0  T
   3   -498.5245984  0.378651E-04  0.131E-02    1.41       1.0  T
   4   -498.5246402 -0.418048E-04  0.450E-03    1.41       1.4  T
   5   -498.5246413 -0.112402E-05  0.226E-03    1.41       2.8  T
   6   -498.5246423 -0.946259E-06  0.945E-04    1.41       6.6  T
   7   -498.5246424 -0.927498E-07  0.665E-04    1.41       9.4  T
     SCC iter.                  ...        0 min,  0.619 sec
     gradient                   ...        0 min,  0.251 sec
 * total energy  :  -492.4205951 Eh     change       -0.6808565E-03 Eh
   gradient norm :     0.0061563 Eh/α   predicted    -0.5828267E-03 ( -14.40%)
   displ. norm   :     0.6592636 α      lambda       -0.7274080E-03
   maximum displ.:     0.3093586 α      in ANC's #37, #22, #38, ...

........................................................................
.............................. CYCLE   14 ..............................
........................................................................
   1   -498.5258500 -0.498526E+03  0.658E-02    1.40       0.0  T
   2   -498.5258569 -0.691517E-05  0.369E-02    1.41       1.0  T
   3   -498.5258259  0.310137E-04  0.120E-02    1.40       1.0  T
   4   -498.5258602 -0.342595E-04  0.422E-03    1.40       1.5  T
   5   -498.5258612 -0.101274E-05  0.199E-03    1.40       3.2  T
   6   -498.5258619 -0.685234E-06  0.904E-04    1.40       6.9  T
   7   -498.5258620 -0.819239E-07  0.649E-04    1.40       9.7  T
     SCC iter.                  ...        0 min,  0.627 sec
     gradient                   ...        0 min,  0.252 sec
 * total energy  :  -492.4212053 Eh     change       -0.6101446E-03 Eh
   gradient norm :     0.0070081 Eh/α   predicted    -0.5217977E-03 ( -14.48%)
   displ. norm   :     0.6568767 α      lambda       -0.6661068E-03
   maximum displ.:     0.2909833 α      in ANC's #37, #22, #38, ...

........................................................................
.............................. CYCLE   15 ..............................
........................................................................
   1   -498.5292492 -0.498529E+03  0.614E-02    1.40       0.0  T
   2   -498.5292555 -0.630978E-05  0.343E-02    1.40       1.0  T
   3   -498.5292325  0.229706E-04  0.105E-02    1.40       1.0  T
   4   -498.5292576 -0.250886E-04  0.404E-03    1.40       1.6  T
   5   -498.5292589 -0.128896E-05  0.177E-03    1.40       3.6  T
   6   -498.5292594 -0.450858E-06  0.899E-04    1.40       7.0  T
   7   -498.5292594 -0.873240E-07  0.645E-04    1.40       9.7  T
     SCC iter.                  ...        0 min,  0.616 sec
     gradient                   ...        0 min,  0.251 sec
 * total energy  :  -492.4217648 Eh     change       -0.5595435E-03 Eh
   gradient norm :     0.0076979 Eh/α   predicted    -0.4767626E-03 ( -14.79%)
   displ. norm   :     0.6674711 α      lambda       -0.6156053E-03
   maximum displ.:     0.2789990 α      in ANC's #37, #22, #38, ...

........................................................................
.............................. CYCLE   16 ..............................
........................................................................
   1   -498.5296987 -0.498530E+03  0.602E-02    1.40       0.0  T
   2   -498.5297059 -0.715516E-05  0.335E-02    1.40       1.0  T
   3   -498.5296847  0.211234E-04  0.104E-02    1.40       1.0  T
   4   -498.5297073 -0.225794E-04  0.414E-03    1.40       1.5  T
   5   -498.5297091 -0.177559E-05  0.168E-03    1.40       3.7  T
   6   -498.5297094 -0.324212E-06  0.875E-04    1.40       7.2  T
   7   -498.5297095 -0.119172E-06  0.547E-04    1.40      11.5  T
     SCC iter.                  ...        0 min,  0.630 sec
     gradient                   ...        0 min,  0.249 sec
 * total energy  :  -492.4222814 Eh     change       -0.5165485E-03 Eh
   gradient norm :     0.0068556 Eh/α   predicted    -0.4449783E-03 ( -13.86%)
   displ. norm   :     0.6446565 α      lambda       -0.5901044E-03
   maximum displ.:     0.2315645 α      in ANC's #22, #37, #20, ...

........................................................................
.............................. CYCLE   17 ..............................
........................................................................
   1   -498.5383384 -0.498538E+03  0.523E-02    1.40       0.0  T
   2   -498.5383439 -0.543080E-05  0.294E-02    1.41       1.0  T
   3   -498.5383238  0.200368E-04  0.990E-03    1.40       1.0  T
   4   -498.5383460 -0.221914E-04  0.373E-03    1.41       1.7  T
   5   -498.5383471 -0.104650E-05  0.198E-03    1.40       3.2  T
   6   -498.5383475 -0.479545E-06  0.115E-03    1.40       5.4  T
   7   -498.5383477 -0.118735E-06  0.893E-04    1.40       7.0  T
   8   -498.5383477 -0.467685E-07  0.639E-04    1.40       9.8  T
     SCC iter.                  ...        0 min,  0.718 sec
     gradient                   ...        0 min,  0.250 sec
 * total energy  :  -492.4227149 Eh     change       -0.4335316E-03 Eh
   gradient norm :     0.0079906 Eh/α   predicted    -0.4176742E-03 (  -3.66%)
   displ. norm   :     0.6975300 α      lambda       -0.5733709E-03
   maximum displ.:     0.2762272 α      in ANC's #37, #22, #38, ...

........................................................................
.............................. CYCLE   18 ..............................
........................................................................
   1   -498.5249635 -0.498525E+03  0.652E-02    1.40       0.0  T
   2   -498.5249750 -0.114520E-04  0.364E-02    1.40       1.0  T
   3   -498.5249333  0.417257E-04  0.146E-02    1.40       1.0  T
   4   -498.5249797 -0.464506E-04  0.486E-03    1.40       1.3  T
   5   -498.5249815 -0.183975E-05  0.257E-03    1.40       2.4  T
   6   -498.5249824 -0.836513E-06  0.137E-03    1.40       4.6  T
   7   -498.5249826 -0.250944E-06  0.941E-04    1.40       6.7  T
   8   -498.5249827 -0.313908E-07  0.753E-04    1.40       8.3  T
     SCC iter.                  ...        0 min,  0.718 sec
     gradient                   ...        0 min,  0.250 sec
 * total energy  :  -492.4230726 Eh     change       -0.3577286E-03 Eh
   gradient norm :     0.0080624 Eh/α   predicted    -0.4261789E-03 (  19.13%)
   displ. norm   :     0.4585321 α      lambda       -0.3603518E-03
   maximum displ.:     0.1724001 α      in ANC's #22, #37, #6, ...

........................................................................
.............................. CYCLE   19 ..............................
........................................................................
   1   -498.5275767 -0.498528E+03  0.341E-02    1.40       0.0  T
   2   -498.5275789 -0.217979E-05  0.192E-02    1.40       1.0  T
   3   -498.5275662  0.127574E-04  0.759E-03    1.40       1.0  T
   4   -498.5275804 -0.141979E-04  0.235E-03    1.40       2.7  T
   5   -498.5275806 -0.268043E-06  0.138E-03    1.40       4.6  T
   6   -498.5275810 -0.315019E-06  0.678E-04    1.40       9.3  T
   7   -498.5275810 -0.447218E-07  0.513E-04    1.40      12.2  T
     SCC iter.                  ...        0 min,  0.629 sec
     gradient                   ...        0 min,  0.250 sec
 * total energy  :  -492.4233714 Eh     change       -0.2987652E-03 Eh
   gradient norm :     0.0070659 Eh/α   predicted    -0.2180648E-03 ( -27.01%)
   displ. norm   :     0.5401461 α      lambda       -0.4337105E-03
   maximum displ.:     0.2049943 α      in ANC's #22, #6, #37, ...

........................................................................
.............................. CYCLE   20 ..............................
........................................................................
   1   -498.5308525 -0.498531E+03  0.398E-02    1.40       0.0  T
   2   -498.5308563 -0.380016E-05  0.223E-02    1.40       1.0  T
   3   -498.5308395  0.167901E-04  0.886E-03    1.40       1.0  T
   4   -498.5308580 -0.184923E-04  0.297E-03    1.40       2.1  T
   5   -498.5308588 -0.831416E-06  0.153E-03    1.40       4.1  T
   6   -498.5308591 -0.284199E-06  0.832E-04    1.40       7.5  T
   7   -498.5308592 -0.744384E-07  0.602E-04    1.40      10.4  T
     SCC iter.                  ...        0 min,  0.629 sec
     gradient                   ...        0 min,  0.250 sec
 * total energy  :  -492.4237132 Eh     change       -0.3417814E-03 Eh
   gradient norm :     0.0056896 Eh/α   predicted    -0.2801413E-03 ( -18.03%)
   displ. norm   :     0.5944070 α      lambda       -0.3590156E-03
   maximum displ.:     0.2278607 α      in ANC's #22, #6, #37, ...
 * RMSD in coord.:     0.5436350 α      energy gain  -0.1936588E+00 Eh

generating ANC from model Hessian ...
Using Lindh-Hessian (1995)
 Shifting diagonal of input Hessian by   9.997264449996657E-003
 Lowest  eigenvalues of input Hessian
    0.000000    0.000000    0.000000    0.000000    0.000000    0.000000
    0.010000    0.010004    0.010009    0.010012    0.010014    0.010019
    0.010027    0.010029    0.010032    0.010047    0.010064    0.010076
 Highest eigenvalues
    2.069910    2.072394    2.077725    2.084204    2.088918    2.094000
 

........................................................................
.............................. CYCLE   21 ..............................
........................................................................
   1   -498.5288827 -0.498529E+03  0.424E-02    1.39       0.0  T
   2   -498.5288862 -0.345424E-05  0.239E-02    1.39       1.0  T
   3   -498.5288682  0.179542E-04  0.898E-03    1.39       1.0  T
   4   -498.5288880 -0.197747E-04  0.286E-03    1.39       2.2  T
   5   -498.5288886 -0.587630E-06  0.149E-03    1.39       4.2  T
   6   -498.5288889 -0.334986E-06  0.756E-04    1.39       8.3  T
   7   -498.5288890 -0.616800E-07  0.540E-04    1.39      11.6  T
     SCC iter.                  ...        0 min,  0.632 sec
     gradient                   ...        0 min,  0.251 sec
 * total energy  :  -492.4240001 Eh     change       -0.2869094E-03 Eh
   gradient norm :     0.0059038 Eh/α   predicted     0.0000000E+00 (-100.00%)
   displ. norm   :     0.0833780 α      lambda       -0.1395045E-03
   maximum displ.:     0.0211528 α      in ANC's #18, #22, #33, ...

........................................................................
.............................. CYCLE   22 ..............................
........................................................................
   1   -498.5288073 -0.498529E+03  0.112E-02    1.39       0.0  T
   2   -498.5288079 -0.583010E-06  0.635E-03    1.39       1.0  T
   3   -498.5288062  0.166431E-05  0.298E-03    1.39       2.1  T
   4   -498.5288082 -0.197629E-05  0.107E-03    1.39       5.9  T
   5   -498.5288083 -0.971998E-07  0.647E-04    1.39       9.7  T
   6   -498.5288083 -0.371318E-07  0.405E-04    1.39      15.5  T
     SCC iter.                  ...        0 min,  0.541 sec
     gradient                   ...        0 min,  0.250 sec
 * total energy  :  -492.4241178 Eh     change       -0.1177174E-03 Eh
   gradient norm :     0.0031014 Eh/α   predicted    -0.7050584E-04 ( -40.11%)
   displ. norm   :     0.2860325 α      lambda       -0.3073477E-03
   maximum displ.:     0.0746835 α      in ANC's #18, #22, #33, ...

........................................................................
.............................. CYCLE   23 ..............................
........................................................................
   1   -498.5292420 -0.498529E+03  0.317E-02    1.39       0.0  T
   2   -498.5292452 -0.317178E-05  0.181E-02    1.39       1.0  T
   3   -498.5292314  0.137726E-04  0.818E-03    1.39       1.0  T
   4   -498.5292474 -0.159672E-04  0.279E-03    1.39       2.2  T
   5   -498.5292479 -0.505946E-06  0.182E-03    1.39       3.5  T
   6   -498.5292482 -0.345335E-06  0.115E-03    1.39       5.5  T
   7   -498.5292483 -0.925564E-07  0.912E-04    1.39       6.9  T
   8   -498.5292484 -0.718276E-07  0.598E-04    1.39      10.5  T
     SCC iter.                  ...        0 min,  0.715 sec
     gradient                   ...        0 min,  0.250 sec
 * total energy  :  -492.4243265 Eh     change       -0.2087295E-03 Eh
   gradient norm :     0.0043337 Eh/α   predicted    -0.1662485E-03 ( -20.35%)
   displ. norm   :     0.2673179 α      lambda       -0.1635079E-03
   maximum displ.:     0.0729174 α      in ANC's #18, #22, #29, ...

........................................................................
.............................. CYCLE   24 ..............................
........................................................................
   1   -498.5297379 -0.498530E+03  0.258E-02    1.39       0.0  T
   2   -498.5297392 -0.128525E-05  0.146E-02    1.39       1.0  T
   3   -498.5297323  0.693998E-05  0.561E-03    1.39       1.1  T
   4   -498.5297401 -0.779009E-05  0.190E-03    1.39       3.3  T
   5   -498.5297402 -0.160157E-06  0.120E-03    1.39       5.2  T
   6   -498.5297405 -0.226052E-06  0.642E-04    1.39       9.8  T
   7   -498.5297405 -0.291122E-07  0.522E-04    1.39      12.0  T
     SCC iter.                  ...        0 min,  0.629 sec
     gradient                   ...        0 min,  0.249 sec
 * total energy  :  -492.4244599 Eh     change       -0.1333631E-03 Eh
   gradient norm :     0.0061604 Eh/α   predicted    -0.8797909E-04 ( -34.03%)
   displ. norm   :     0.4428521 α      lambda       -0.2622611E-03
   maximum displ.:     0.1218814 α      in ANC's #18, #22, #13, ...

........................................................................
.............................. CYCLE   25 ..............................
........................................................................
   1   -498.5303219 -0.498530E+03  0.396E-02    1.39       0.0  T
   2   -498.5303243 -0.240501E-05  0.222E-02    1.39       1.0  T
   3   -498.5303124  0.118880E-04  0.739E-03    1.39       1.0  T
   4   -498.5303255 -0.130929E-04  0.268E-03    1.39       2.3  T
   5   -498.5303259 -0.403148E-06  0.138E-03    1.39       4.5  T
   6   -498.5303262 -0.340087E-06  0.674E-04    1.39       9.3  T
   7   -498.5303262 -0.378797E-07  0.536E-04    1.39      11.7  T
     SCC iter.                  ...        0 min,  0.627 sec
     gradient                   ...        0 min,  0.251 sec
 * total energy  :  -492.4246726 Eh     change       -0.2126728E-03 Eh
   gradient norm :     0.0065914 Eh/α   predicted    -0.1568484E-03 ( -26.25%)
   displ. norm   :     0.5176685 α      lambda       -0.2941815E-03
   maximum displ.:     0.1453273 α      in ANC's #18, #22, #13, ...

........................................................................
.............................. CYCLE   26 ..............................
........................................................................
   1   -498.5305846 -0.498531E+03  0.430E-02    1.39       0.0  T
   2   -498.5305875 -0.287111E-05  0.240E-02    1.39       1.0  T
   3   -498.5305747  0.128117E-04  0.780E-03    1.39       1.0  T
   4   -498.5305887 -0.140802E-04  0.286E-03    1.39       2.2  T
   5   -498.5305892 -0.495788E-06  0.138E-03    1.39       4.5  T
   6   -498.5305896 -0.355633E-06  0.634E-04    1.39       9.9  T
   7   -498.5305896 -0.341704E-07  0.494E-04    1.39      12.7  T
     SCC iter.                  ...        0 min,  0.625 sec
     gradient                   ...        0 min,  0.252 sec
 * total energy  :  -492.4249076 Eh     change       -0.2350062E-03 Eh
   gradient norm :     0.0055152 Eh/α   predicted    -0.1865132E-03 ( -20.63%)
   displ. norm   :     0.5132584 α      lambda       -0.2636663E-03
   maximum displ.:     0.1501498 α      in ANC's #22, #18, #13, ...

........................................................................
.............................. CYCLE   27 ..............................
........................................................................
   1   -498.5311011 -0.498531E+03  0.389E-02    1.39       0.0  T
   2   -498.5311040 -0.288753E-05  0.218E-02    1.39       1.0  T
   3   -498.5310907  0.132621E-04  0.799E-03    1.39       1.0  T
   4   -498.5311055 -0.148347E-04  0.268E-03    1.39       2.3  T
   5   -498.5311059 -0.381941E-06  0.147E-03    1.39       4.3  T
   6   -498.5311063 -0.352498E-06  0.724E-04    1.39       8.7  T
   7   -498.5311063 -0.371136E-07  0.573E-04    1.39      11.0  T
     SCC iter.                  ...        0 min,  0.627 sec
     gradient                   ...        0 min,  0.250 sec
 * total energy  :  -492.4251149 Eh     change       -0.2073570E-03 Eh
   gradient norm :     0.0042233 Eh/α   predicted    -0.1665678E-03 ( -19.67%)
   displ. norm   :     0.5003329 α      lambda       -0.2179320E-03
   maximum displ.:     0.1525319 α      in ANC's #22, #18, #13, ...

........................................................................
.............................. CYCLE   28 ..............................
........................................................................
   1   -498.5315743 -0.498532E+03  0.343E-02    1.38       0.0  T
   2   -498.5315767 -0.244762E-05  0.193E-02    1.38       1.0  T
   3   -498.5315653  0.114083E-04  0.740E-03    1.38       1.0  T
   4   -498.5315781 -0.127971E-04  0.238E-03    1.38       2.6  T
   5   -498.5315784 -0.330794E-06  0.133E-03    1.38       4.7  T
   6   -498.5315787 -0.266793E-06  0.689E-04    1.38       9.1  T
   7   -498.5315788 -0.363295E-07  0.538E-04    1.38      11.7  T
     SCC iter.                  ...        0 min,  0.628 sec
     gradient                   ...        0 min,  0.250 sec
 * total energy  :  -492.4252903 Eh     change       -0.1753439E-03 Eh
   gradient norm :     0.0039083 Eh/α   predicted    -0.1362666E-03 ( -22.29%)
   displ. norm   :     0.5162222 α      lambda       -0.2080314E-03
   maximum displ.:     0.1617028 α      in ANC's #22, #18, #3, ...

........................................................................
.............................. CYCLE   29 ..............................
........................................................................
   1   -498.5321843 -0.498532E+03  0.318E-02    1.38       0.0  T
   2   -498.5321862 -0.194248E-05  0.179E-02    1.38       1.0  T
   3   -498.5321768  0.938418E-05  0.658E-03    1.38       1.0  T
   4   -498.5321873 -0.104214E-04  0.211E-03    1.38       3.0  T
   5   -498.5321875 -0.295172E-06  0.114E-03    1.38       5.5  T
   6   -498.5321877 -0.196149E-06  0.582E-04    1.38      10.8  T
   7   -498.5321878 -0.311970E-07  0.439E-04    1.38      14.3  T
     SCC iter.                  ...        0 min,  0.626 sec
     gradient                   ...        0 min,  0.251 sec
 * total energy  :  -492.4254632 Eh     change       -0.1729140E-03 Eh
   gradient norm :     0.0044638 Eh/α   predicted    -0.1317351E-03 ( -23.81%)
   displ. norm   :     0.5559091 α      lambda       -0.2269939E-03
   maximum displ.:     0.1763115 α      in ANC's #22, #18, #3, ...

........................................................................
.............................. CYCLE   30 ..............................
........................................................................
   1   -498.5331077 -0.498533E+03  0.304E-02    1.38       0.0  T
   2   -498.5331092 -0.150906E-05  0.172E-02    1.38       1.0  T
   3   -498.5331013  0.791569E-05  0.584E-03    1.38       1.1  T
   4   -498.5331100 -0.870923E-05  0.190E-03    1.38       3.3  T
   5   -498.5331102 -0.238939E-06  0.102E-03    1.38       6.2  T
   6   -498.5331104 -0.163969E-06  0.520E-04    1.38      12.1  T
   7   -498.5331104 -0.268455E-07  0.385E-04    1.38      16.3  T
     SCC iter.                  ...        0 min,  0.629 sec
     gradient                   ...        0 min,  0.250 sec
 * total energy  :  -492.4256568 Eh     change       -0.1936157E-03 Eh
   gradient norm :     0.0051498 Eh/α   predicted    -0.1485740E-03 ( -23.26%)
   displ. norm   :     0.6056570 α      lambda       -0.2635770E-03
   maximum displ.:     0.1909925 α      in ANC's #22, #3, #18, ...

........................................................................
.............................. CYCLE   31 ..............................
........................................................................
   1   -498.5340337 -0.498534E+03  0.300E-02    1.38       0.0  T
   2   -498.5340350 -0.130048E-05  0.172E-02    1.38       1.0  T
   3   -498.5340276  0.736307E-05  0.554E-03    1.38       1.1  T
   4   -498.5340357 -0.807927E-05  0.179E-03    1.38       3.5  T
   5   -498.5340359 -0.203490E-06  0.967E-04    1.38       6.5  T
   6   -498.5340360 -0.145317E-06  0.510E-04    1.38      12.3  T
     SCC iter.                  ...        0 min,  0.540 sec
     gradient                   ...        0 min,  0.250 sec
 * total energy  :  -492.4258848 Eh     change       -0.2279624E-03 Eh
   gradient norm :     0.0052061 Eh/α   predicted    -0.1801670E-03 ( -20.97%)
   displ. norm   :     0.6426091 α      lambda       -0.2973973E-03
   maximum displ.:     0.1976929 α      in ANC's #22, #3, #23, ...

........................................................................
.............................. CYCLE   32 ..............................
........................................................................
   1   -498.5342915 -0.498534E+03  0.313E-02    1.38       0.0  T
   2   -498.5342930 -0.150527E-05  0.179E-02    1.38       1.0  T
   3   -498.5342845  0.852007E-05  0.611E-03    1.38       1.0  T
   4   -498.5342938 -0.931394E-05  0.191E-03    1.38       3.3  T
   5   -498.5342941 -0.281097E-06  0.102E-03    1.38       6.1  T
   6   -498.5342943 -0.141701E-06  0.549E-04    1.38      11.4  T
   7   -498.5342943 -0.255073E-07  0.425E-04    1.38      14.8  T
     SCC iter.                  ...        0 min,  0.622 sec
     gradient                   ...        0 min,  0.250 sec
 * total energy  :  -492.4261398 Eh     change       -0.2549713E-03 Eh
   gradient norm :     0.0044974 Eh/α   predicted    -0.2101040E-03 ( -17.60%)
   displ. norm   :     0.6582079 α      lambda       -0.2942399E-03
   maximum displ.:     0.1970913 α      in ANC's #22, #3, #23, ...

........................................................................
.............................. CYCLE   33 ..............................
........................................................................
   1   -498.5330656 -0.498533E+03  0.332E-02    1.38       0.0  T
   2   -498.5330673 -0.171770E-05  0.189E-02    1.38       1.0  T
   3   -498.5330580  0.933956E-05  0.660E-03    1.38       1.0  T
   4   -498.5330682 -0.102448E-04  0.201E-03    1.38       3.1  T
   5   -498.5330685 -0.310145E-06  0.992E-04    1.38       6.3  T
   6   -498.5330687 -0.131513E-06  0.506E-04    1.38      12.4  T
     SCC iter.                  ...        0 min,  0.539 sec
     gradient                   ...        0 min,  0.250 sec
 * total energy  :  -492.4263858 Eh     change       -0.2460758E-03 Eh
   gradient norm :     0.0039331 Eh/α   predicted    -0.2108614E-03 ( -14.31%)
   displ. norm   :     0.6444747 α      lambda       -0.2539482E-03
   maximum displ.:     0.1981737 α      in ANC's #3, #23, #22, ...

........................................................................
.............................. CYCLE   34 ..............................
........................................................................
   1   -498.5312387 -0.498531E+03  0.328E-02    1.38       0.0  T
   2   -498.5312402 -0.152193E-05  0.186E-02    1.38       1.0  T
   3   -498.5312328  0.745293E-05  0.596E-03    1.38       1.1  T
   4   -498.5312409 -0.818227E-05  0.195E-03    1.38       3.2  T
   5   -498.5312412 -0.256844E-06  0.101E-03    1.38       6.2  T
   6   -498.5312414 -0.162388E-06  0.490E-04    1.38      12.8  T
   7   -498.5312414 -0.179944E-07  0.386E-04    1.38      16.3  T
     SCC iter.                  ...        0 min,  0.628 sec
     gradient                   ...        0 min,  0.250 sec
 * total energy  :  -492.4265960 Eh     change       -0.2102009E-03 Eh
   gradient norm :     0.0040598 Eh/α   predicted    -0.1797154E-03 ( -14.50%)
   displ. norm   :     0.6245043 α      lambda       -0.2192291E-03
   maximum displ.:     0.1986529 α      in ANC's #3, #23, #4, ...

........................................................................
.............................. CYCLE   35 ..............................
........................................................................
   1   -498.5293038 -0.498529E+03  0.307E-02    1.38       0.0  T
   2   -498.5293051 -0.125521E-05  0.175E-02    1.38       1.0  T
   3   -498.5292998  0.532765E-05  0.508E-03    1.38       1.2  T
   4   -498.5293057 -0.592316E-05  0.174E-03    1.38       3.6  T
   5   -498.5293058 -0.153719E-06  0.920E-04    1.38       6.8  T
   6   -498.5293060 -0.152893E-06  0.442E-04    1.38      14.2  T
     SCC iter.                  ...        0 min,  0.542 sec
     gradient                   ...        0 min,  0.250 sec
 * total energy  :  -492.4267801 Eh     change       -0.1840280E-03 Eh
   gradient norm :     0.0041835 Eh/α   predicted    -0.1524105E-03 ( -17.18%)
   displ. norm   :     0.6070715 α      lambda       -0.2123058E-03
   maximum displ.:     0.2002126 α      in ANC's #3, #23, #4, ...

........................................................................
.............................. CYCLE   36 ..............................
........................................................................
   1   -498.5288811 -0.498529E+03  0.295E-02    1.38       0.0  T
   2   -498.5288824 -0.133055E-05  0.168E-02    1.38       1.0  T
   3   -498.5288775  0.488037E-05  0.479E-03    1.38       1.3  T
   4   -498.5288829 -0.541595E-05  0.170E-03    1.38       3.7  T
   5   -498.5288831 -0.183236E-06  0.941E-04    1.38       6.7  T
   6   -498.5288833 -0.153619E-06  0.454E-04    1.38      13.8  T
     SCC iter.                  ...        0 min,  0.543 sec
     gradient                   ...        0 min,  0.251 sec
 * total energy  :  -492.4269591 Eh     change       -0.1790352E-03 Eh
   gradient norm :     0.0038816 Eh/α   predicted    -0.1452970E-03 ( -18.84%)
   displ. norm   :     0.6431244 α      lambda       -0.2183678E-03
   maximum displ.:     0.2148749 α      in ANC's #3, #4, #23, ...

........................................................................
.............................. CYCLE   37 ..............................
........................................................................
   1   -498.5271997 -0.498527E+03  0.304E-02    1.38       0.0  T
   2   -498.5272013 -0.154754E-05  0.173E-02    1.38       1.0  T
   3   -498.5271962  0.509778E-05  0.497E-03    1.38       1.3  T
   4   -498.5272019 -0.566270E-05  0.179E-03    1.38       3.5  T
   5   -498.5272021 -0.226110E-06  0.989E-04    1.38       6.3  T
   6   -498.5272022 -0.154915E-06  0.518E-04    1.38      12.1  T
     SCC iter.                  ...        0 min,  0.541 sec
     gradient                   ...        0 min,  0.250 sec
 * total energy  :  -492.4271450 Eh     change       -0.1859490E-03 Eh
   gradient norm :     0.0040191 Eh/α   predicted    -0.1543800E-03 ( -16.98%)
   displ. norm   :     0.6120417 α      lambda       -0.2431428E-03
   maximum displ.:     0.2141752 α      in ANC's #3, #4, #23, ...

........................................................................
.............................. CYCLE   38 ..............................
........................................................................
   1   -498.5319625 -0.498532E+03  0.328E-02    1.38       0.0  T
   2   -498.5319650 -0.248646E-05  0.185E-02    1.38       1.0  T
   3   -498.5319568  0.816205E-05  0.616E-03    1.38       1.0  T
   4   -498.5319657 -0.890840E-05  0.225E-03    1.38       2.8  T
   5   -498.5319662 -0.492955E-06  0.121E-03    1.38       5.2  T
   6   -498.5319664 -0.210066E-06  0.597E-04    1.38      10.5  T
   7   -498.5319665 -0.482415E-07  0.406E-04    1.38      15.5  T
     SCC iter.                  ...        0 min,  0.622 sec
     gradient                   ...        0 min,  0.249 sec
 * total energy  :  -492.4273209 Eh     change       -0.1758650E-03 Eh
   gradient norm :     0.0051844 Eh/α   predicted    -0.1671123E-03 (  -4.98%)
   displ. norm   :     0.6876991 α      lambda       -0.2306774E-03
   maximum displ.:     0.2328705 α      in ANC's #3, #4, #13, ...

........................................................................
.............................. CYCLE   39 ..............................
........................................................................
   1   -498.5269539 -0.498527E+03  0.341E-02    1.38       0.0  T
   2   -498.5269561 -0.218244E-05  0.193E-02    1.38       1.0  T
   3   -498.5269503  0.580660E-05  0.547E-03    1.38       1.1  T
   4   -498.5269566 -0.636055E-05  0.212E-03    1.38       3.0  T
   5   -498.5269570 -0.390688E-06  0.103E-03    1.38       6.1  T
   6   -498.5269572 -0.150198E-06  0.591E-04    1.38      10.6  T
   7   -498.5269572 -0.433456E-07  0.417E-04    1.38      15.0  T
     SCC iter.                  ...        0 min,  0.622 sec
     gradient                   ...        0 min,  0.251 sec
 * total energy  :  -492.4274927 Eh     change       -0.1717828E-03 Eh
   gradient norm :     0.0051727 Eh/α   predicted    -0.1698917E-03 (  -1.10%)
   displ. norm   :     0.5592781 α      lambda       -0.1738958E-03
   maximum displ.:     0.2034161 α      in ANC's #3, #4, #13, ...

........................................................................
.............................. CYCLE   40 ..............................
........................................................................
   1   -498.5280944 -0.498528E+03  0.270E-02    1.38       0.0  T
   2   -498.5280956 -0.126681E-05  0.153E-02    1.38       1.0  T
   3   -498.5280900  0.559943E-05  0.504E-03    1.38       1.2  T
   4   -498.5280961 -0.606646E-05  0.173E-03    1.38       3.6  T
   5   -498.5280964 -0.243909E-06  0.866E-04    1.38       7.2  T
   6   -498.5280965 -0.118962E-06  0.452E-04    1.38      13.9  T
     SCC iter.                  ...        0 min,  0.542 sec
     gradient                   ...        0 min,  0.249 sec
 * total energy  :  -492.4276401 Eh     change       -0.1474203E-03 Eh
   gradient norm :     0.0045365 Eh/α   predicted    -0.1141460E-03 ( -22.57%)
   displ. norm   :     0.5756124 α      lambda       -0.1936389E-03
   maximum displ.:     0.2180248 α      in ANC's #3, #4, #13, ...

........................................................................
.............................. CYCLE   41 ..............................
........................................................................
   1   -498.5317153 -0.498532E+03  0.282E-02    1.38       0.0  T
   2   -498.5317168 -0.151334E-05  0.159E-02    1.38       1.0  T
   3   -498.5317083  0.856343E-05  0.619E-03    1.38       1.0  T
   4   -498.5317176 -0.933414E-05  0.192E-03    1.38       3.3  T
   5   -498.5317179 -0.295528E-06  0.102E-03    1.38       6.2  T
   6   -498.5317181 -0.152858E-06  0.521E-04    1.38      12.0  T
   7   -498.5317181 -0.290274E-07  0.384E-04    1.38      16.3  T
     SCC iter.                  ...        0 min,  0.623 sec
     gradient                   ...        0 min,  0.250 sec
 * total energy  :  -492.4277959 Eh     change       -0.1558064E-03 Eh
   gradient norm :     0.0032529 Eh/α   predicted    -0.1289016E-03 ( -17.27%)
   displ. norm   :     0.6404486 α      lambda       -0.1567260E-03
   maximum displ.:     0.2444878 α      in ANC's #3, #4, #13, ...

........................................................................
.............................. CYCLE   42 ..............................
........................................................................
   1   -498.5320125 -0.498532E+03  0.284E-02    1.38       0.0  T
   2   -498.5320137 -0.118871E-05  0.160E-02    1.38       1.0  T
   3   -498.5320078  0.590836E-05  0.531E-03    1.38       1.2  T
   4   -498.5320142 -0.643056E-05  0.177E-03    1.38       3.6  T
   5   -498.5320144 -0.245129E-06  0.878E-04    1.38       7.1  T
   6   -498.5320146 -0.117030E-06  0.446E-04    1.38      14.1  T
     SCC iter.                  ...        0 min,  0.535 sec
     gradient                   ...        0 min,  0.249 sec
 * total energy  :  -492.4279294 Eh     change       -0.1334846E-03 Eh
   gradient norm :     0.0032075 Eh/α   predicted    -0.1105059E-03 ( -17.21%)
   displ. norm   :     0.6134916 α      lambda       -0.1470350E-03
   maximum displ.:     0.2425874 α      in ANC's #3, #4, #11, ...
 * RMSD in coord.:     0.6799865 α      energy gain  -0.4216211E-02 Eh

generating ANC from model Hessian ...
Using Lindh-Hessian (1995)
 Shifting diagonal of input Hessian by   9.996752664120805E-003
 Lowest  eigenvalues of input Hessian
    0.000000    0.000000    0.000000    0.000000    0.000000    0.000000
    0.010000    0.010004    0.010009    0.010012    0.010015    0.010018
    0.010025    0.010028    0.010031    0.010048    0.010065    0.010075
 Highest eigenvalues
    2.070695    2.072952    2.078329    2.084695    2.089093    2.095392
 

........................................................................
.............................. CYCLE   43 ..............................
........................................................................
   1   -498.5331351 -0.498533E+03  0.259E-02    1.38       0.0  T
   2   -498.5331360 -0.921268E-06  0.147E-02    1.38       1.0  T
   3   -498.5331324  0.354998E-05  0.421E-03    1.38       1.5  T
   4   -498.5331363 -0.382673E-05  0.162E-03    1.38       3.9  T
   5   -498.5331365 -0.213886E-06  0.830E-04    1.38       7.6  T
   6   -498.5331366 -0.124019E-06  0.395E-04    1.38      15.9  T
     SCC iter.                  ...        0 min,  0.542 sec
     gradient                   ...        0 min,  0.250 sec
 * total energy  :  -492.4280553 Eh     change       -0.1259293E-03 Eh
   gradient norm :     0.0033383 Eh/α   predicted     0.0000000E+00 (-100.00%)
   displ. norm   :     0.0432676 α      lambda       -0.2816967E-04
   maximum displ.:     0.0134550 α      in ANC's #3, #5, #4, ...

........................................................................
.............................. CYCLE   44 ..............................
........................................................................
   1   -498.5329566 -0.498533E+03  0.495E-03    1.38       0.0  T
   2   -498.5329567 -0.104313E-06  0.283E-03    1.38       2.2  T
   3   -498.5329563  0.395758E-06  0.144E-03    1.38       4.4  T
   4   -498.5329567 -0.458334E-06  0.412E-04    1.38      15.2  T
   5   -498.5329567 -0.152544E-07  0.227E-04    1.38      27.6  T
     SCC iter.                  ...        0 min,  0.448 sec
     gradient                   ...        0 min,  0.249 sec
 * total energy  :  -492.4280860 Eh     change       -0.3066586E-04 Eh
   gradient norm :     0.0020220 Eh/α   predicted    -0.1735768E-04 ( -43.40%)
   displ. norm   :     0.1957947 α      lambda       -0.1046175E-03
   maximum displ.:     0.0631490 α      in ANC's #3, #5, #4, ...

........................................................................
.............................. CYCLE   45 ..............................
........................................................................
   1   -498.5316825 -0.498532E+03  0.195E-02    1.38       0.0  T
   2   -498.5316838 -0.132199E-05  0.110E-02    1.38       1.0  T
   3   -498.5316787  0.506581E-05  0.509E-03    1.38       1.2  T
   4   -498.5316845 -0.572485E-05  0.156E-03    1.38       4.0  T
   5   -498.5316847 -0.216927E-06  0.848E-04    1.38       7.4  T
   6   -498.5316848 -0.781372E-07  0.496E-04    1.38      12.7  T
     SCC iter.                  ...        0 min,  0.537 sec
     gradient                   ...        0 min,  0.250 sec
 * total energy  :  -492.4281580 Eh     change       -0.7198761E-04 Eh
   gradient norm :     0.0025377 Eh/α   predicted    -0.5882045E-04 ( -18.29%)
   displ. norm   :     0.1322695 α      lambda       -0.3719124E-04
   maximum displ.:     0.0464437 α      in ANC's #3, #5, #4, ...

........................................................................
.............................. CYCLE   46 ..............................
........................................................................
   1   -498.5310963 -0.498531E+03  0.108E-02    1.38       0.0  T
   2   -498.5310966 -0.262545E-06  0.610E-03    1.38       1.0  T
   3   -498.5310956  0.958509E-06  0.221E-03    1.38       2.8  T
   4   -498.5310967 -0.105276E-05  0.855E-04    1.38       7.3  T
   5   -498.5310967 -0.675381E-07  0.467E-04    1.38      13.4  T
   6   -498.5310968 -0.223775E-07  0.313E-04    1.38      20.1  T
     SCC iter.                  ...        0 min,  0.537 sec
     gradient                   ...        0 min,  0.249 sec
 * total energy  :  -492.4281903 Eh     change       -0.3226813E-04 Eh
   gradient norm :     0.0035796 Eh/α   predicted    -0.1944625E-04 ( -39.74%)
   displ. norm   :     0.3026338 α      lambda       -0.8952739E-04
   maximum displ.:     0.1083108 α      in ANC's #3, #5, #4, ...

........................................................................
.............................. CYCLE   47 ..............................
........................................................................
   1   -498.5303569 -0.498530E+03  0.224E-02    1.38       0.0  T
   2   -498.5303577 -0.845137E-06  0.126E-02    1.38       1.0  T
   3   -498.5303551  0.265242E-05  0.372E-03    1.38       1.7  T
   4   -498.5303579 -0.285837E-05  0.150E-03    1.38       4.2  T
   5   -498.5303581 -0.207556E-06  0.661E-04    1.38       9.5  T
   6   -498.5303582 -0.607666E-07  0.374E-04    1.38      16.8  T
     SCC iter.                  ...        0 min,  0.547 sec
     gradient                   ...        0 min,  0.250 sec
 * total energy  :  -492.4282633 Eh     change       -0.7304179E-04 Eh
   gradient norm :     0.0040479 Eh/α   predicted    -0.4886418E-04 ( -33.10%)
   displ. norm   :     0.4215244 α      lambda       -0.1171225E-03
   maximum displ.:     0.1554842 α      in ANC's #3, #5, #4, ...

........................................................................
.............................. CYCLE   48 ..............................
........................................................................
   1   -498.5300803 -0.498530E+03  0.286E-02    1.38       0.0  T
   2   -498.5300816 -0.131679E-05  0.161E-02    1.38       1.0  T
   3   -498.5300776  0.404248E-05  0.457E-03    1.38       1.4  T
   4   -498.5300820 -0.440061E-05  0.182E-03    1.38       3.4  T
   5   -498.5300822 -0.273684E-06  0.815E-04    1.38       7.7  T
   6   -498.5300823 -0.106486E-06  0.399E-04    1.38      15.7  T
     SCC iter.                  ...        0 min,  0.539 sec
     gradient                   ...        0 min,  0.250 sec
 * total energy  :  -492.4283568 Eh     change       -0.9347184E-04 Eh
   gradient norm :     0.0032111 Eh/α   predicted    -0.6897045E-04 ( -26.21%)
   displ. norm   :     0.4354525 α      lambda       -0.1118304E-03
   maximum displ.:     0.1663977 α      in ANC's #3, #5, #4, ...

........................................................................
.............................. CYCLE   49 ..............................
........................................................................
   1   -498.5309771 -0.498531E+03  0.269E-02    1.38       0.0  T
   2   -498.5309783 -0.123828E-05  0.151E-02    1.38       1.0  T
   3   -498.5309747  0.359109E-05  0.434E-03    1.38       1.4  T
   4   -498.5309787 -0.397218E-05  0.169E-03    1.38       3.7  T
   5   -498.5309789 -0.211124E-06  0.805E-04    1.38       7.8  T
   6   -498.5309790 -0.101551E-06  0.386E-04    1.38      16.2  T
     SCC iter.                  ...        0 min,  0.541 sec
     gradient                   ...        0 min,  0.250 sec
 * total energy  :  -492.4284453 Eh     change       -0.8849795E-04 Eh
   gradient norm :     0.0021391 Eh/α   predicted    -0.6652219E-04 ( -24.83%)
   displ. norm   :     0.4126250 α      lambda       -0.9916071E-04
   maximum displ.:     0.1633538 α      in ANC's #3, #5, #4, ...

........................................................................
.............................. CYCLE   50 ..............................
........................................................................
   1   -498.5327809 -0.498533E+03  0.228E-02    1.38       0.0  T
   2   -498.5327818 -0.894622E-06  0.129E-02    1.38       1.0  T
   3   -498.5327796  0.222068E-05  0.352E-03    1.38       1.8  T
   4   -498.5327821 -0.248524E-05  0.141E-03    1.38       4.4  T
   5   -498.5327822 -0.143271E-06  0.695E-04    1.38       9.0  T
   6   -498.5327823 -0.724600E-07  0.363E-04    1.38      17.3  T
     SCC iter.                  ...        0 min,  0.539 sec
     gradient                   ...        0 min,  0.247 sec
 * total energy  :  -492.4285248 Eh     change       -0.7952808E-04 Eh
   gradient norm :     0.0027194 Eh/α   predicted    -0.5803226E-04 ( -27.03%)
   displ. norm   :     0.4146347 α      lambda       -0.9819903E-04
   maximum displ.:     0.1688880 α      in ANC's #3, #5, #4, ...

........................................................................
.............................. CYCLE   51 ..............................
........................................................................
   1   -498.5346247 -0.498535E+03  0.206E-02    1.38       0.0  T
   2   -498.5346253 -0.621798E-06  0.117E-02    1.38       1.0  T
   3   -498.5346239  0.136773E-05  0.287E-03    1.38       2.2  T
   4   -498.5346254 -0.152713E-05  0.123E-03    1.38       5.1  T
   5   -498.5346255 -0.109808E-06  0.603E-04    1.38      10.4  T
   6   -498.5346256 -0.590542E-07  0.332E-04    1.38      18.9  T
     SCC iter.                  ...        0 min,  0.540 sec
     gradient                   ...        0 min,  0.250 sec
 * total energy  :  -492.4286062 Eh     change       -0.8142573E-04 Eh
   gradient norm :     0.0036794 Eh/α   predicted    -0.5754096E-04 ( -29.33%)
   displ. norm   :     0.4612368 α      lambda       -0.1153528E-03
   maximum displ.:     0.1917216 α      in ANC's #3, #5, #4, ...

........................................................................
.............................. CYCLE   52 ..............................
........................................................................
   1   -498.5359150 -0.498536E+03  0.210E-02    1.38       0.0  T
   2   -498.5359156 -0.560419E-06  0.120E-02    1.38       1.0  T
   3   -498.5359141  0.147388E-05  0.291E-03    1.38       2.2  T
   4   -498.5359157 -0.162173E-05  0.121E-03    1.38       5.2  T
   5   -498.5359158 -0.111856E-06  0.578E-04    1.38      10.9  T
   6   -498.5359159 -0.581041E-07  0.312E-04    1.38      20.1  T
     SCC iter.                  ...        0 min,  0.535 sec
     gradient                   ...        0 min,  0.249 sec
 * total energy  :  -492.4287036 Eh     change       -0.9741154E-04 Eh
   gradient norm :     0.0038802 Eh/α   predicted    -0.6995466E-04 ( -28.19%)
   displ. norm   :     0.5200120 α      lambda       -0.1369387E-03
   maximum displ.:     0.2195172 α      in ANC's #3, #5, #4, ...

........................................................................
.............................. CYCLE   53 ..............................
........................................................................
   1   -498.5361475 -0.498536E+03  0.227E-02    1.38       0.0  T
   2   -498.5361482 -0.698935E-06  0.130E-02    1.38       1.0  T
   3   -498.5361461  0.212551E-05  0.336E-03    1.38       1.9  T
   4   -498.5361484 -0.232405E-05  0.129E-03    1.38       4.9  T
   5   -498.5361485 -0.137576E-06  0.625E-04    1.38      10.0  T
   6   -498.5361486 -0.642497E-07  0.320E-04    1.38      19.6  T
     SCC iter.                  ...        0 min,  0.542 sec
     gradient                   ...        0 min,  0.248 sec
 * total energy  :  -492.4288190 Eh     change       -0.1153856E-03 Eh
   gradient norm :     0.0032297 Eh/α   predicted    -0.8698472E-04 ( -24.61%)
   displ. norm   :     0.5527358 α      lambda       -0.1454567E-03
   maximum displ.:     0.2366574 α      in ANC's #3, #5, #4, ...

........................................................................
.............................. CYCLE   54 ..............................
........................................................................
   1   -498.5353649 -0.498535E+03  0.241E-02    1.38       0.0  T
   2   -498.5353658 -0.871279E-06  0.138E-02    1.38       1.0  T
   3   -498.5353636  0.222575E-05  0.348E-03    1.38       1.8  T
   4   -498.5353660 -0.241544E-05  0.141E-03    1.38       4.5  T
   5   -498.5353662 -0.184127E-06  0.681E-04    1.38       9.2  T
   6   -498.5353663 -0.748223E-07  0.340E-04    1.38      18.4  T
     SCC iter.                  ...        0 min,  0.543 sec
     gradient                   ...        0 min,  0.250 sec
 * total energy  :  -492.4289403 Eh     change       -0.1212738E-03 Eh
   gradient norm :     0.0028001 Eh/α   predicted    -0.9494857E-04 ( -21.71%)
   displ. norm   :     0.5597935 α      lambda       -0.1416273E-03
   maximum displ.:     0.2434528 α      in ANC's #3, #5, #4, ...

........................................................................
.............................. CYCLE   55 ..............................
........................................................................
   1   -498.5342194 -0.498534E+03  0.246E-02    1.38       0.0  T
   2   -498.5342202 -0.886011E-06  0.141E-02    1.38       1.0  T
   3   -498.5342183  0.190940E-05  0.332E-03    1.38       1.9  T
   4   -498.5342204 -0.205755E-05  0.148E-03    1.38       4.2  T
   5   -498.5342206 -0.208695E-06  0.697E-04    1.38       9.0  T
   6   -498.5342207 -0.835354E-07  0.353E-04    1.38      17.8  T
     SCC iter.                  ...        0 min,  0.544 sec
     gradient                   ...        0 min,  0.250 sec
 * total energy  :  -492.4290583 Eh     change       -0.1179659E-03 Eh
   gradient norm :     0.0034320 Eh/α   predicted    -0.9300631E-04 ( -21.16%)
   displ. norm   :     0.5610541 α      lambda       -0.1368225E-03
   maximum displ.:     0.2484327 α      in ANC's #3, #5, #4, ...

........................................................................
.............................. CYCLE   56 ..............................
........................................................................
   1   -498.5332849 -0.498533E+03  0.246E-02    1.38       0.0  T
   2   -498.5332857 -0.801972E-06  0.140E-02    1.38       1.0  T
   3   -498.5332834  0.234598E-05  0.354E-03    1.38       1.8  T
   4   -498.5332859 -0.254655E-05  0.150E-03    1.38       4.2  T
   5   -498.5332861 -0.196445E-06  0.689E-04    1.38       9.1  T
   6   -498.5332862 -0.824866E-07  0.356E-04    1.38      17.6  T
     SCC iter.                  ...        0 min,  0.545 sec
     gradient                   ...        0 min,  0.249 sec
 * total energy  :  -492.4291732 Eh     change       -0.1149900E-03 Eh
   gradient norm :     0.0039689 Eh/α   predicted    -0.8995213E-04 ( -21.77%)
   displ. norm   :     0.5626532 α      lambda       -0.1358387E-03
   maximum displ.:     0.2542955 α      in ANC's #3, #5, #4, ...

........................................................................
.............................. CYCLE   57 ..............................
........................................................................
   1   -498.5331152 -0.498533E+03  0.244E-02    1.38       0.0  T
   2   -498.5331160 -0.794528E-06  0.139E-02    1.38       1.0  T
   3   -498.5331124  0.358770E-05  0.416E-03    1.38       1.5  T
   4   -498.5331163 -0.393858E-05  0.149E-03    1.38       4.2  T
   5   -498.5331165 -0.161401E-06  0.701E-04    1.38       9.0  T
   6   -498.5331166 -0.821356E-07  0.349E-04    1.38      18.0  T
     SCC iter.                  ...        0 min,  0.542 sec
     gradient                   ...        0 min,  0.249 sec
 * total energy  :  -492.4292873 Eh     change       -0.1140209E-03 Eh
   gradient norm :     0.0036636 Eh/α   predicted    -0.8942170E-04 ( -21.57%)
   displ. norm   :     0.5767705 α      lambda       -0.1321176E-03
   maximum displ.:     0.2656251 α      in ANC's #3, #5, #4, ...

........................................................................
.............................. CYCLE   58 ..............................
........................................................................
   1   -498.5331580 -0.498533E+03  0.239E-02    1.38       0.0  T
   2   -498.5331589 -0.806209E-06  0.136E-02    1.38       1.0  T
   3   -498.5331549  0.395998E-05  0.435E-03    1.38       1.4  T
   4   -498.5331592 -0.433323E-05  0.147E-03    1.38       4.3  T
   5   -498.5331594 -0.161885E-06  0.702E-04    1.38       8.9  T
   6   -498.5331595 -0.792043E-07  0.332E-04    1.38      18.9  T
     SCC iter.                  ...        0 min,  0.548 sec
     gradient                   ...        0 min,  0.249 sec
 * total energy  :  -492.4293992 Eh     change       -0.1119348E-03 Eh
   gradient norm :     0.0029371 Eh/α   predicted    -0.8803613E-04 ( -21.35%)
   displ. norm   :     0.5787680 α      lambda       -0.1305976E-03
   maximum displ.:     0.2721053 α      in ANC's #3, #5, #4, ...

........................................................................
.............................. CYCLE   59 ..............................
........................................................................
   1   -498.5340543 -0.498534E+03  0.236E-02    1.38       0.0  T
   2   -498.5340551 -0.826815E-06  0.133E-02    1.38       1.0  T
   3   -498.5340517  0.336615E-05  0.411E-03    1.38       1.5  T
   4   -498.5340554 -0.364040E-05  0.151E-03    1.38       4.2  T
   5   -498.5340556 -0.194794E-06  0.707E-04    1.38       8.9  T
   6   -498.5340557 -0.779194E-07  0.342E-04    1.38      18.4  T
     SCC iter.                  ...        0 min,  0.543 sec
     gradient                   ...        0 min,  0.249 sec
 * total energy  :  -492.4295101 Eh     change       -0.1109421E-03 Eh
   gradient norm :     0.0027658 Eh/α   predicted    -0.8717266E-04 ( -21.43%)
   displ. norm   :     0.6178571 α      lambda       -0.1299451E-03
   maximum displ.:     0.2928208 α      in ANC's #3, #5, #4, ...

........................................................................
.............................. CYCLE   60 ..............................
........................................................................
   1   -498.5334798 -0.498533E+03  0.246E-02    1.38       0.0  T
   2   -498.5334805 -0.717900E-06  0.139E-02    1.38       1.0  T
   3   -498.5334785  0.196221E-05  0.339E-03    1.38       1.9  T
   4   -498.5334806 -0.204611E-05  0.153E-03    1.38       4.1  T
   5   -498.5334808 -0.243851E-06  0.669E-04    1.38       9.4  T
   6   -498.5334809 -0.774715E-07  0.333E-04    1.38      18.8  T
     SCC iter.                  ...        0 min,  0.556 sec
     gradient                   ...        0 min,  0.249 sec
 * total energy  :  -492.4296225 Eh     change       -0.1123764E-03 Eh
   gradient norm :     0.0035060 Eh/α   predicted    -0.8977750E-04 ( -20.11%)
   displ. norm   :     0.5947984 α      lambda       -0.1403380E-03
[...]
    22   6 C       25  17 Cl                                      1.7156988
     3   6 C       26   6 C                                       1.4164826
    16   6 C       26   6 C                                       1.3902812
     1   6 C       27  16 S                                       1.7285370
    26   6 C       27  16 S                                       1.7401821
    15   6 C       28   6 C                                       1.4177158
    28   6 C       29   6 C                                       1.3622485
    14   6 C       30  16 S                                       1.7402985
    29   6 C       30  16 S                                       1.7521397 (max)
    29   6 C       31   6 C                                       1.4252570
    31   6 C       32   6 C                                       1.3629106
    32   6 C       33   6 C                                       1.4159389
    33   6 C       34   6 C                                       1.4067163
    35   6 C       36  16 S                                       1.7399872
    36  16 S       37   6 C                                       1.7297522
    37   6 C       38   6 C                                       1.4888174
    38   6 C       39   6 C                                       1.5306089
    37   6 C       40   6 C                                       1.3628260
    40   6 C       41  17 Cl                                      1.7156389
    35   6 C       42   6 C                                       1.3680114
    40   6 C       42   6 C                                       1.4207697
    42   6 C       43  17 Cl                                      1.7133067
    34   6 C       44   6 C                                       1.3892268
    44   6 C       45   6 C                                       1.4177707
    45   6 C       46   6 C                                       1.4054737
    47   6 C       48  16 S                                       1.7382068
    48  16 S       49   6 C                                       1.7302008
    49   6 C       50   6 C                                       1.4885839
    50   6 C       51   6 C                                       1.5309117
    49   6 C       52   6 C                                       1.3633608
    47   6 C       53   6 C                                       1.3682887
    52   6 C       53   6 C                                       1.4207807
    53   6 C       54  17 Cl                                      1.7168868
    52   6 C       55  17 Cl                                      1.7173488
    33   6 C       56   6 C                                       1.4165403
    46   6 C       56   6 C                                       1.3875965
    31   6 C       57  16 S                                       1.7513352
    56   6 C       57  16 S                                       1.7409742
    45   6 C       58   6 C                                       1.4139293
    58   6 C       59   6 C                                       1.3653708
    44   6 C       60  16 S                                       1.7392452
    59   6 C       60  16 S                                       1.7492077
    59   6 C       61   6 C                                       1.4274429
    61   6 C       62   6 C                                       1.3656115
    62   6 C       63   6 C                                       1.4141192
    63   6 C       64   6 C                                       1.4088813
    65   6 C       66   6 C                                       1.3657940
    66   6 C       67   6 C                                       1.4087747
    67   6 C       68   9 F                                       1.3455277
    67   6 C       69   6 C                                       1.3630163
    70   6 C       71   6 C                                       1.5287346
    65   6 C       72  16 S                                       1.7427079
    69   6 C       72  16 S                                       1.7304706
    64   6 C       73   6 C                                       1.3890133
    73   6 C       74   6 C                                       1.4160861
    74   6 C       75   6 C                                       1.4102737
    76   6 C       77  16 S                                       1.7418767
    77  16 S       78   6 C                                       1.7295271
    79   6 C       80   6 C                                       1.5298674
    78   6 C       81   6 C                                       1.3638077
    76   6 C       82   6 C                                       1.3679702
    81   6 C       82   6 C                                       1.4070748
    81   6 C       83   9 F                                       1.3458260
    63   6 C       84   6 C                                       1.4175113
    75   6 C       84   6 C                                       1.3908696
    61   6 C       85  16 S                                       1.7480768
    84   6 C       85  16 S                                       1.7415365
    74   6 C       86   6 C                                       1.4163101
    86   6 C       87   6 C                                       1.3636494
    73   6 C       88  16 S                                       1.7432059
    87   6 C       88  16 S                                       1.7516097
    87   6 C       89   6 C                                       1.4248368
    89   6 C       90   6 C                                       1.3640714
    90   6 C       91   6 C                                       1.4152280
    91   6 C       92   6 C                                       1.4057867
    93   6 C       94  16 S                                       1.7406212
    94  16 S       95   6 C                                       1.7298875
    95   6 C       96   6 C                                       1.4887847
    96   6 C       97   6 C                                       1.5306158
    95   6 C       98   6 C                                       1.3625359
    98   6 C       99  17 Cl                                      1.7148367
    93   6 C      100   6 C                                       1.3678057
    98   6 C      100   6 C                                       1.4210753
   100   6 C      101  17 Cl                                      1.7141777
    92   6 C      102   6 C                                       1.3881608
   102   6 C      103   6 C                                       1.4173119
   103   6 C      104   6 C                                       1.4057356
   105   6 C      106  16 S                                       1.7401347
   106  16 S      107   6 C                                       1.7306000
   107   6 C      108   6 C                                       1.4885242
   108   6 C      109   6 C                                       1.5306251
   107   6 C      110   6 C                                       1.3625692
   105   6 C      111   6 C                                       1.3667911
   110   6 C      111   6 C                                       1.4217340
   111   6 C      112  17 Cl                                      1.7134848
   110   6 C      113  17 Cl                                      1.7159861
    91   6 C      114   6 C                                       1.4180149
   104   6 C      114   6 C                                       1.3881968
    89   6 C      115  16 S                                       1.7514109
   114   6 C      115  16 S                                       1.7393609
   103   6 C      116   6 C                                       1.4164516
   116   6 C      117   6 C                                       1.3631276
   102   6 C      118  16 S                                       1.7378618
   117   6 C      118  16 S                                       1.7513263
   117   6 C      119   6 C                                       1.4243595
   119   6 C      120   6 C                                       1.3632637
   120   6 C      121   6 C                                       1.4141757
   121   6 C      122   6 C                                       1.4060231
   123   6 C      124  16 S                                       1.7406395
   124  16 S      125   6 C                                       1.7305679
   125   6 C      126   6 C                                       1.4888275
   126   6 C      127   6 C                                       1.5292189
   125   6 C      128   6 C                                       1.3626913
   128   6 C      129  17 Cl                                      1.7164572
   123   6 C      130   6 C                                       1.3668230
   128   6 C      130   6 C                                       1.4221896
   130   6 C      131  17 Cl                                      1.7131284
   122   6 C      132   6 C                                       1.3886537
   132   6 C      133   6 C                                       1.4180861
   133   6 C      134   6 C                                       1.4070340
   135   6 C      136  16 S                                       1.7404979
   136  16 S      137   6 C                                       1.7316765
   137   6 C      138   6 C                                       1.4884771
   138   6 C      139   6 C                                       1.5292733
   137   6 C      140   6 C                                       1.3623773
   135   6 C      141   6 C                                       1.3674330
   140   6 C      141   6 C                                       1.4214615
   141   6 C      142  17 Cl                                      1.7136062
   140   6 C      143  17 Cl                                      1.7164450
   121   6 C      144   6 C                                       1.4169899
   134   6 C      144   6 C                                       1.3887892
   119   6 C      145  16 S                                       1.7498612
   144   6 C      145  16 S                                       1.7419096
   133   6 C      146   6 C                                       1.4145082
   146   6 C      147   6 C                                       1.3655935
   132   6 C      148  16 S                                       1.7384092
   147   6 C      148  16 S                                       1.7482762
   147   6 C      149   6 C                                       1.4282777
   149   6 C      150   6 C                                       1.3644229
   150   6 C      151   6 C                                       1.4164297
   151   6 C      152   6 C                                       1.4079294
   153   6 C      154   6 C                                       1.3670400
   154   6 C      155   6 C                                       1.4077464
   155   6 C      156   9 F                                       1.3475381
   155   6 C      157   6 C                                       1.3629699
   158   6 C      159   6 C                                       1.5294976
   153   6 C      160  16 S                                       1.7415460
   157   6 C      160  16 S                                       1.7300592
   152   6 C      161   6 C                                       1.3912122
   161   6 C      162   6 C                                       1.4154661
   162   6 C      163   6 C                                       1.4065552
   164   6 C      165  16 S                                       1.7438838
   165  16 S      166   6 C                                       1.7294431
   167   6 C      168   6 C                                       1.5297882
   166   6 C      169   6 C                                       1.3630989
   164   6 C      170   6 C                                       1.3660490
   169   6 C      170   6 C                                       1.4083323
   169   6 C      171   9 F                                       1.3449185
   151   6 C      172   6 C                                       1.4157578
   163   6 C      172   6 C                                       1.3924690
   149   6 C      173  16 S                                       1.7487052
   172   6 C      173  16 S                                       1.7421246
   162   6 C      174   6 C                                       1.4261125
   174   6 C      175   6 C                                       1.3479834
   161   6 C      176  16 S                                       1.7426030
   175   6 C      176  16 S                                       1.7279367
     1   6 C      177   1 H                                       1.0725110
     2   6 C      178   1 H                                       1.0741753
     8   6 C      179   1 H                                       1.0914210
     8   6 C      180   1 H                                       1.0912285
     9   6 C      181   1 H                                       1.0871494
     9   6 C      182   1 H                                       1.0866445
     9   6 C      183   1 H                                       1.0875641
    20   6 C      184   1 H                                       1.0916089
    20   6 C      185   1 H                                       1.0913556
    21   6 C      186   1 H                                       1.0869515
    21   6 C      187   1 H                                       1.0873660
    21   6 C      188   1 H                                       1.0865929
    28   6 C      189   1 H                                       1.0749097
    32   6 C      190   1 H                                       1.0747315
    38   6 C      191   1 H                                       1.0913767
    38   6 C      192   1 H                                       1.0916689
    39   6 C      193   1 H                                       1.0869270
    39   6 C      194   1 H                                       1.0865807
    39   6 C      195   1 H                                       1.0873323
    50   6 C      196   1 H                                       1.0914098
    50   6 C      197   1 H                                       1.0911254
    51   6 C      198   1 H                                       1.0865796
    51   6 C      199   1 H                                       1.0869551
    51   6 C      200   1 H                                       1.0875570
    58   6 C      201   1 H                                       1.0730314
    62   6 C      202   1 H                                       1.0727874
    66   6 C      203   1 H                                       1.0742320
    70   6 C      204   1 H                                       1.0935326
    70   6 C      205   1 H                                       1.0921763
    71   6 C      206   1 H                                       1.0878286
    71   6 C      207   1 H                                       1.0876101
    71   6 C      208   1 H                                       1.0868409
    79   6 C      209   1 H                                       1.0927501
    79   6 C      210   1 H                                       1.0921034
    80   6 C      211   1 H                                       1.0875190
    80   6 C      212   1 H                                       1.0877766
    80   6 C      213   1 H                                       1.0867989
    82   6 C      214   1 H                                       1.0741364
    86   6 C      215   1 H                                       1.0749261
    90   6 C      216   1 H                                       1.0750675
    96   6 C      217   1 H                                       1.0917560
    96   6 C      218   1 H                                       1.0911950
    97   6 C      219   1 H                                       1.0865685
    97   6 C      220   1 H                                       1.0873486
    97   6 C      221   1 H                                       1.0869738
   108   6 C      222   1 H                                       1.0918325
   108   6 C      223   1 H                                       1.0912501
   109   6 C      224   1 H                                       1.0865384
   109   6 C      225   1 H                                       1.0872926
   109   6 C      226   1 H                                       1.0875608
   116   6 C      227   1 H                                       1.0749367
   120   6 C      228   1 H                                       1.0743430
   126   6 C      229   1 H                                       1.0911586
   126   6 C      230   1 H                                       1.0931327
   127   6 C      231   1 H                                       1.0875980
   127   6 C      232   1 H                                       1.0866290
   127   6 C      233   1 H                                       1.0874506
   138   6 C      234   1 H                                       1.0911670
   138   6 C      235   1 H                                       1.0924285
   139   6 C      236   1 H                                       1.0862295
   139   6 C      237   1 H                                       1.0874767
   139   6 C      238   1 H                                       1.0867898
   146   6 C      239   1 H                                       1.0733308
   150   6 C      240   1 H                                       1.0732837
   154   6 C      241   1 H                                       1.0742285
   158   6 C      242   1 H                                       1.0921208
   158   6 C      243   1 H                                       1.0928786
   159   6 C      244   1 H                                       1.0877185
   159   6 C      245   1 H                                       1.0875454
   159   6 C      246   1 H                                       1.0867586
   167   6 C      247   1 H                                       1.0929883
   167   6 C      248   1 H                                       1.0920653
   168   6 C      249   1 H                                       1.0879114
   168   6 C      250   1 H                                       1.0867844
   168   6 C      251   1 H                                       1.0875234
   170   6 C      252   1 H                                       1.0737539
   174   6 C      253   1 H                                       1.0738844
   175   6 C      254   1 H                                       1.0723331 (min)

 * 5 distinct bonds (by element types)

   Z      Z             #   av. dist./Å        max./Å        min./Å
   1 H    6 C          78     1.0855590     1.0935326     1.0723331
   6 C    6 C         121     1.4137106     1.5309117     1.3479834
   6 C    9 F           4     1.3459526     1.3475381     1.3449185
   6 C   16 S          48     1.7395183     1.7521397     1.7279367
   6 C   17 Cl         16     1.7151950     1.7173488     1.7131284


optimized geometry written to: xtbopt.mol


           -------------------------------------------------
          | TOTAL ENERGY             -492.471531927670 Eh   |
          | GRADIENT NORM               0.000254521004 Eh/α |
          | HOMO-LUMO GAP               1.364316841651 eV   |
           -------------------------------------------------

------------------------------------------------------------------------
 * finished run on 2022/03/01 at 12:30:28.769     
------------------------------------------------------------------------
 total:
 * wall-time:     0 d,  0 h,  9 min, 52.801 sec
 *  cpu-time:     0 d,  1 h, 18 min, 58.747 sec
 * ratio c/w:     7.994 speedup
 SCF:
 * wall-time:     0 d,  0 h,  0 min,  1.881 sec
 *  cpu-time:     0 d,  0 h,  0 min, 15.033 sec
 * ratio c/w:     7.991 speedup
 ANC optimizer:
 * wall-time:     0 d,  0 h,  9 min, 50.252 sec
 *  cpu-time:     0 d,  1 h, 18 min, 41.670 sec
 * ratio c/w:     7.999 speedup

