      -----------------------------------------------------------      
     |                   =====================                   |     
     |                           x T B                           |     
     |                   =====================                   |     
     |                         S. Grimme                         |     
     |          Mulliken Center for Theoretical Chemistry        |     
     |                    University of Bonn                     |     
      -----------------------------------------------------------      

   * xtb version 6.4.1 (unknown) compiled by 'oda6@login1.crc.pitt.edu' on 2021-06-25

   xtb is free software: you can redistribute it and/or modify it under
   the terms of the GNU Lesser General Public License as published by
   the Free Software Foundation, either version 3 of the License, or
   (at your option) any later version.
   
   xtb is distributed in the hope that it will be useful,
   but WITHOUT ANY WARRANTY; without even the implied warranty of
   MERCHANTABILITY or FITNESS FOR A PARTICULAR PURPOSE.  See the
   GNU Lesser General Public License for more details.
   
   Cite this work as:
   * C. Bannwarth, E. Caldeweyher, S. Ehlert, A. Hansen, P. Pracht,
     J. Seibert, S. Spicher, S. Grimme, WIREs Comput. Mol. Sci., 2020, 11,
     e01493. DOI: 10.1002/wcms.1493
   
   for GFN2-xTB:
   * C. Bannwarth, S. Ehlert and S. Grimme., J. Chem. Theory Comput., 2019,
     15, 1652-1671. DOI: 10.1021/acs.jctc.8b01176
   for GFN1-xTB:
   * S. Grimme, C. Bannwarth, P. Shushkov, J. Chem. Theory Comput., 2017,
     13, 1989-2009. DOI: 10.1021/acs.jctc.7b00118
   for GFN0-xTB:
   * P. Pracht, E. Caldeweyher, S. Ehlert, S. Grimme, ChemRxiv, 2019, preprint.
     DOI: 10.26434/chemrxiv.8326202.v1
   for GFN-FF:
   * S. Spicher and S. Grimme, Angew. Chem. Int. Ed., 2020, 59, 15665-15673.
     DOI: 10.1002/anie.202004239
   
   for DFT-D4:
   * E. Caldeweyher, C. Bannwarth and S. Grimme, J. Chem. Phys., 2017,
     147, 034112. DOI: 10.1063/1.4993215
   * E. Caldeweyher, S. Ehlert, A. Hansen, H. Neugebauer, S. Spicher,
     C. Bannwarth and S. Grimme, J. Chem. Phys., 2019, 150, 154122.
     DOI: 10.1063/1.5090222
   * E. Caldeweyher, J.-M. Mewes, S. Ehlert and S. Grimme, Phys. Chem. Chem. Phys.
     2020, 22, 8499-8512. DOI: 10.1039/D0CP00502A
   
   for sTDA-xTB:
   * S. Grimme and C. Bannwarth, J. Chem. Phys., 2016, 145, 054103.
     DOI: 10.1063/1.4959605
   
   in the mass-spec context:
   * V. Asgeirsson, C. Bauer and S. Grimme, Chem. Sci., 2017, 8, 4879.
     DOI: 10.1039/c7sc00601b
   * J. Koopman and S. Grimme, ACS Omega 2019, 4, 12, 15120-15133.
     DOI: 10.1021/acsomega.9b02011
   
   for metadynamics refer to:
   * S. Grimme, J. Chem. Theory Comput., 2019, 155, 2847-2862
     DOI: 10.1021/acs.jctc.9b00143
   
   for SPH calculations refer to:
   * S. Spicher and S. Grimme, J. Chem. Theory Comput., 2021, 17, 1701-1714
     DOI: 10.1021/acs.jctc.0c01306
   
   with help from (in alphabetical order)
   P. Atkinson, C. Bannwarth, F. Bohle, G. Brandenburg, E. Caldeweyher
   M. Checinski, S. Dohm, S. Ehlert, S. Ehrlich, I. Gerasimov, J. Koopman
   C. Lavigne, S. Lehtola, F. März, M. Müller, F. Musil, H. Neugebauer
   J. Pisarek, C. Plett, P. Pracht, J. Seibert, P. Shushkov, S. Spicher
   M. Stahn, M. Steiner, T. Strunk, J. Stückrath, T. Rose, and J. Unsleber
   
 * started run on 2022/02/28 at 17:52:18.135     

           -------------------------------------------------
          |                Calculation Setup                |
           -------------------------------------------------

          program call               : /ihome/ghutchison/oda6/xtb/xtb-641/bin/xtb ../../FF_optimized/22_161_100110.mol -opt
          hostname                   : smp-n90
          coordinate file            : ../../FF_optimized/22_161_100110.mol
          omp threads                :                     8
          number of atoms            :                   197
          number of electrons        :                   638
          charge                     :                     0
          spin                       :                   0.0
          first test random number   :      0.68284304535094

   ID    Z sym.   atoms
    1    6 C      1-10, 12-20, 22, 24, 25, 27-29, 33-37, 40, 41, 43-46,
                  50-54, 57, 58, 60-70, 72-80, 82, 84, 85, 87-96, 98-106,
                  108, 110, 111, 113-115, 119-123, 126, 127, 129
    2   16 S      11, 21, 23, 26, 31, 42, 48, 59, 71, 81, 83, 86, 97, 107,
                  109, 112, 117, 128
    3    7 N      30, 32, 47, 49, 116, 118
    4    8 O      38, 39, 55, 56, 124, 125
    5    1 H      130-197
########################################################################
[WARNING] Please study the warnings concerning your input carefully
-1- prog_main_parseArguments: the use of '-opt' is discouraged, please use '--opt' next time
########################################################################

           -------------------------------------------------
          |                 G F N 2 - x T B                 |
           -------------------------------------------------

        Reference                      10.1021/acs.jctc.8b01176
      * Hamiltonian:
        H0-scaling (s, p, d)           1.850000    2.230000    2.230000
        zeta-weighting                 0.500000
      * Dispersion:
        s8                             2.700000
        a1                             0.520000
        a2                             5.000000
        s9                             5.000000
      * Repulsion:
        kExp                           1.500000    1.000000
        rExp                           1.000000
      * Coulomb:
        alpha                          2.000000
        third order                    shell-resolved
        anisotropic                    true
        a3                             3.000000
        a5                             4.000000
        cn-shift                       1.200000
        cn-exp                         4.000000
        max-rad                        5.000000


          ...................................................
          :                      SETUP                      :
          :.................................................:
          :  # basis functions                 692          :
          :  # atomic orbitals                 674          :
          :  # shells                          344          :
          :  # electrons                       638          :
          :  max. iterations                   250          :
          :  Hamiltonian                  GFN2-xTB          :
          :  restarted?                      false          :
          :  GBSA solvation                  false          :
          :  PC potential                    false          :
          :  electronic temp.          300.0000000     K    :
          :  accuracy                    1.0000000          :
          :  -> integral cutoff          0.2500000E+02      :
          :  -> integral neglect         0.1000000E-07      :
          :  -> SCF convergence          0.1000000E-05 Eh   :
          :  -> wf. convergence          0.1000000E-03 e    :
          :  Broyden damping             0.4000000          :
          ...................................................

 iter      E             dE          RMSdq      gap      omega  full diag
   1   -351.2434435 -0.351243E+03  0.417E+00    1.25       0.0  T
   2   -351.5899511 -0.346508E+00  0.244E+00    0.80       1.0  T
   3   -351.5016414  0.883097E-01  0.126E+00    0.60       1.0  T
   4   -351.6464209 -0.144780E+00  0.615E-01    0.48       1.0  T
   5   -351.6902188 -0.437978E-01  0.274E-01    0.51       1.0  T
   6   -351.6971596 -0.694080E-02  0.167E-01    0.54       1.0  T
   7   -351.7022552 -0.509558E-02  0.817E-02    0.52       1.0  T
   8   -351.7037176 -0.146246E-02  0.266E-02    0.54       1.0  T
   9   -351.7037613 -0.437241E-04  0.173E-02    0.54       1.0  T
  10   -351.7037908 -0.294864E-04  0.972E-03    0.54       1.0  T
  11   -351.7038077 -0.168615E-04  0.384E-03    0.54       1.9  T
  12   -351.7038088 -0.110314E-05  0.201E-03    0.54       3.5  T
  13   -351.7038093 -0.531067E-06  0.913E-04    0.54       7.8  T
  14   -351.7038094 -0.474750E-07  0.565E-04    0.54      12.6  T

   *** convergence criteria satisfied after 14 iterations ***

         #    Occupation            Energy/Eh            Energy/eV
      -------------------------------------------------------------
         1        2.0000           -0.7697806             -20.9468
       ...           ...                  ...                  ...
       313        2.0000           -0.3776090             -10.2753
       314        2.0000           -0.3771728             -10.2634
       315        2.0000           -0.3760995             -10.2342
       316        2.0000           -0.3728720             -10.1464
       317        2.0000           -0.3574940              -9.7279
       318        2.0000           -0.3544670              -9.6455
       319        1.9999           -0.3528305              -9.6010 (HOMO)
       320        0.0001           -0.3330584              -9.0630 (LUMO)
       321        0.0000           -0.3318118              -9.0291
       322        0.0000           -0.3285152              -8.9394
       323                         -0.2947246              -8.0199
       324                         -0.2937454              -7.9932
       ...                                ...                  ...
       674                          0.7826243              21.2963
      -------------------------------------------------------------
                  HL-Gap            0.0197721 Eh            0.5380 eV
             Fermi-level           -0.3429798 Eh           -9.3330 eV

 SCC (total)                   0 d,  0 h,  0 min,  0.817 sec
 SCC setup                      ...        0 min,  0.004 sec (  0.463%)
 Dispersion                     ...        0 min,  0.011 sec (  1.365%)
 classical contributions        ...        0 min,  0.000 sec (  0.042%)
 integral evaluation            ...        0 min,  0.042 sec (  5.081%)
 iterations                     ...        0 min,  0.626 sec ( 76.591%)
 molecular gradient             ...        0 min,  0.130 sec ( 15.953%)
 printout                       ...        0 min,  0.004 sec (  0.495%)

         :::::::::::::::::::::::::::::::::::::::::::::::::::::
         ::                     SUMMARY                     ::
         :::::::::::::::::::::::::::::::::::::::::::::::::::::
         :: total energy            -347.050354398467 Eh    ::
         :: gradient norm              0.437013249992 Eh/a0 ::
         :: HOMO-LUMO gap              0.538026239998 eV    ::
         ::.................................................::
         :: SCC energy              -351.703809372906 Eh    ::
         :: -> isotropic ES            0.206621180551 Eh    ::
         :: -> anisotropic ES          0.031721359883 Eh    ::
         :: -> anisotropic XC          0.131756910343 Eh    ::
         :: -> dispersion             -0.322470044812 Eh    ::
         :: repulsion energy           4.651845495537 Eh    ::
         :: add. restraining           0.000000000000 Eh    ::
         :: total charge              -0.000000000031 e     ::
         :::::::::::::::::::::::::::::::::::::::::::::::::::::

      ----------------------------------------------------------- 
     |                   =====================                   |
     |                        A N C O P T                        |
     |                   =====================                   |
     |               Approximate Normal Coordinate               |
     |                Rational Function Optimizer                |
      ----------------------------------------------------------- 

          ...................................................
          :                      SETUP                      :
          :.................................................:
          :   optimization level            normal          :
          :   max. optcycles                   591          :
          :   ANC micro-cycles                  20          :
          :   degrees of freedom               585          :
          :.................................................:
          :   RF solver                   davidson          :
          :   write xtbopt.log                true          :
          :   linear?                        false          :
          :   energy convergence         0.5000000E-05 Eh   :
          :   grad. convergence          0.1000000E-02 Eh/α :
          :   maximium RF displ.         1.0000000          :
          :   Hlow (freq-cutoff)         0.1000000E-01      :
          :   Hmax (freq-cutoff)         5.0000000          :
          :   S6 in model hess.         20.0000000          :
          ...................................................

generating ANC from model Hessian ...
Using Lindh-Hessian (1995)
 Shifting diagonal of input Hessian by   9.995002896129906E-003
 Lowest  eigenvalues of input Hessian
    0.000000    0.000000    0.000000    0.000000    0.000000    0.000000
    0.010000    0.010010    0.010016    0.010018    0.010027    0.010036
    0.010048    0.010056    0.010060    0.010074    0.010100    0.010110
 Highest eigenvalues
    2.093059    2.095289    2.098026    2.099253    2.114121    2.131425
 

........................................................................
.............................. CYCLE    1 ..............................
........................................................................
   1   -351.7038094 -0.351704E+03  0.266E-04    0.54       0.0  T
   2   -351.7038094  0.623129E-08  0.274E-04    0.54      26.0  T
   3   -351.7038094 -0.147489E-07  0.116E-04    0.54      61.3  T
     SCC iter.                  ...        0 min,  0.142 sec
     gradient                   ...        0 min,  0.128 sec
 * total energy  :  -347.0503544 Eh     change       -0.4447270E-07 Eh
   gradient norm :     0.4370124 Eh/α   predicted     0.0000000E+00 (-100.00%)
   displ. norm   :     0.4722363 α      lambda       -0.1647403E+00
   maximum displ.:     0.1033445 α      in ANC's #370, #372, #373, ...

........................................................................
.............................. CYCLE    2 ..............................
........................................................................
   1   -351.8952045 -0.351895E+03  0.338E-01    0.68       0.0  T
   2   -351.8971766 -0.197208E-02  0.186E-01    0.70       1.0  T
   3   -351.8965815  0.595080E-03  0.936E-02    0.68       1.0  T
   4   -351.8972709 -0.689364E-03  0.535E-02    0.68       1.0  T
   5   -351.8976000 -0.329110E-03  0.274E-02    0.69       1.0  T
   6   -351.8977014 -0.101444E-03  0.127E-02    0.68       1.0  T
   7   -351.8977206 -0.192296E-04  0.682E-03    0.69       1.0  T
   8   -351.8977296 -0.899737E-05  0.291E-03    0.69       2.5  T
   9   -351.8977306 -0.101156E-05  0.159E-03    0.69       4.5  T
  10   -351.8977309 -0.214894E-06  0.778E-04    0.69       9.2  T
  11   -351.8977309 -0.633078E-07  0.349E-04    0.69      20.4  T
     SCC iter.                  ...        0 min,  0.477 sec
     gradient                   ...        0 min,  0.127 sec
 * total energy  :  -347.1767025 Eh     change       -0.1263481E+00 Eh
   gradient norm :     0.2401156 Eh/α   predicted    -0.1007594E+00 ( -20.25%)
   displ. norm   :     0.4680414 α      lambda       -0.8878112E-01
   maximum displ.:     0.0935846 α      in ANC's #493, #110, #370, ...

........................................................................
.............................. CYCLE    3 ..............................
........................................................................
   1   -352.0390031 -0.352039E+03  0.312E-01    0.85       0.0  T
   2   -352.0408469 -0.184381E-02  0.170E-01    0.88       1.0  T
   3   -352.0404302  0.416635E-03  0.881E-02    0.84       1.0  T
   4   -352.0411080 -0.677741E-03  0.476E-02    0.85       1.0  T
   5   -352.0413676 -0.259579E-03  0.200E-02    0.85       1.0  T
   6   -352.0414041 -0.365700E-04  0.101E-02    0.85       1.0  T
   7   -352.0414182 -0.141081E-04  0.427E-03    0.85       1.7  T
   8   -352.0414203 -0.210954E-05  0.253E-03    0.85       2.8  T
   9   -352.0414213 -0.975730E-06  0.128E-03    0.85       5.6  T
  10   -352.0414215 -0.144957E-06  0.660E-04    0.85      10.8  T
  11   -352.0414215 -0.451250E-07  0.297E-04    0.85      24.0  T
     SCC iter.                  ...        0 min,  0.486 sec
     gradient                   ...        0 min,  0.127 sec
 * total energy  :  -347.2321184 Eh     change       -0.5541587E-01 Eh
   gradient norm :     0.0711156 Eh/α   predicted    -0.5412331E-01 (  -2.33%)
   displ. norm   :     0.5055219 α      lambda       -0.1785732E-01
   maximum displ.:     0.1740687 α      in ANC's #110, #111, #101, ...

........................................................................
.............................. CYCLE    4 ..............................
........................................................................
   1   -352.0779955 -0.352078E+03  0.142E-01    0.89       0.0  T
   2   -352.0783213 -0.325832E-03  0.807E-02    0.90       1.0  T
   3   -352.0781186  0.202775E-03  0.453E-02    0.89       1.0  T
   4   -352.0782750 -0.156424E-03  0.257E-02    0.90       1.0  T
   5   -352.0783960 -0.120971E-03  0.105E-02    0.89       1.0  T
   6   -352.0784161 -0.201285E-04  0.402E-03    0.90       1.8  T
   7   -352.0784179 -0.175513E-05  0.199E-03    0.90       3.6  T
   8   -352.0784186 -0.707686E-06  0.786E-04    0.90       9.1  T
   9   -352.0784186 -0.468987E-07  0.442E-04    0.90      16.1  T
     SCC iter.                  ...        0 min,  0.401 sec
     gradient                   ...        0 min,  0.127 sec
 * total energy  :  -347.2447275 Eh     change       -0.1260911E-01 Eh
   gradient norm :     0.0260552 Eh/α   predicted    -0.1121040E-01 ( -11.09%)
   displ. norm   :     0.5370328 α      lambda       -0.7834536E-02
   maximum displ.:     0.1724114 α      in ANC's #110, #111, #101, ...

........................................................................
.............................. CYCLE    5 ..............................
........................................................................
   1   -352.1033107 -0.352103E+03  0.967E-02    0.89       0.0  T
   2   -352.1034447 -0.133996E-03  0.550E-02    0.90       1.0  T
   3   -352.1033412  0.103564E-03  0.284E-02    0.89       1.0  T
   4   -352.1033991 -0.579381E-04  0.176E-02    0.90       1.0  T
   5   -352.1034656 -0.665457E-04  0.571E-03    0.90       1.2  T
   6   -352.1034702 -0.455345E-05  0.284E-03    0.90       2.5  T
   7   -352.1034714 -0.116156E-05  0.121E-03    0.90       5.9  T
   8   -352.1034716 -0.240501E-06  0.546E-04    0.90      13.0  T
   9   -352.1034716 -0.186652E-07  0.321E-04    0.90      22.2  T
     SCC iter.                  ...        0 min,  0.394 sec
     gradient                   ...        0 min,  0.128 sec
 * total energy  :  -347.2503841 Eh     change       -0.5656611E-02 Eh
   gradient norm :     0.0161789 Eh/α   predicted    -0.5047174E-02 ( -10.77%)
   displ. norm   :     0.4960190 α      lambda       -0.3664416E-02
   maximum displ.:     0.1166637 α      in ANC's #110, #64, #93, ...

........................................................................
.............................. CYCLE    6 ..............................
........................................................................
   1   -352.1250929 -0.352125E+03  0.754E-02    0.88       0.0  T
   2   -352.1251314 -0.385323E-04  0.420E-02    0.88       1.0  T
   3   -352.1250778  0.535988E-04  0.183E-02    0.88       1.0  T
   4   -352.1251218 -0.440211E-04  0.968E-03    0.88       1.0  T
   5   -352.1251393 -0.175107E-04  0.317E-03    0.88       2.2  T
   6   -352.1251399 -0.604217E-06  0.190E-03    0.88       3.8  T
   7   -352.1251406 -0.661605E-06  0.821E-04    0.88       8.7  T
   8   -352.1251407 -0.121975E-06  0.382E-04    0.88      18.6  T
     SCC iter.                  ...        0 min,  0.348 sec
     gradient                   ...        0 min,  0.128 sec
 * total energy  :  -347.2530349 Eh     change       -0.2650776E-02 Eh
   gradient norm :     0.0137504 Eh/α   predicted    -0.2283142E-02 ( -13.87%)
   displ. norm   :     0.4752931 α      lambda       -0.2012051E-02
   maximum displ.:     0.1107729 α      in ANC's #61, #64, #29, ...

........................................................................
.............................. CYCLE    7 ..............................
........................................................................
   1   -352.1409755 -0.352141E+03  0.692E-02    0.86       0.0  T
   2   -352.1409874 -0.118960E-04  0.385E-02    0.86       1.0  T
   3   -352.1409440  0.434391E-04  0.155E-02    0.87       1.0  T
   4   -352.1409884 -0.443872E-04  0.608E-03    0.87       1.2  T
   5   -352.1409929 -0.454667E-05  0.269E-03    0.87       2.7  T
   6   -352.1409939 -0.980495E-06  0.108E-03    0.87       6.6  T
   7   -352.1409941 -0.148539E-06  0.465E-04    0.87      15.3  T
   8   -352.1409941 -0.147610E-07  0.302E-04    0.87      23.6  T
     SCC iter.                  ...        0 min,  0.352 sec
     gradient                   ...        0 min,  0.127 sec
 * total energy  :  -347.2545693 Eh     change       -0.1534444E-02 Eh
   gradient norm :     0.0109510 Eh/α   predicted    -0.1233446E-02 ( -19.62%)
   displ. norm   :     0.5393734 α      lambda       -0.1638292E-02
   maximum displ.:     0.1272008 α      in ANC's #29, #43, #60, ...

........................................................................
.............................. CYCLE    8 ..............................
........................................................................
   1   -352.1509729 -0.352151E+03  0.754E-02    0.85       0.0  T
   2   -352.1509864 -0.135349E-04  0.422E-02    0.85       1.0  T
   3   -352.1509380  0.483942E-04  0.167E-02    0.85       1.0  T
   4   -352.1509873 -0.492952E-04  0.639E-03    0.85       1.1  T
   5   -352.1509923 -0.496807E-05  0.313E-03    0.85       2.3  T
   6   -352.1509937 -0.144896E-05  0.141E-03    0.85       5.1  T
   7   -352.1509941 -0.358825E-06  0.589E-04    0.85      12.1  T
   8   -352.1509941 -0.532764E-07  0.323E-04    0.85      22.0  T
     SCC iter.                  ...        0 min,  0.351 sec
     gradient                   ...        0 min,  0.128 sec
 * total energy  :  -347.2558612 Eh     change       -0.1291888E-02 Eh
   gradient norm :     0.0088121 Eh/α   predicted    -0.1057467E-02 ( -18.15%)
   displ. norm   :     0.6022851 α      lambda       -0.1478805E-02
   maximum displ.:     0.1572402 α      in ANC's #29, #43, #27, ...

........................................................................
.............................. CYCLE    9 ..............................
........................................................................
   1   -352.1539137 -0.352154E+03  0.820E-02    0.83       0.0  T
   2   -352.1539305 -0.168458E-04  0.461E-02    0.84       1.0  T
   3   -352.1538948  0.356920E-04  0.155E-02    0.84       1.0  T
   4   -352.1539321 -0.372920E-04  0.595E-03    0.84       1.2  T
   5   -352.1539354 -0.325639E-05  0.312E-03    0.84       2.3  T
   6   -352.1539369 -0.149789E-05  0.145E-03    0.84       4.9  T
   7   -352.1539373 -0.437415E-06  0.568E-04    0.84      12.5  T
   8   -352.1539374 -0.498670E-07  0.295E-04    0.84      24.1  T
     SCC iter.                  ...        0 min,  0.346 sec
     gradient                   ...        0 min,  0.128 sec
 * total energy  :  -347.2570327 Eh     change       -0.1171435E-02 Eh
   gradient norm :     0.0097117 Eh/α   predicted    -0.1007625E-02 ( -13.98%)
   displ. norm   :     0.6238952 α      lambda       -0.1294338E-02
   maximum displ.:     0.1749625 α      in ANC's #43, #29, #27, ...

........................................................................
.............................. CYCLE   10 ..............................
........................................................................
   1   -352.1523862 -0.352152E+03  0.806E-02    0.83       0.0  T
   2   -352.1524022 -0.159954E-04  0.455E-02    0.83       1.0  T
   3   -352.1523683  0.338385E-04  0.153E-02    0.83       1.0  T
   4   -352.1524048 -0.364260E-04  0.538E-03    0.83       1.3  T
   5   -352.1524061 -0.135943E-05  0.336E-03    0.83       2.1  T
   6   -352.1524083 -0.215236E-05  0.151E-03    0.83       4.7  T
   7   -352.1524088 -0.519506E-06  0.491E-04    0.83      14.5  T
   8   -352.1524088 -0.317604E-07  0.246E-04    0.83      28.9  T
     SCC iter.                  ...        0 min,  0.362 sec
     gradient                   ...        0 min,  0.128 sec
 * total energy  :  -347.2580559 Eh     change       -0.1023289E-02 Eh
   gradient norm :     0.0108879 Eh/α   predicted    -0.8991057E-03 ( -12.14%)
   displ. norm   :     0.6214152 α      lambda       -0.1113286E-02
   maximum displ.:     0.1818912 α      in ANC's #29, #43, #27, ...

........................................................................
.............................. CYCLE   11 ..............................
........................................................................
   1   -352.1483001 -0.352148E+03  0.772E-02    0.82       0.0  T
   2   -352.1483106 -0.104344E-04  0.436E-02    0.83       1.0  T
   3   -352.1482749  0.357009E-04  0.152E-02    0.83       1.0  T
   4   -352.1483138 -0.389354E-04  0.487E-03    0.83       1.5  T
   5   -352.1483138 -0.229106E-07  0.349E-03    0.83       2.0  T
   6   -352.1483166 -0.277580E-05  0.115E-03    0.83       6.2  T
   7   -352.1483168 -0.233148E-06  0.457E-04    0.83      15.6  T
   8   -352.1483169 -0.256436E-07  0.257E-04    0.83      27.7  T
     SCC iter.                  ...        0 min,  0.359 sec
     gradient                   ...        0 min,  0.128 sec
 * total energy  :  -347.2589513 Eh     change       -0.8953519E-03 Eh
   gradient norm :     0.0086704 Eh/α   predicted    -0.7715965E-03 ( -13.82%)
   displ. norm   :     0.6222378 α      lambda       -0.9835601E-03
   maximum displ.:     0.1841065 α      in ANC's #29, #43, #22, ...

........................................................................
.............................. CYCLE   12 ..............................
........................................................................
   1   -352.1455659 -0.352146E+03  0.737E-02    0.82       0.0  T
   2   -352.1455745 -0.864270E-05  0.415E-02    0.82       1.0  T
   3   -352.1455326  0.418761E-04  0.155E-02    0.82       1.0  T
   4   -352.1455757 -0.430623E-04  0.538E-03    0.82       1.3  T
   5   -352.1455773 -0.162689E-05  0.368E-03    0.82       1.9  T
   6   -352.1455805 -0.317216E-05  0.107E-03    0.82       6.7  T
   7   -352.1455807 -0.179567E-06  0.460E-04    0.82      15.5  T
   8   -352.1455807 -0.264909E-07  0.256E-04    0.82      27.9  T
     SCC iter.                  ...        0 min,  0.364 sec
     gradient                   ...        0 min,  0.128 sec
 * total energy  :  -347.2597446 Eh     change       -0.7933208E-03 Eh
   gradient norm :     0.0071477 Eh/α   predicted    -0.6821882E-03 ( -14.01%)
   displ. norm   :     0.6250877 α      lambda       -0.8308393E-03
   maximum displ.:     0.1822709 α      in ANC's #29, #43, #22, ...

........................................................................
.............................. CYCLE   13 ..............................
........................................................................
   1   -352.1430790 -0.352143E+03  0.702E-02    0.82       0.0  T
   2   -352.1430874 -0.839560E-05  0.396E-02    0.82       1.0  T
   3   -352.1430453  0.420883E-04  0.152E-02    0.82       1.0  T
   4   -352.1430877 -0.423449E-04  0.544E-03    0.82       1.3  T
   5   -352.1430906 -0.289912E-05  0.336E-03    0.82       2.1  T
   6   -352.1430930 -0.237363E-05  0.110E-03    0.82       6.5  T
   7   -352.1430931 -0.194020E-06  0.494E-04    0.82      14.4  T
   8   -352.1430932 -0.368933E-07  0.251E-04    0.82      28.4  T
     SCC iter.                  ...        0 min,  0.352 sec
     gradient                   ...        0 min,  0.128 sec
 * total energy  :  -347.2604038 Eh     change       -0.6592338E-03 Eh
   gradient norm :     0.0069486 Eh/α   predicted    -0.5777403E-03 ( -12.36%)
   displ. norm   :     0.6110060 α      lambda       -0.6685093E-03
   maximum displ.:     0.1715343 α      in ANC's #29, #22, #43, ...

........................................................................
.............................. CYCLE   14 ..............................
........................................................................
   1   -352.1432733 -0.352143E+03  0.646E-02    0.82       0.0  T
   2   -352.1432785 -0.518851E-05  0.365E-02    0.81       1.0  T
   3   -352.1432402  0.382180E-04  0.138E-02    0.82       1.0  T
   4   -352.1432783 -0.380330E-04  0.493E-03    0.81       1.4  T
   5   -352.1432806 -0.235267E-05  0.309E-03    0.82       2.3  T
   6   -352.1432828 -0.213171E-05  0.853E-04    0.81       8.4  T
   7   -352.1432829 -0.111024E-06  0.387E-04    0.81      18.4  T
   8   -352.1432829 -0.148562E-07  0.216E-04    0.81      32.9  T
     SCC iter.                  ...        0 min,  0.349 sec
     gradient                   ...        0 min,  0.128 sec
 * total energy  :  -347.2609246 Eh     change       -0.5207223E-03 Eh
   gradient norm :     0.0076434 Eh/α   predicted    -0.4590471E-03 ( -11.84%)
   displ. norm   :     0.5908816 α      lambda       -0.5434319E-03
   maximum displ.:     0.1660563 α      in ANC's #22, #29, #43, ...

........................................................................
.............................. CYCLE   15 ..............................
........................................................................
   1   -352.1443182 -0.352144E+03  0.574E-02    0.81       0.0  T
   2   -352.1443219 -0.366138E-05  0.325E-02    0.81       1.0  T
   3   -352.1442875  0.343611E-04  0.130E-02    0.81       1.0  T
   4   -352.1443224 -0.348758E-04  0.429E-03    0.81       1.7  T
   5   -352.1443238 -0.139383E-05  0.285E-03    0.81       2.5  T
   6   -352.1443257 -0.186233E-05  0.777E-04    0.81       9.2  T
   7   -352.1443258 -0.989702E-07  0.317E-04    0.81      22.5  T
   8   -352.1443258 -0.469652E-08  0.185E-04    0.81      38.4  T
     SCC iter.                  ...        0 min,  0.349 sec
     gradient                   ...        0 min,  0.128 sec
 * total energy  :  -347.2613491 Eh     change       -0.4245731E-03 Eh
   gradient norm :     0.0067771 Eh/α   predicted    -0.3665967E-03 ( -13.66%)
   displ. norm   :     0.5617801 α      lambda       -0.4487634E-03
   maximum displ.:     0.1577219 α      in ANC's #22, #17, #30, ...

........................................................................
.............................. CYCLE   16 ..............................
........................................................................
   1   -352.1464982 -0.352146E+03  0.505E-02    0.81       0.0  T
   2   -352.1465020 -0.377094E-05  0.288E-02    0.81       1.0  T
   3   -352.1464689  0.330635E-04  0.128E-02    0.81       1.0  T
   4   -352.1465027 -0.337674E-04  0.405E-03    0.81       1.8  T
   5   -352.1465044 -0.174214E-05  0.250E-03    0.81       2.8  T
   6   -352.1465057 -0.131157E-05  0.920E-04    0.81       7.7  T
   7   -352.1465059 -0.157678E-06  0.332E-04    0.81      21.5  T
   8   -352.1465059 -0.956072E-08  0.193E-04    0.81      37.0  T
     SCC iter.                  ...        0 min,  0.348 sec
     gradient                   ...        0 min,  0.127 sec
 * total energy  :  -347.2617054 Eh     change       -0.3562927E-03 Eh
   gradient norm :     0.0054472 Eh/α   predicted    -0.2951972E-03 ( -17.15%)
   displ. norm   :     0.5446847 α      lambda       -0.3823457E-03
   maximum displ.:     0.1477146 α      in ANC's #22, #17, #19, ...

........................................................................
.............................. CYCLE   17 ..............................
........................................................................
   1   -352.1482534 -0.352148E+03  0.450E-02    0.81       0.0  T
   2   -352.1482579 -0.448359E-05  0.257E-02    0.81       1.0  T
   3   -352.1482318  0.260162E-04  0.118E-02    0.81       1.0  T
   4   -352.1482586 -0.267898E-04  0.377E-03    0.81       1.9  T
   5   -352.1482604 -0.177331E-05  0.204E-03    0.81       3.5  T
   6   -352.1482611 -0.743485E-06  0.945E-04    0.81       7.5  T
   7   -352.1482613 -0.174495E-06  0.359E-04    0.81      19.8  T
     SCC iter.                  ...        0 min,  0.307 sec
     gradient                   ...        0 min,  0.128 sec
 * total energy  :  -347.2620155 Eh     change       -0.3100252E-03 Eh
   gradient norm :     0.0055084 Eh/α   predicted    -0.2478981E-03 ( -20.04%)
   displ. norm   :     0.5543209 α      lambda       -0.3670639E-03
   maximum displ.:     0.1496656 α      in ANC's #17, #1, #19, ...

........................................................................
.............................. CYCLE   18 ..............................
........................................................................
   1   -352.1496965 -0.352150E+03  0.430E-02    0.81       0.0  T
   2   -352.1496995 -0.302302E-05  0.247E-02    0.81       1.0  T
   3   -352.1496760  0.235032E-04  0.112E-02    0.81       1.0  T
   4   -352.1497008 -0.247761E-04  0.325E-03    0.81       2.2  T
   5   -352.1497021 -0.128324E-05  0.157E-03    0.81       4.5  T
   6   -352.1497024 -0.320267E-06  0.733E-04    0.81       9.7  T
   7   -352.1497025 -0.970876E-07  0.296E-04    0.81      24.0  T
     SCC iter.                  ...        0 min,  0.309 sec
     gradient                   ...        0 min,  0.127 sec
 * total energy  :  -347.2623214 Eh     change       -0.3059385E-03 Eh
   gradient norm :     0.0070350 Eh/α   predicted    -0.2399285E-03 ( -21.58%)
   displ. norm   :     0.6002410 α      lambda       -0.4035501E-03
   maximum displ.:     0.1701311 α      in ANC's #1, #8, #17, ...

........................................................................
.............................. CYCLE   19 ..............................
........................................................................
   1   -352.1477543 -0.352148E+03  0.463E-02    0.80       0.0  T
   2   -352.1477573 -0.293650E-05  0.264E-02    0.81       1.0  T
   3   -352.1477388  0.184707E-04  0.101E-02    0.80       1.0  T
   4   -352.1477580 -0.192389E-04  0.329E-03    0.81       2.2  T
   5   -352.1477590 -0.996491E-06  0.169E-03    0.81       4.2  T
   6   -352.1477595 -0.446732E-06  0.703E-04    0.81      10.1  T
   7   -352.1477596 -0.905655E-07  0.296E-04    0.81      24.1  T
     SCC iter.                  ...        0 min,  0.306 sec
     gradient                   ...        0 min,  0.128 sec
 * total energy  :  -347.2626586 Eh     change       -0.3371883E-03 Eh
   gradient norm :     0.0077608 Eh/α   predicted    -0.2744821E-03 ( -18.60%)
   displ. norm   :     0.6379021 α      lambda       -0.4635058E-03
   maximum displ.:     0.1874202 α      in ANC's #8, #1, #19, ...

........................................................................
.............................. CYCLE   20 ..............................
........................................................................
   1   -352.1527313 -0.352153E+03  0.513E-02    0.81       0.0  T
   2   -352.1527350 -0.361031E-05  0.293E-02    0.81       1.0  T
   3   -352.1527178  0.171394E-04  0.975E-03    0.81       1.0  T
   4   -352.1527346 -0.167755E-04  0.386E-03    0.81       1.8  T
   5   -352.1527363 -0.171067E-05  0.210E-03    0.81       3.4  T
   6   -352.1527370 -0.731351E-06  0.857E-04    0.81       8.3  T
   7   -352.1527372 -0.156698E-06  0.337E-04    0.81      21.2  T
     SCC iter.                  ...        0 min,  0.307 sec
     gradient                   ...        0 min,  0.127 sec
 * total energy  :  -347.2629937 Eh     change       -0.3351309E-03 Eh
   gradient norm :     0.0092239 Eh/α   predicted    -0.3260597E-03 (  -2.71%)
   displ. norm   :     0.6231401 α      lambda       -0.4584934E-03
   maximum displ.:     0.1919438 α      in ANC's #1, #8, #19, ...
 * RMSD in coord.:     0.5883915 α      energy gain  -0.2126393E+00 Eh

generating ANC from model Hessian ...
Using Lindh-Hessian (1995)
 Shifting diagonal of input Hessian by   9.994740410098249E-003
 Lowest  eigenvalues of input Hessian
    0.000000    0.000000    0.000000    0.000000    0.000000    0.000000
    0.010000    0.010013    0.010019    0.010021    0.010031    0.010039
    0.010051    0.010058    0.010068    0.010078    0.010108    0.010120
 Highest eigenvalues
    2.177676    2.201101    2.207880    2.415566    2.416599    2.418755
 

........................................................................
.............................. CYCLE   21 ..............................
........................................................................
   1   -352.1420437 -0.352142E+03  0.515E-02    0.80       0.0  T
   2   -352.1420484 -0.466251E-05  0.292E-02    0.81       1.0  T
   3   -352.1420360  0.123688E-04  0.927E-03    0.81       1.0  T
   4   -352.1420497 -0.137222E-04  0.323E-03    0.81       2.2  T
   5   -352.1420496  0.655242E-07  0.215E-03    0.81       3.3  T
   6   -352.1420507 -0.104334E-05  0.733E-04    0.81       9.7  T
   7   -352.1420508 -0.105844E-06  0.348E-04    0.81      20.5  T
   8   -352.1420508 -0.161547E-07  0.178E-04    0.81      40.0  T
     SCC iter.                  ...        0 min,  0.344 sec
     gradient                   ...        0 min,  0.128 sec
 * total energy  :  -347.2632992 Eh     change       -0.3054574E-03 Eh
   gradient norm :     0.0078610 Eh/α   predicted     0.0000000E+00 (-100.00%)
   displ. norm   :     0.0785960 α      lambda       -0.1410514E-03
   maximum displ.:     0.0215279 α      in ANC's #1, #27, #8, ...

........................................................................
.............................. CYCLE   22 ..............................
........................................................................
   1   -352.1467572 -0.352147E+03  0.117E-02    0.81       0.0  T
   2   -352.1467578 -0.590357E-06  0.682E-03    0.81       1.0  T
   3   -352.1467548  0.305536E-05  0.444E-03    0.81       1.6  T
   4   -352.1467582 -0.344524E-05  0.135E-03    0.81       5.3  T
   5   -352.1467585 -0.282406E-06  0.606E-04    0.81      11.8  T
   6   -352.1467586 -0.461646E-07  0.294E-04    0.81      24.2  T
     SCC iter.                  ...        0 min,  0.262 sec
     gradient                   ...        0 min,  0.127 sec
 * total energy  :  -347.2634255 Eh     change       -0.1263552E-03 Eh
   gradient norm :     0.0040514 Eh/α   predicted    -0.8040384E-04 ( -36.37%)
   displ. norm   :     0.2102356 α      lambda       -0.2341950E-03
   maximum displ.:     0.0619990 α      in ANC's #1, #27, #8, ...

........................................................................
.............................. CYCLE   23 ..............................
........................................................................
   1   -352.1517087 -0.352152E+03  0.234E-02    0.81       0.0  T
   2   -352.1517104 -0.175581E-05  0.138E-02    0.81       1.0  T
   3   -352.1516969  0.135368E-04  0.908E-03    0.81       1.0  T
   4   -352.1517120 -0.151072E-04  0.250E-03    0.81       2.8  T
   5   -352.1517130 -0.103663E-05  0.110E-03    0.81       6.5  T
   6   -352.1517132 -0.144933E-06  0.541E-04    0.81      13.2  T
   7   -352.1517132 -0.419730E-07  0.269E-04    0.81      26.5  T
     SCC iter.                  ...        0 min,  0.300 sec
     gradient                   ...        0 min,  0.127 sec
 * total energy  :  -347.2635814 Eh     change       -0.1559098E-03 Eh
   gradient norm :     0.0038590 Eh/α   predicted    -0.1222739E-03 ( -21.57%)
   displ. norm   :     0.2052622 α      lambda       -0.1249669E-03
   maximum displ.:     0.0659542 α      in ANC's #1, #8, #27, ...

........................................................................
.............................. CYCLE   24 ..............................
........................................................................
   1   -352.1514559 -0.352151E+03  0.185E-02    0.81       0.0  T
   2   -352.1514565 -0.604583E-06  0.107E-02    0.80       1.0  T
   3   -352.1514493  0.719991E-05  0.623E-03    0.81       1.1  T
   4   -352.1514571 -0.775231E-05  0.155E-03    0.80       4.6  T
   5   -352.1514574 -0.361710E-06  0.694E-04    0.80      10.3  T
   6   -352.1514575 -0.564181E-07  0.305E-04    0.80      23.4  T
     SCC iter.                  ...        0 min,  0.258 sec
     gradient                   ...        0 min,  0.127 sec
 * total energy  :  -347.2636814 Eh     change       -0.9992296E-04 Eh
   gradient norm :     0.0054861 Eh/α   predicted    -0.6511678E-04 ( -34.83%)
   displ. norm   :     0.3629275 α      lambda       -0.1978348E-03
   maximum displ.:     0.1211980 α      in ANC's #1, #8, #27, ...

........................................................................
.............................. CYCLE   25 ..............................
........................................................................
   1   -352.1485580 -0.352149E+03  0.296E-02    0.80       0.0  T
   2   -352.1485590 -0.104426E-05  0.170E-02    0.80       1.0  T
   3   -352.1485483  0.107497E-04  0.744E-03    0.80       1.0  T
   4   -352.1485595 -0.112190E-04  0.210E-03    0.80       3.4  T
   5   -352.1485600 -0.492909E-06  0.114E-03    0.80       6.3  T
   6   -352.1485602 -0.210667E-06  0.528E-04    0.80      13.5  T
   7   -352.1485602 -0.539819E-07  0.207E-04    0.80      34.3  T
     SCC iter.                  ...        0 min,  0.302 sec
     gradient                   ...        0 min,  0.128 sec
 * total energy  :  -347.2638382 Eh     change       -0.1568273E-03 Eh
   gradient norm :     0.0063108 Eh/α   predicted    -0.1119496E-03 ( -28.62%)
   displ. norm   :     0.4442676 α      lambda       -0.2201891E-03
   maximum displ.:     0.1555318 α      in ANC's #1, #8, #27, ...

........................................................................
.............................. CYCLE   26 ..............................
........................................................................
   1   -352.1447625 -0.352145E+03  0.330E-02    0.80       0.0  T
   2   -352.1447636 -0.108216E-05  0.189E-02    0.80       1.0  T
   3   -352.1447556  0.801923E-05  0.642E-03    0.80       1.1  T
   4   -352.1447637 -0.815550E-05  0.213E-03    0.80       3.3  T
   5   -352.1447640 -0.288820E-06  0.141E-03    0.80       5.1  T
   6   -352.1447645 -0.487191E-06  0.454E-04    0.80      15.7  T
   7   -352.1447646 -0.333548E-07  0.190E-04    0.80      37.5  T
     SCC iter.                  ...        0 min,  0.301 sec
     gradient                   ...        0 min,  0.127 sec
 * total energy  :  -347.2640158 Eh     change       -0.1775737E-03 Eh
   gradient norm :     0.0059793 Eh/α   predicted    -0.1318348E-03 ( -25.76%)
   displ. norm   :     0.4892940 α      lambda       -0.2383260E-03
   maximum displ.:     0.1792803 α      in ANC's #1, #8, #10, ...

........................................................................
.............................. CYCLE   27 ..............................
........................................................................
   1   -352.1428292 -0.352143E+03  0.332E-02    0.80       0.0  T
   2   -352.1428304 -0.123001E-05  0.192E-02    0.81       1.0  T
   3   -352.1428177  0.127009E-04  0.789E-03    0.80       1.0  T
   4   -352.1428307 -0.129844E-04  0.231E-03    0.81       3.1  T
   5   -352.1428312 -0.533979E-06  0.146E-03    0.80       4.9  T
   6   -352.1428317 -0.463535E-06  0.499E-04    0.80      14.3  T
   7   -352.1428317 -0.404779E-07  0.204E-04    0.80      34.9  T
     SCC iter.                  ...        0 min,  0.306 sec
     gradient                   ...        0 min,  0.127 sec
 * total energy  :  -347.2642111 Eh     change       -0.1953505E-03 Eh
   gradient norm :     0.0051579 Eh/α   predicted    -0.1477286E-03 ( -24.38%)
   displ. norm   :     0.5179704 α      lambda       -0.2528431E-03
   maximum displ.:     0.1978765 α      in ANC's #1, #8, #10, ...

........................................................................
.............................. CYCLE   28 ..............................
........................................................................
   1   -352.1440737 -0.352144E+03  0.323E-02    0.81       0.0  T
   2   -352.1440752 -0.153270E-05  0.187E-02    0.81       1.0  T
   3   -352.1440579  0.172605E-04  0.929E-03    0.81       1.0  T
   4   -352.1440757 -0.177180E-04  0.260E-03    0.81       2.7  T
   5   -352.1440767 -0.103739E-05  0.137E-03    0.81       5.2  T
   6   -352.1440770 -0.297801E-06  0.626E-04    0.81      11.4  T
   7   -352.1440771 -0.758912E-07  0.241E-04    0.81      29.5  T
     SCC iter.                  ...        0 min,  0.323 sec
     gradient                   ...        0 min,  0.128 sec
 * total energy  :  -347.2644178 Eh     change       -0.2066710E-03 Eh
   gradient norm :     0.0049459 Eh/α   predicted    -0.1603396E-03 ( -22.42%)
   displ. norm   :     0.5432250 α      lambda       -0.2434574E-03
   maximum displ.:     0.2144157 α      in ANC's #1, #8, #10, ...

........................................................................
.............................. CYCLE   29 ..............................
........................................................................
   1   -352.1474441 -0.352147E+03  0.308E-02    0.81       0.0  T
   2   -352.1474456 -0.150995E-05  0.177E-02    0.81       1.0  T
   3   -352.1474343  0.113468E-04  0.764E-03    0.81       1.0  T
   4   -352.1474455 -0.112308E-04  0.258E-03    0.81       2.8  T
   5   -352.1474467 -0.113658E-05  0.118E-03    0.81       6.0  T
   6   -352.1474468 -0.164399E-06  0.605E-04    0.81      11.8  T
   7   -352.1474469 -0.813151E-07  0.217E-04    0.81      32.9  T
     SCC iter.                  ...        0 min,  0.311 sec
     gradient                   ...        0 min,  0.127 sec
 * total energy  :  -347.2646194 Eh     change       -0.2015877E-03 Eh
   gradient norm :     0.0053019 Eh/α   predicted    -0.1576525E-03 ( -21.79%)
   displ. norm   :     0.5728161 α      lambda       -0.2383289E-03
   maximum displ.:     0.2322106 α      in ANC's #1, #8, #10, ...

........................................................................
.............................. CYCLE   30 ..............................
........................................................................
   1   -352.1510802 -0.352151E+03  0.291E-02    0.81       0.0  T
   2   -352.1510815 -0.122794E-05  0.166E-02    0.81       1.0  T
   3   -352.1510777  0.378913E-05  0.473E-03    0.81       1.5  T
   4   -352.1510809 -0.325236E-05  0.229E-03    0.81       3.1  T
   5   -352.1510818 -0.892390E-06  0.100E-03    0.81       7.1  T
   6   -352.1510820 -0.141738E-06  0.441E-04    0.81      16.2  T
   7   -352.1510820 -0.416255E-07  0.182E-04    0.81      39.2  T
     SCC iter.                  ...        0 min,  0.312 sec
     gradient                   ...        0 min,  0.127 sec
 * total energy  :  -347.2648234 Eh     change       -0.2040020E-03 Eh
   gradient norm :     0.0054068 Eh/α   predicted    -0.1583239E-03 ( -22.39%)
   displ. norm   :     0.6132890 α      lambda       -0.2583191E-03
   maximum displ.:     0.2542731 α      in ANC's #1, #8, #10, ...

........................................................................
.............................. CYCLE   31 ..............................
........................................................................
   1   -352.1539581 -0.352154E+03  0.283E-02    0.81       0.0  T
   2   -352.1539590 -0.981328E-06  0.162E-02    0.81       1.0  T
   3   -352.1539571  0.193645E-05  0.377E-03    0.81       1.9  T
   4   -352.1539591 -0.195339E-05  0.164E-03    0.81       4.3  T
   5   -352.1539593 -0.240380E-06  0.806E-04    0.81       8.8  T
   6   -352.1539594 -0.956025E-07  0.379E-04    0.81      18.8  T
     SCC iter.                  ...        0 min,  0.266 sec
     gradient                   ...        0 min,  0.127 sec
 * total energy  :  -347.2650505 Eh     change       -0.2271065E-03 Eh
   gradient norm :     0.0051442 Eh/α   predicted    -0.1777723E-03 ( -21.72%)
   displ. norm   :     0.6601114 α      lambda       -0.2938292E-03
   maximum displ.:     0.2786679 α      in ANC's #1, #8, #10, ...

........................................................................
.............................. CYCLE   32 ..............................
........................................................................
   1   -352.1549826 -0.352155E+03  0.294E-02    0.81       0.0  T
   2   -352.1549835 -0.853551E-06  0.170E-02    0.81       1.0  T
   3   -352.1549776  0.583765E-05  0.570E-03    0.81       1.3  T
   4   -352.1549838 -0.619354E-05  0.170E-03    0.81       4.2  T
   5   -352.1549840 -0.169098E-06  0.931E-04    0.81       7.7  T
   6   -352.1549842 -0.157311E-06  0.309E-04    0.81      23.1  T
     SCC iter.                  ...        0 min,  0.265 sec
     gradient                   ...        0 min,  0.127 sec
 * total energy  :  -347.2653116 Eh     change       -0.2610916E-03 Eh
   gradient norm :     0.0050102 Eh/α   predicted    -0.2109325E-03 ( -19.21%)
   displ. norm   :     0.6990961 α      lambda       -0.3244094E-03
   maximum displ.:     0.2989154 α      in ANC's #1, #8, #10, ...

........................................................................
.............................. CYCLE   33 ..............................
........................................................................
   1   -352.1534687 -0.352153E+03  0.324E-02    0.81       0.0  T
   2   -352.1534696 -0.915733E-06  0.187E-02    0.81       1.0  T
   3   -352.1534598  0.981241E-05  0.712E-03    0.81       1.0  T
   4   -352.1534701 -0.102756E-04  0.203E-03    0.81       3.5  T
   5   -352.1534704 -0.315382E-06  0.112E-03    0.81       6.3  T
   6   -352.1534706 -0.218746E-06  0.427E-04    0.81      16.7  T
   7   -352.1534706 -0.347314E-07  0.185E-04    0.81      38.5  T
     SCC iter.                  ...        0 min,  0.306 sec
     gradient                   ...        0 min,  0.126 sec
 * total energy  :  -347.2655994 Eh     change       -0.2878395E-03 Eh
   gradient norm :     0.0053677 Eh/α   predicted    -0.2414875E-03 ( -16.10%)
   displ. norm   :     0.7214972 α      lambda       -0.3344692E-03
   maximum displ.:     0.3119357 α      in ANC's #1, #8, #10, ...

........................................................................
.............................. CYCLE   34 ..............................
........................................................................
   1   -352.1500186 -0.352150E+03  0.355E-02    0.81       0.0  T
   2   -352.1500199 -0.128469E-05  0.204E-02    0.81       1.0  T
   3   -352.1500116  0.824853E-05  0.671E-03    0.81       1.1  T
   4   -352.1500200 -0.835336E-05  0.238E-03    0.81       3.0  T
   5   -352.1500206 -0.624752E-06  0.114E-03    0.81       6.2  T
   6   -352.1500208 -0.197644E-06  0.474E-04    0.81      15.0  T
   7   -352.1500209 -0.460199E-07  0.202E-04    0.81      35.3  T
     SCC iter.                  ...        0 min,  0.309 sec
     gradient                   ...        0 min,  0.127 sec
 * total energy  :  -347.2658940 Eh     change       -0.2945804E-03 Eh
   gradient norm :     0.0056165 Eh/α   predicted    -0.2542942E-03 ( -13.68%)
   displ. norm   :     0.7292123 α      lambda       -0.3232959E-03
   maximum displ.:     0.3198983 α      in ANC's #1, #8, #10, ...

........................................................................
.............................. CYCLE   35 ..............................
........................................................................
   1   -352.1462803 -0.352146E+03  0.366E-02    0.81       0.0  T
   2   -352.1462821 -0.180618E-05  0.209E-02    0.81       1.0  T
   3   -352.1462758  0.629924E-05  0.631E-03    0.81       1.1  T
   4   -352.1462822 -0.634301E-05  0.247E-03    0.81       2.9  T
   5   -352.1462828 -0.615414E-06  0.123E-03    0.81       5.8  T
   6   -352.1462830 -0.236918E-06  0.486E-04    0.81      14.7  T
   7   -352.1462831 -0.424466E-07  0.220E-04    0.81      32.3  T
     SCC iter.                  ...        0 min,  0.311 sec
     gradient                   ...        0 min,  0.127 sec
 * total energy  :  -347.2661781 Eh     change       -0.2840789E-03 Eh
   gradient norm :     0.0052106 Eh/α   predicted    -0.2476042E-03 ( -12.84%)
   displ. norm   :     0.7311477 α      lambda       -0.3056672E-03
   maximum displ.:     0.3270610 α      in ANC's #1, #8, #10, ...

........................................................................
.............................. CYCLE   36 ..............................
........................................................................
   1   -352.1440526 -0.352144E+03  0.359E-02    0.81       0.0  T
   2   -352.1440547 -0.212526E-05  0.205E-02    0.81       1.0  T
   3   -352.1440457  0.900706E-05  0.749E-03    0.81       1.0  T
   4   -352.1440553 -0.961029E-05  0.241E-03    0.81       3.0  T
   5   -352.1440558 -0.433877E-06  0.127E-03    0.81       5.6  T
   6   -352.1440560 -0.232903E-06  0.466E-04    0.81      15.3  T
   7   -352.1440560 -0.351196E-07  0.191E-04    0.81      37.4  T
     SCC iter.                  ...        0 min,  0.306 sec
     gradient                   ...        0 min,  0.126 sec
 * total energy  :  -347.2664477 Eh     change       -0.2696550E-03 Eh
   gradient norm :     0.0044463 Eh/α   predicted    -0.2345397E-03 ( -13.02%)
   displ. norm   :     0.7382445 α      lambda       -0.2914650E-03
   maximum displ.:     0.3359077 α      in ANC's #1, #8, #10, ...

........................................................................
.............................. CYCLE   37 ..............................
........................................................................
   1   -352.1438800 -0.352144E+03  0.348E-02    0.81       0.0  T
   2   -352.1438820 -0.201112E-05  0.198E-02    0.81       1.0  T
   3   -352.1438704  0.116714E-04  0.837E-03    0.80       1.0  T
   4   -352.1438830 -0.126461E-04  0.238E-03    0.81       3.0  T
   5   -352.1438834 -0.365571E-06  0.132E-03    0.81       5.4  T
   6   -352.1438836 -0.257173E-06  0.457E-04    0.81      15.6  T
   7   -352.1438837 -0.336279E-07  0.186E-04    0.81      38.3  T
     SCC iter.                  ...        0 min,  0.302 sec
     gradient                   ...        0 min,  0.127 sec
 * total energy  :  -347.2667075 Eh     change       -0.2597915E-03 Eh
   gradient norm :     0.0042287 Eh/α   predicted    -0.2251633E-03 ( -13.33%)
   displ. norm   :     0.7484654 α      lambda       -0.2846203E-03
   maximum displ.:     0.3458256 α      in ANC's #1, #8, #10, ...

........................................................................
.............................. CYCLE   38 ..............................
........................................................................
   1   -352.1458796 -0.352146E+03  0.346E-02    0.80       0.0  T
   2   -352.1458814 -0.183817E-05  0.197E-02    0.81       1.0  T
   3   -352.1458701  0.112546E-04  0.820E-03    0.80       1.0  T
   4   -352.1458823 -0.121511E-04  0.239E-03    0.81       3.0  T
   5   -352.1458827 -0.399122E-06  0.131E-03    0.81       5.4  T
   6   -352.1458829 -0.254735E-06  0.448E-04    0.81      15.9  T
   7   -352.1458830 -0.340579E-07  0.175E-04    0.81      40.8  T
     SCC iter.                  ...        0 min,  0.315 sec
     gradient                   ...        0 min,  0.127 sec
 * total energy  :  -347.2669630 Eh     change       -0.2555012E-03 Eh
   gradient norm :     0.0044819 Eh/α   predicted    -0.2220383E-03 ( -13.10%)
   displ. norm   :     0.7697479 α      lambda       -0.2770970E-03
   maximum displ.:     0.3580763 α      in ANC's #1, #8, #10, ...

........................................................................
.............................. CYCLE   39 ..............................
........................................................................
   1   -352.1474465 -0.352147E+03  0.352E-02    0.80       0.0  T
   2   -352.1474481 -0.165392E-05  0.199E-02    0.80       1.0  T
   3   -352.1474415  0.662891E-05  0.648E-03    0.80       1.1  T
   4   -352.1474485 -0.699958E-05  0.234E-03    0.80       3.1  T
   5   -352.1474489 -0.439000E-06  0.120E-03    0.80       5.9  T
   6   -352.1474491 -0.209872E-06  0.396E-04    0.80      18.0  T
   7   -352.1474492 -0.276444E-07  0.163E-04    0.80      43.8  T
     SCC iter.                  ...        0 min,  0.309 sec
     gradient                   ...        0 min,  0.127 sec
 * total energy  :  -347.2672134 Eh     change       -0.2503344E-03 Eh
   gradient norm :     0.0043931 Eh/α   predicted    -0.2206463E-03 ( -11.86%)
   displ. norm   :     0.7452725 α      lambda       -0.2719729E-03
   maximum displ.:     0.3576823 α      in ANC's #1, #8, #4, ...

........................................................................
.............................. CYCLE   40 ..............................
........................................................................
   1   -352.1524289 -0.352152E+03  0.355E-02    0.80       0.0  T
   2   -352.1524309 -0.196608E-05  0.200E-02    0.80       1.0  T
   3   -352.1524254  0.544538E-05  0.599E-03    0.80       1.2  T
   4   -352.1524310 -0.560433E-05  0.244E-03    0.80       2.9  T
   5   -352.1524315 -0.516984E-06  0.125E-03    0.80       5.7  T
   6   -352.1524318 -0.240401E-06  0.527E-04    0.80      13.5  T
   7   -352.1524318 -0.586333E-07  0.220E-04    0.80      32.4  T
     SCC iter.                  ...        0 min,  0.309 sec
     gradient                   ...        0 min,  0.126 sec
 * total energy  :  -347.2674408 Eh     change       -0.2274919E-03 Eh
   gradient norm :     0.0041072 Eh/α   predicted    -0.2115207E-03 (  -7.02%)
   displ. norm   :     0.7856560 α      lambda       -0.2618575E-03
   maximum displ.:     0.3660771 α      in ANC's #1, #8, #4, ...

........................................................................
.............................. CYCLE   41 ..............................
........................................................................
   1   -352.1485831 -0.352149E+03  0.360E-02    0.80       0.0  T
   2   -352.1485848 -0.169627E-05  0.205E-02    0.80       1.0  T
   3   -352.1485803  0.452826E-05  0.522E-03    0.80       1.4  T
   4   -352.1485848 -0.454637E-05  0.229E-03    0.80       3.1  T
   5   -352.1485854 -0.545611E-06  0.105E-03    0.80       6.8  T
   6   -352.1485855 -0.160190E-06  0.481E-04    0.80      14.8  T
   7   -352.1485856 -0.474848E-07  0.210E-04    0.80      34.0  T
     SCC iter.                  ...        0 min,  0.308 sec
     gradient                   ...        0 min,  0.126 sec
 * total energy  :  -347.2676462 Eh     change       -0.2053746E-03 Eh
   gradient norm :     0.0040695 Eh/α   predicted    -0.2117466E-03 (   3.10%)
   displ. norm   :     0.6749717 α      lambda       -0.1967187E-03
   maximum displ.:     0.3306407 α      in ANC's #1, #8, #4, ...

........................................................................
.............................. CYCLE   42 ..............................
........................................................................
   1   -352.1491192 -0.352149E+03  0.294E-02    0.80       0.0  T
   2   -352.1491201 -0.891133E-06  0.166E-02    0.80       1.0  T
   3   -352.1491156  0.443620E-05  0.491E-03    0.80       1.5  T
   4   -352.1491201 -0.451527E-05  0.194E-03    0.80       3.7  T
   5   -352.1491204 -0.278250E-06  0.103E-03    0.80       6.9  T
   6   -352.1491206 -0.218414E-06  0.381E-04    0.80      18.7  T
   7   -352.1491207 -0.327267E-07  0.149E-04    0.80      47.8  T
     SCC iter.                  ...        0 min,  0.308 sec
     gradient                   ...        0 min,  0.127 sec
 * total energy  :  -347.2678195 Eh     change       -0.1733061E-03 Eh
   gradient norm :     0.0036611 Eh/α   predicted    -0.1431727E-03 ( -17.39%)
   displ. norm   :     0.6403326 α      lambda       -0.1815265E-03
   maximum displ.:     0.3212687 α      in ANC's #1, #8, #4, ...
 * RMSD in coord.:     0.8579282 α      energy gain  -0.4825809E-02 Eh

generating ANC from model Hessian ...
Using Lindh-Hessian (1995)
 Shifting diagonal of input Hessian by   9.994972737711435E-003
 Lowest  eigenvalues of input Hessian
    0.000000    0.000000    0.000000    0.000000    0.000000    0.000000
    0.010000    0.010013    0.010019    0.010021    0.010031    0.010038
    0.010054    0.010057    0.010076    0.010086    0.010111    0.010135
 Highest eigenvalues
    2.177502    2.201097    2.204716    2.413384    2.419844    2.419967
 

........................................................................
.............................. CYCLE   43 ..............................
........................................................................
   1   -352.1499500 -0.352150E+03  0.268E-02    0.80       0.0  T
   2   -352.1499507 -0.740443E-06  0.152E-02    0.79       1.0  T
   3   -352.1499460  0.471920E-05  0.499E-03    0.80       1.4  T
   4   -352.1499508 -0.484720E-05  0.180E-03    0.80       4.0  T
   5   -352.1499511 -0.250237E-06  0.923E-04    0.80       7.7  T
   6   -352.1499512 -0.159503E-06  0.355E-04    0.80      20.1  T
     SCC iter.                  ...        0 min,  0.264 sec
     gradient                   ...        0 min,  0.125 sec
 * total energy  :  -347.2679786 Eh     change       -0.1591034E-03 Eh
   gradient norm :     0.0031940 Eh/α   predicted     0.0000000E+00 (-100.00%)
   displ. norm   :     0.0459414 α      lambda       -0.1784328E-04
   maximum displ.:     0.0222269 α      in ANC's #1, #4, #45, ...

........................................................................
.............................. CYCLE   44 ..............................
........................................................................
   1   -352.1500410 -0.352150E+03  0.428E-03    0.80       0.0  T
   2   -352.1500411 -0.848385E-07  0.246E-03    0.80       2.9  T
   3   -352.1500409  0.195903E-06  0.118E-03    0.80       6.0  T
   4   -352.1500411 -0.223681E-06  0.368E-04    0.80      19.4  T
   5   -352.1500411 -0.162977E-07  0.174E-04    0.80      41.0  T
     SCC iter.                  ...        0 min,  0.223 sec
     gradient                   ...        0 min,  0.126 sec
 * total energy  :  -347.2680090 Eh     change       -0.3041380E-04 Eh
   gradient norm :     0.0019412 Eh/α   predicted    -0.1677450E-04 ( -44.85%)
   displ. norm   :     0.3579689 α      lambda       -0.1363627E-03
   maximum displ.:     0.1641854 α      in ANC's #1, #4, #28, ...

........................................................................
.............................. CYCLE   45 ..............................
........................................................................
   1   -352.1492539 -0.352149E+03  0.301E-02    0.80       0.0  T
   2   -352.1492570 -0.311952E-05  0.173E-02    0.80       1.0  T
   3   -352.1492470  0.100570E-04  0.822E-03    0.80       1.0  T
   4   -352.1492576 -0.106183E-04  0.270E-03    0.80       2.6  T
   5   -352.1492585 -0.879811E-06  0.158E-03    0.80       4.5  T
   6   -352.1492590 -0.509976E-06  0.688E-04    0.80      10.4  T
   7   -352.1492591 -0.835412E-07  0.265E-04    0.80      26.9  T
     SCC iter.                  ...        0 min,  0.305 sec
     gradient                   ...        0 min,  0.126 sec
 * total energy  :  -347.2681150 Eh     change       -0.1059706E-03 Eh
   gradient norm :     0.0054862 Eh/α   predicted    -0.7206579E-04 ( -31.99%)
   displ. norm   :     0.0929189 α      lambda       -0.4055259E-04
   maximum displ.:     0.0475377 α      in ANC's #1, #4, #23, ...

........................................................................
.............................. CYCLE   46 ..............................
........................................................................
   1   -352.1491152 -0.352149E+03  0.621E-03    0.80       0.0  T
   2   -352.1491152 -0.762598E-07  0.358E-03    0.80       2.0  T
   3   -352.1491148  0.424862E-06  0.155E-03    0.80       4.6  T
   4   -352.1491153 -0.448349E-06  0.459E-04    0.80      15.5  T
   5   -352.1491153 -0.229110E-07  0.246E-04    0.80      29.0  T
     SCC iter.                  ...        0 min,  0.220 sec
     gradient                   ...        0 min,  0.126 sec
 * total energy  :  -347.2681526 Eh     change       -0.3755033E-04 Eh
   gradient norm :     0.0048626 Eh/α   predicted    -0.2045158E-04 ( -45.54%)
   displ. norm   :     0.3572902 α      lambda       -0.1641966E-03
   maximum displ.:     0.1779019 α      in ANC's #1, #4, #23, ...

........................................................................
.............................. CYCLE   47 ..............................
........................................................................
   1   -352.1488200 -0.352149E+03  0.232E-02    0.80       0.0  T
   2   -352.1488215 -0.146688E-05  0.134E-02    0.80       1.0  T
   3   -352.1488146  0.685722E-05  0.636E-03    0.80       1.1  T
   4   -352.1488220 -0.741378E-05  0.182E-03    0.80       3.9  T
   5   -352.1488224 -0.352772E-06  0.904E-04    0.80       7.9  T
   6   -352.1488225 -0.109832E-06  0.378E-04    0.80      18.8  T
     SCC iter.                  ...        0 min,  0.263 sec
     gradient                   ...        0 min,  0.126 sec
 * total energy  :  -347.2682799 Eh     change       -0.1273067E-03 Eh
   gradient norm :     0.0019489 Eh/α   predicted    -0.9257921E-04 ( -27.28%)
   displ. norm   :     0.6472794 α      lambda       -0.1227725E-03
   maximum displ.:     0.3277230 α      in ANC's #1, #4, #23, ...

........................................................................
.............................. CYCLE   48 ..............................
........................................................................
   1   -352.1477705 -0.352148E+03  0.389E-02    0.80       0.0  T
   2   -352.1477736 -0.315806E-05  0.222E-02    0.80       1.0  T
   3   -352.1477598  0.137938E-04  0.918E-03    0.80       1.0  T
   4   -352.1477747 -0.148346E-04  0.279E-03    0.80       2.6  T
   5   -352.1477754 -0.691814E-06  0.146E-03    0.80       4.9  T
   6   -352.1477757 -0.293596E-06  0.572E-04    0.80      12.4  T
   7   -352.1477757 -0.454787E-07  0.251E-04    0.80      28.4  T
     SCC iter.                  ...        0 min,  0.309 sec
     gradient                   ...        0 min,  0.125 sec
 * total energy  :  -347.2684043 Eh     change       -0.1243977E-03 Eh
   gradient norm :     0.0047383 Eh/α   predicted    -0.7281740E-04 ( -41.46%)
   displ. norm   :     0.2728006 α      lambda       -0.7008571E-04
   maximum displ.:     0.1432273 α      in ANC's #1, #4, #8, ...

........................................................................
.............................. CYCLE   49 ..............................
........................................................................
   1   -352.1485208 -0.352149E+03  0.146E-02    0.80       0.0  T
   2   -352.1485210 -0.257973E-06  0.829E-03    0.80       1.0  T
   3   -352.1485205  0.519356E-06  0.201E-03    0.80       3.5  T
   4   -352.1485210 -0.542955E-06  0.906E-04    0.80       7.9  T
   5   -352.1485211 -0.322445E-07  0.578E-04    0.80      12.3  T
     SCC iter.                  ...        0 min,  0.223 sec
     gradient                   ...        0 min,  0.126 sec
 * total energy  :  -347.2684688 Eh     change       -0.6452288E-04 Eh
   gradient norm :     0.0042587 Eh/α   predicted    -0.3765082E-04 ( -41.65%)
   displ. norm   :     0.4128258 α      lambda       -0.1366263E-03
   maximum displ.:     0.2203777 α      in ANC's #1, #4, #8, ...

........................................................................
.............................. CYCLE   50 ..............................
........................................................................
   1   -352.1505230 -0.352151E+03  0.213E-02    0.80       0.0  T
   2   -352.1505235 -0.571514E-06  0.121E-02    0.80       1.0  T
   3   -352.1505224  0.118187E-05  0.299E-03    0.80       2.4  T
   4   -352.1505236 -0.123534E-05  0.132E-03    0.80       5.4  T
   5   -352.1505237 -0.131796E-06  0.671E-04    0.80      10.6  T
   6   -352.1505238 -0.820098E-07  0.226E-04    0.80      31.5  T
     SCC iter.                  ...        0 min,  0.266 sec
     gradient                   ...        0 min,  0.126 sec
 * total energy  :  -347.2685871 Eh     change       -0.1183168E-03 Eh
   gradient norm :     0.0023584 Eh/α   predicted    -0.7995517E-04 ( -32.42%)
   displ. norm   :     0.5270489 α      lambda       -0.1514965E-03
   maximum displ.:     0.2853687 α      in ANC's #1, #4, #8, ...

........................................................................
.............................. CYCLE   51 ..............................
........................................................................
   1   -352.1515188 -0.352152E+03  0.268E-02    0.80       0.0  T
   2   -352.1515197 -0.860942E-06  0.153E-02    0.80       1.0  T
   3   -352.1515170  0.266215E-05  0.419E-03    0.80       1.7  T
   4   -352.1515198 -0.273935E-05  0.173E-03    0.80       4.1  T
   5   -352.1515200 -0.258271E-06  0.853E-04    0.80       8.4  T
   6   -352.1515202 -0.128067E-06  0.268E-04    0.80      26.6  T
     SCC iter.                  ...        0 min,  0.266 sec
     gradient                   ...        0 min,  0.126 sec
 * total energy  :  -347.2687127 Eh     change       -0.1255413E-03 Eh
   gradient norm :     0.0021560 Eh/α   predicted    -0.9678981E-04 ( -22.90%)
   displ. norm   :     0.5026025 α      lambda       -0.1182002E-03
   maximum displ.:     0.2765089 α      in ANC's #1, #4, #8, ...

........................................................................
.............................. CYCLE   52 ..............................
........................................................................
   1   -352.1517439 -0.352152E+03  0.247E-02    0.80       0.0  T
   2   -352.1517445 -0.621194E-06  0.141E-02    0.80       1.0  T
   3   -352.1517421  0.240569E-05  0.388E-03    0.80       1.8  T
   4   -352.1517446 -0.249452E-05  0.154E-03    0.80       4.6  T
   5   -352.1517448 -0.178240E-06  0.771E-04    0.80       9.2  T
   6   -352.1517449 -0.110182E-06  0.241E-04    0.80      29.5  T
     SCC iter.                  ...        0 min,  0.265 sec
     gradient                   ...        0 min,  0.126 sec
 * total energy  :  -347.2688134 Eh     change       -0.1007954E-03 Eh
   gradient norm :     0.0030850 Eh/α   predicted    -0.7403011E-04 ( -26.55%)
   displ. norm   :     0.4548952 α      lambda       -0.1049389E-03
   maximum displ.:     0.2543938 α      in ANC's #1, #4, #8, ...

........................................................................
.............................. CYCLE   53 ..............................
........................................................................
   1   -352.1518558 -0.352152E+03  0.217E-02    0.80       0.0  T
   2   -352.1518562 -0.422255E-06  0.124E-02    0.80       1.0  T
   3   -352.1518540  0.218124E-05  0.352E-03    0.80       2.0  T
   4   -352.1518563 -0.223574E-05  0.135E-03    0.80       5.3  T
   5   -352.1518563 -0.726868E-07  0.849E-04    0.80       8.4  T
   6   -352.1518565 -0.162986E-06  0.245E-04    0.80      29.0  T
     SCC iter.                  ...        0 min,  0.265 sec
     gradient                   ...        0 min,  0.125 sec
 * total energy  :  -347.2689071 Eh     change       -0.9368110E-04 Eh
   gradient norm :     0.0031563 Eh/α   predicted    -0.6332707E-04 ( -32.40%)
   displ. norm   :     0.4674523 α      lambda       -0.1181550E-03
   maximum displ.:     0.2651663 α      in ANC's #1, #4, #8, ...

........................................................................
.............................. CYCLE   54 ..............................
........................................................................
   1   -352.1518210 -0.352152E+03  0.216E-02    0.80       0.0  T
   2   -352.1518214 -0.463648E-06  0.124E-02    0.80       1.0  T
   3   -352.1518189  0.251316E-05  0.373E-03    0.80       1.9  T
   4   -352.1518215 -0.257160E-05  0.138E-03    0.80       5.2  T
   5   -352.1518216 -0.977294E-07  0.873E-04    0.80       8.2  T
   6   -352.1518218 -0.160428E-06  0.295E-04    0.80      24.1  T
     SCC iter.                  ...        0 min,  0.268 sec
     gradient                   ...        0 min,  0.125 sec
 * total energy  :  -347.2690135 Eh     change       -0.1063838E-03 Eh
   gradient norm :     0.0024906 Eh/α   predicted    -0.7198685E-04 ( -32.33%)
   displ. norm   :     0.5202346 α      lambda       -0.1367692E-03
   maximum displ.:     0.2984621 α      in ANC's #1, #4, #8, ...

........................................................................
.............................. CYCLE   55 ..............................
........................................................................
   1   -352.1513697 -0.352151E+03  0.231E-02    0.80       0.0  T
   2   -352.1513703 -0.604525E-06  0.133E-02    0.80       1.0  T
   3   -352.1513667  0.362635E-05  0.438E-03    0.80       1.6  T
   4   -352.1513703 -0.367023E-05  0.159E-03    0.80       4.5  T
   5   -352.1513705 -0.225906E-06  0.924E-04    0.80       7.7  T
   6   -352.1513707 -0.157016E-06  0.354E-04    0.80      20.1  T
     SCC iter.                  ...        0 min,  0.264 sec
     gradient                   ...        0 min,  0.125 sec
 * total energy  :  -347.2691349 Eh     change       -0.1214219E-03 Eh
   gradient norm :     0.0018113 Eh/α   predicted    -0.8689409E-04 ( -28.44%)
   displ. norm   :     0.8256897 α      lambda       -0.1387402E-03
   maximum displ.:     0.4781777 α      in ANC's #1, #4, #8, ...

........................................................................
.............................. CYCLE   56 ..............................
........................................................................
   1   -352.1501523 -0.352150E+03  0.347E-02    0.80       0.0  T
   2   -352.1501537 -0.143681E-05  0.199E-02    0.80       1.0  T
   3   -352.1501447  0.900917E-05  0.687E-03    0.80       1.0  T
   4   -352.1501539 -0.917684E-05  0.246E-03    0.80       2.9  T
   5   -352.1501545 -0.622839E-06  0.130E-03    0.80       5.5  T
   6   -352.1501548 -0.274673E-06  0.493E-04    0.80      14.5  T
   7   -352.1501548 -0.458439E-07  0.223E-04    0.80      31.9  T
     SCC iter.                  ...        0 min,  0.305 sec
     gradient                   ...        0 min,  0.125 sec
 * total energy  :  -347.2693051 Eh     change       -0.1701536E-03 Eh
   gradient norm :     0.0027877 Eh/α   predicted    -0.9039295E-04 ( -46.88%)
   displ. norm   :     0.4655671 α      lambda       -0.1043768E-03
   maximum displ.:     0.2732130 α      in ANC's #1, #4, #8, ...

........................................................................
.............................. CYCLE   57 ..............................
........................................................................
   1   -352.1498893 -0.352150E+03  0.176E-02    0.80       0.0  T
   2   -352.1498896 -0.301647E-06  0.100E-02    0.80       1.0  T
   3   -352.1498873  0.233464E-05  0.343E-03    0.80       2.1  T
   4   -352.1498897 -0.241539E-05  0.119E-03    0.80       6.0  T
   5   -352.1498898 -0.109337E-06  0.614E-04    0.80      11.6  T
   6   -352.1498899 -0.690630E-07  0.225E-04    0.80      31.6  T
     SCC iter.                  ...        0 min,  0.260 sec
     gradient                   ...        0 min,  0.125 sec
 * total energy  :  -347.2694011 Eh     change       -0.9603731E-04 Eh
   gradient norm :     0.0029362 Eh/α   predicted    -0.6350509E-04 ( -33.87%)
   displ. norm   :     0.5093298 α      lambda       -0.1296411E-03
   maximum displ.:     0.3007139 α      in ANC's #1, #4, #8, ...

........................................................................
.............................. CYCLE   58 ..............................
........................................................................
   1   -352.1505883 -0.352151E+03  0.188E-02    0.80       0.0  T
   2   -352.1505887 -0.364532E-06  0.106E-02    0.80       1.0  T
   3   -352.1505863  0.236614E-05  0.347E-03    0.80       2.1  T
   4   -352.1505887 -0.236552E-05  0.135E-03    0.80       5.3  T
   5   -352.1505888 -0.134552E-06  0.783E-04    0.80       9.1  T
   6   -352.1505890 -0.140199E-06  0.262E-04    0.80      27.2  T
     SCC iter.                  ...        0 min,  0.261 sec
     gradient                   ...        0 min,  0.125 sec
 * total energy  :  -347.2695192 Eh     change       -0.1180326E-03 Eh
   gradient norm :     0.0025747 Eh/α   predicted    -0.8163597E-04 ( -30.84%)
   displ. norm   :     0.5819795 α      lambda       -0.1508396E-03
   maximum displ.:     0.3453410 α      in ANC's #1, #4, #9, ...

........................................................................
.............................. CYCLE   59 ..............................
........................................................................
   1   -352.1505323 -0.352151E+03  0.218E-02    0.80       0.0  T
   2   -352.1505328 -0.522795E-06  0.123E-02    0.80       1.0  T
   3   -352.1505300  0.282429E-05  0.387E-03    0.80       1.8  T
   4   -352.1505327 -0.267380E-05  0.167E-03    0.80       4.3  T
   5   -352.1505330 -0.281418E-06  0.986E-04    0.80       7.2  T
   6   -352.1505332 -0.224933E-06  0.308E-04    0.80      23.1  T
     SCC iter.                  ...        0 min,  0.262 sec
     gradient                   ...        0 min,  0.125 sec
 * total energy  :  -347.2696537 Eh     change       -0.1344952E-03 Eh
   gradient norm :     0.0019390 Eh/α   predicted    -0.1009688E-03 ( -24.93%)
   displ. norm   :     0.9053740 α      lambda       -0.1485553E-03
   maximum displ.:     0.5412656 α      in ANC's #1, #4, #9, ...

........................................................................
.............................. CYCLE   60 ..............................
........................................................................
   1   -352.1509203 -0.352151E+03  0.348E-02    0.80       0.0  T
   2   -352.1509218 -0.148555E-05  0.197E-02    0.80       1.0  T
   3   -352.1509146  0.711574E-05  0.626E-03    0.80       1.1  T
   4   -352.1509212 -0.658269E-05  0.275E-03    0.80       2.6  T
   5   -352.1509221 -0.870113E-06  0.160E-03    0.80       4.4  T
   6   -352.1509227 -0.587677E-06  0.531E-04    0.80      13.4  T
   7   -352.1509227 -0.568218E-07  0.198E-04    0.80      35.9  T
     SCC iter.                  ...        0 min,  0.313 sec
     gradient                   ...        0 min,  0.125 sec
 * total energy  :  -347.2698374 Eh     change       -0.1837447E-03 Eh
   gradient norm :     0.0020759 Eh/α   predicted    -0.1013398E-03 ( -44.85%)
   displ. norm   :     0.5149471 α      lambda       -0.1119659E-03
   maximum displ.:     0.3108307 α      in ANC's #1, #4, #9, ...

........................................................................
[...]
   157   1 H    0.997 --    58 C    0.986
   158   1 H    0.997 --    58 C    0.983
   159   1 H    0.994 --    62 C    0.949
   160   1 H    0.998 --    66 C    0.963
   161   1 H    0.998 --    67 C    0.964
   162   1 H    0.997 --    69 C    0.971
   163   1 H    0.996 --    69 C    0.967
   164   1 H    0.998 --    70 C    0.989
   165   1 H    0.998 --    70 C    0.987
   166   1 H    0.998 --    70 C    0.986
   167   1 H    0.999 --    76 C    0.962
   168   1 H    0.998 --    77 C    0.964
   169   1 H    0.996 --    79 C    0.961
   170   1 H    0.998 --    79 C    0.971
   171   1 H    0.998 --    80 C    0.988
   172   1 H    0.998 --    80 C    0.986
   173   1 H    0.998 --    80 C    0.985
   174   1 H    0.997 --    84 C    0.957
   175   1 H    0.997 --    88 C    0.958
   176   1 H    0.998 --    92 C    0.963
   177   1 H    0.998 --    93 C    0.965
   178   1 H    0.998 --    95 C    0.971
   179   1 H    0.996 --    95 C    0.963
   180   1 H    0.998 --    96 C    0.986
   181   1 H    0.998 --    96 C    0.989
   182   1 H    0.997 --    96 C    0.984
   183   1 H    0.998 --   102 C    0.962
   184   1 H    0.998 --   103 C    0.964
   185   1 H    0.998 --   105 C    0.971
   186   1 H    0.996 --   105 C    0.966
   187   1 H    0.998 --   106 C    0.986
   188   1 H    0.998 --   106 C    0.989
   189   1 H    0.998 --   106 C    0.987
   190   1 H    0.994 --   110 C    0.948
   191   1 H    0.996 --   119 C    0.963
   192   1 H    0.994 --   121 C    0.959
   193   1 H    0.996 --   126 C    0.967
   194   1 H    0.996 --   126 C    0.970
   195   1 H    0.997 --   127 C    0.986
   196   1 H    0.997 --   127 C    0.985
   197   1 H    0.997 --   127 C    0.983
 ---------------------------------------------------------------------------

Topologies differ in bond orders
Writing corrected topology to xtbtopo.mol

molecular dipole:
                 x           y           z       tot (Debye)
 q only:       -1.367      -0.448       0.479
   full:       -0.550       0.076      -0.113       1.440
molecular quadrupole (traceless):
                xx          xy          yy          xz          yz          zz
 q only:       90.424      17.327    -108.377       0.030      -9.211      17.953
  q+dip:       83.061      18.098    -104.022       0.827     -10.264      20.961
   full:       77.511      18.361    -103.387       0.591      -7.585      25.876

           -------------------------------------------------
          |                Geometry Summary                 |
           -------------------------------------------------

      molecular mass/u    :     2014.8056473
   center of mass at/Å    :       -0.5226369      -0.5263824      -0.1122356
  moments of inertia/u·Å² :        0.4975143E+05   0.1919181E+06   0.2010290E+06
rotational constants/cm⁻¹ :        0.3388372E-03   0.8783765E-04   0.8385672E-04

 * 204 selected distances

     #   Z          #   Z                                           value/Å
     1   6 C        2   6 C                                       1.3478118
     2   6 C        3   6 C                                       1.4263501
     3   6 C        4   6 C                                       1.4062100
     5   6 C        6   6 C                                       1.3662450
     6   6 C        7   6 C                                       1.4095851
     7   6 C        8   6 C                                       1.3607248
     9   6 C       10   6 C                                       1.5287380
     5   6 C       11  16 S                                       1.7416290
     8   6 C       11  16 S                                       1.7331151
     4   6 C       12   6 C                                       1.3906679
    12   6 C       13   6 C                                       1.4154424
    13   6 C       14   6 C                                       1.4094943
    15   6 C       16   6 C                                       1.3676500
    16   6 C       17   6 C                                       1.4079129
    17   6 C       18   6 C                                       1.3613455
    19   6 C       20   6 C                                       1.5300425
    15   6 C       21  16 S                                       1.7425502
    18   6 C       21  16 S                                       1.7315667
     3   6 C       22   6 C                                       1.4147430
    14   6 C       22   6 C                                       1.3927057
     1   6 C       23  16 S                                       1.7294681
    22   6 C       23  16 S                                       1.7456718
    13   6 C       24   6 C                                       1.4152632
    24   6 C       25   6 C                                       1.3661850
    12   6 C       26  16 S                                       1.7399462
    25   6 C       26  16 S                                       1.7499891
    25   6 C       27   6 C                                       1.4372928
    27   6 C       28   6 C                                       1.4199018
    28   6 C       29   6 C                                       1.4454968
    29   6 C       30   7 N                                       1.3353709
    30   7 N       31  16 S                                       1.5997613
    28   6 C       32   7 N                                       1.3336812
    31  16 S       32   7 N                                       1.6064895
    29   6 C       33   6 C                                       1.4037676
    33   6 C       34   6 C                                       1.3945511
    34   6 C       35   6 C                                       1.4233623
    35   6 C       36   6 C                                       1.3561239
    37   6 C       38   8 O                                       1.2068279
    37   6 C       39   8 O                                       1.3359787
    39   8 O       40   6 C                                       1.4258919
    40   6 C       41   6 C                                       1.5169813
    36   6 C       42  16 S                                       1.7395595
    27   6 C       43   6 C                                       1.3923459
    34   6 C       43   6 C                                       1.4282472
    42  16 S       43   6 C                                       1.7437670
    44   6 C       45   6 C                                       1.4099197
    45   6 C       46   6 C                                       1.4464895
    46   6 C       47   7 N                                       1.3344190
    47   7 N       48  16 S                                       1.6059074
    45   6 C       49   7 N                                       1.3333826
    48  16 S       49   7 N                                       1.6021920
    46   6 C       50   6 C                                       1.4163630
    50   6 C       51   6 C                                       1.4038365
    51   6 C       52   6 C                                       1.4187449
    52   6 C       53   6 C                                       1.3597144
    54   6 C       55   8 O                                       1.2061202
    54   6 C       56   8 O                                       1.3397166
    56   8 O       57   6 C                                       1.4271114
    57   6 C       58   6 C                                       1.5219196
    53   6 C       59  16 S                                       1.7406726
    44   6 C       60   6 C                                       1.3833608
    51   6 C       60   6 C                                       1.4271824
    59  16 S       60   6 C                                       1.7451322
    50   6 C       61   6 C                                       1.4347405
    61   6 C       62   6 C                                       1.3670630
    62   6 C       63   6 C                                       1.4145250
    63   6 C       64   6 C                                       1.4124726
    65   6 C       66   6 C                                       1.3694365
    66   6 C       67   6 C                                       1.4068964
    67   6 C       68   6 C                                       1.3617998
    68   6 C       69   6 C                                       1.4896136
    69   6 C       70   6 C                                       1.5301870
    65   6 C       71  16 S                                       1.7407944
    68   6 C       71  16 S                                       1.7322597
    64   6 C       72   6 C                                       1.3911955
    72   6 C       73   6 C                                       1.4181437
    73   6 C       74   6 C                                       1.4086487
    75   6 C       76   6 C                                       1.3656320
    76   6 C       77   6 C                                       1.4096241
    77   6 C       78   6 C                                       1.3604046
    79   6 C       80   6 C                                       1.5284643
    75   6 C       81  16 S                                       1.7422453
    78   6 C       81  16 S                                       1.7337594
    63   6 C       82   6 C                                       1.4153672
    74   6 C       82   6 C                                       1.3888268
    61   6 C       83  16 S                                       1.7576853 (max)
    82   6 C       83  16 S                                       1.7387222
    73   6 C       84   6 C                                       1.4149363
    84   6 C       85   6 C                                       1.3647643
    72   6 C       86  16 S                                       1.7432147
    85   6 C       86  16 S                                       1.7485824
    85   6 C       87   6 C                                       1.4281583
    87   6 C       88   6 C                                       1.3648936
    88   6 C       89   6 C                                       1.4146086
    89   6 C       90   6 C                                       1.4078568
    91   6 C       92   6 C                                       1.3664135
    92   6 C       93   6 C                                       1.4097807
    93   6 C       94   6 C                                       1.3610442
    95   6 C       96   6 C                                       1.5294568
    91   6 C       97  16 S                                       1.7412855
    94   6 C       97  16 S                                       1.7324591
    90   6 C       98   6 C                                       1.3888666
    98   6 C       99   6 C                                       1.4151501
    99   6 C      100   6 C                                       1.4121661
   101   6 C      102   6 C                                       1.3685662
   102   6 C      103   6 C                                       1.4077580
   103   6 C      104   6 C                                       1.3614825
   105   6 C      106   6 C                                       1.5299929
   101   6 C      107  16 S                                       1.7417082
   104   6 C      107  16 S                                       1.7324450
    89   6 C      108   6 C                                       1.4171950
   100   6 C      108   6 C                                       1.3913048
    87   6 C      109  16 S                                       1.7482123
   108   6 C      109  16 S                                       1.7444450
    99   6 C      110   6 C                                       1.4150030
   110   6 C      111   6 C                                       1.3667297
    98   6 C      112  16 S                                       1.7394060
   111   6 C      112  16 S                                       1.7501390
   113   6 C      114   6 C                                       1.4197070
   114   6 C      115   6 C                                       1.4475001
   115   6 C      116   7 N                                       1.3381132
   116   7 N      117  16 S                                       1.6002945
   114   6 C      118   7 N                                       1.3340705
   117  16 S      118   7 N                                       1.6068789
   115   6 C      119   6 C                                       1.3936277
   119   6 C      120   6 C                                       1.3823170
   120   6 C      121   6 C                                       1.4245680
   121   6 C      122   6 C                                       1.3560747
   123   6 C      124   8 O                                       1.2061117
   123   6 C      125   8 O                                       1.3379413
   125   8 O      126   6 C                                       1.4263040
   126   6 C      127   6 C                                       1.5218544
   122   6 C      128  16 S                                       1.7428385
   113   6 C      129   6 C                                       1.3919594
   120   6 C      129   6 C                                       1.4308256
   128  16 S      129   6 C                                       1.7434960
     1   6 C      130   1 H                                       1.0725193 (min)
     2   6 C      131   1 H                                       1.0743009
     6   6 C      132   1 H                                       1.0755256
     7   6 C      133   1 H                                       1.0759675
     9   6 C      134   1 H                                       1.0921104
     9   6 C      135   1 H                                       1.0936486
    10   6 C      136   1 H                                       1.0876304
    10   6 C      137   1 H                                       1.0873335
    10   6 C      138   1 H                                       1.0876012
    16   6 C      139   1 H                                       1.0749178
    17   6 C      140   1 H                                       1.0757627
    19   6 C      141   1 H                                       1.0929102
    19   6 C      142   1 H                                       1.0921753
    20   6 C      143   1 H                                       1.0871828
    20   6 C      144   1 H                                       1.0875469
    20   6 C      145   1 H                                       1.0876284
    24   6 C      146   1 H                                       1.0728539
    35   6 C      147   1 H                                       1.0740402
    40   6 C      148   1 H                                       1.0959401
    40   6 C      149   1 H                                       1.0963272
    41   6 C      150   1 H                                       1.0861101
    41   6 C      151   1 H                                       1.0867952
    41   6 C      152   1 H                                       1.0866266
    52   6 C      153   1 H                                       1.0737875
    57   6 C      154   1 H                                       1.0947144
    57   6 C      155   1 H                                       1.0934825
    58   6 C      156   1 H                                       1.0873642
    58   6 C      157   1 H                                       1.0876152
    58   6 C      158   1 H                                       1.0862729
    62   6 C      159   1 H                                       1.0733571
    66   6 C      160   1 H                                       1.0751424
    67   6 C      161   1 H                                       1.0758539
    69   6 C      162   1 H                                       1.0921392
    69   6 C      163   1 H                                       1.0926859
    70   6 C      164   1 H                                       1.0876642
    70   6 C      165   1 H                                       1.0874999
    70   6 C      166   1 H                                       1.0871296
    76   6 C      167   1 H                                       1.0754233
    77   6 C      168   1 H                                       1.0759440
    79   6 C      169   1 H                                       1.0939110
    79   6 C      170   1 H                                       1.0921721
    80   6 C      171   1 H                                       1.0876578
    80   6 C      172   1 H                                       1.0871322
    80   6 C      173   1 H                                       1.0876884
    84   6 C      174   1 H                                       1.0733858
    88   6 C      175   1 H                                       1.0740067
    92   6 C      176   1 H                                       1.0757537
    93   6 C      177   1 H                                       1.0760300
    95   6 C      178   1 H                                       1.0922262
    95   6 C      179   1 H                                       1.0938830
    96   6 C      180   1 H                                       1.0876196
    96   6 C      181   1 H                                       1.0877129
    96   6 C      182   1 H                                       1.0878828
   102   6 C      183   1 H                                       1.0749789
   103   6 C      184   1 H                                       1.0758523
   105   6 C      185   1 H                                       1.0921154
   105   6 C      186   1 H                                       1.0928880
   106   6 C      187   1 H                                       1.0871465
   106   6 C      188   1 H                                       1.0876825
   106   6 C      189   1 H                                       1.0875291
   110   6 C      190   1 H                                       1.0729693
   119   6 C      191   1 H                                       1.0768301
   121   6 C      192   1 H                                       1.0749232
   126   6 C      193   1 H                                       1.0948733
   126   6 C      194   1 H                                       1.0927756
   127   6 C      195   1 H                                       1.0874839
   127   6 C      196   1 H                                       1.0872730
   127   6 C      197   1 H                                       1.0861835

 * 6 distinct bonds (by element types)

   Z      Z             #   av. dist./Å        max./Å        min./Å
   1 H    6 C          68     1.0846779     1.0963272     1.0725193
   6 C    6 C          85     1.4129450     1.5301870     1.3478118
   6 C    7 N           6     1.3348396     1.3381132     1.3333826
   6 C    8 O           9     1.3235560     1.4271114     1.2061117
   6 C   16 S          30     1.7412255     1.7576853     1.7294681
   7 N   16 S           6     1.6035873     1.6068789     1.5997613


optimized geometry written to: xtbopt.mol


           -------------------------------------------------
          | TOTAL ENERGY             -347.282017158732 Eh   |
          | GRADIENT NORM               0.000184616412 Eh/α |
          | HOMO-LUMO GAP               0.777163303062 eV   |
           -------------------------------------------------

------------------------------------------------------------------------
 * finished run on 2022/02/28 at 17:54:14.554     
------------------------------------------------------------------------
 total:
 * wall-time:     0 d,  0 h,  1 min, 56.419 sec
 *  cpu-time:     0 d,  0 h, 15 min, 31.133 sec
 * ratio c/w:     7.998 speedup
 SCF:
 * wall-time:     0 d,  0 h,  0 min,  0.820 sec
 *  cpu-time:     0 d,  0 h,  0 min,  6.531 sec
 * ratio c/w:     7.965 speedup
 ANC optimizer:
 * wall-time:     0 d,  0 h,  1 min, 55.466 sec
 *  cpu-time:     0 d,  0 h, 15 min, 23.665 sec
 * ratio c/w:     7.999 speedup

