      -----------------------------------------------------------      
     |                   =====================                   |     
     |                           x T B                           |     
     |                   =====================                   |     
     |                         S. Grimme                         |     
     |          Mulliken Center for Theoretical Chemistry        |     
     |                    University of Bonn                     |     
      -----------------------------------------------------------      

   * xtb version 6.4.1 (unknown) compiled by 'oda6@login1.crc.pitt.edu' on 2021-06-25

   xtb is free software: you can redistribute it and/or modify it under
   the terms of the GNU Lesser General Public License as published by
   the Free Software Foundation, either version 3 of the License, or
   (at your option) any later version.
   
   xtb is distributed in the hope that it will be useful,
   but WITHOUT ANY WARRANTY; without even the implied warranty of
   MERCHANTABILITY or FITNESS FOR A PARTICULAR PURPOSE.  See the
   GNU Lesser General Public License for more details.
   
   Cite this work as:
   * C. Bannwarth, E. Caldeweyher, S. Ehlert, A. Hansen, P. Pracht,
     J. Seibert, S. Spicher, S. Grimme, WIREs Comput. Mol. Sci., 2020, 11,
     e01493. DOI: 10.1002/wcms.1493
   
   for GFN2-xTB:
   * C. Bannwarth, S. Ehlert and S. Grimme., J. Chem. Theory Comput., 2019,
     15, 1652-1671. DOI: 10.1021/acs.jctc.8b01176
   for GFN1-xTB:
   * S. Grimme, C. Bannwarth, P. Shushkov, J. Chem. Theory Comput., 2017,
     13, 1989-2009. DOI: 10.1021/acs.jctc.7b00118
   for GFN0-xTB:
   * P. Pracht, E. Caldeweyher, S. Ehlert, S. Grimme, ChemRxiv, 2019, preprint.
     DOI: 10.26434/chemrxiv.8326202.v1
   for GFN-FF:
   * S. Spicher and S. Grimme, Angew. Chem. Int. Ed., 2020, 59, 15665-15673.
     DOI: 10.1002/anie.202004239
   
   for DFT-D4:
   * E. Caldeweyher, C. Bannwarth and S. Grimme, J. Chem. Phys., 2017,
     147, 034112. DOI: 10.1063/1.4993215
   * E. Caldeweyher, S. Ehlert, A. Hansen, H. Neugebauer, S. Spicher,
     C. Bannwarth and S. Grimme, J. Chem. Phys., 2019, 150, 154122.
     DOI: 10.1063/1.5090222
   * E. Caldeweyher, J.-M. Mewes, S. Ehlert and S. Grimme, Phys. Chem. Chem. Phys.
     2020, 22, 8499-8512. DOI: 10.1039/D0CP00502A
   
   for sTDA-xTB:
   * S. Grimme and C. Bannwarth, J. Chem. Phys., 2016, 145, 054103.
     DOI: 10.1063/1.4959605
   
   in the mass-spec context:
   * V. Asgeirsson, C. Bauer and S. Grimme, Chem. Sci., 2017, 8, 4879.
     DOI: 10.1039/c7sc00601b
   * J. Koopman and S. Grimme, ACS Omega 2019, 4, 12, 15120-15133.
     DOI: 10.1021/acsomega.9b02011
   
   for metadynamics refer to:
   * S. Grimme, J. Chem. Theory Comput., 2019, 155, 2847-2862
     DOI: 10.1021/acs.jctc.9b00143
   
   for SPH calculations refer to:
   * S. Spicher and S. Grimme, J. Chem. Theory Comput., 2021, 17, 1701-1714
     DOI: 10.1021/acs.jctc.0c01306
   
   with help from (in alphabetical order)
   P. Atkinson, C. Bannwarth, F. Bohle, G. Brandenburg, E. Caldeweyher
   M. Checinski, S. Dohm, S. Ehlert, S. Ehrlich, I. Gerasimov, J. Koopman
   C. Lavigne, S. Lehtola, F. März, M. Müller, F. Musil, H. Neugebauer
   J. Pisarek, C. Plett, P. Pracht, J. Seibert, P. Shushkov, S. Spicher
   M. Stahn, M. Steiner, T. Strunk, J. Stückrath, T. Rose, and J. Unsleber
   
 * started run on 2022/03/01 at 20:31:48.436     

           -------------------------------------------------
          |                Calculation Setup                |
           -------------------------------------------------

          program call               : /ihome/ghutchison/oda6/xtb/xtb-641/bin/xtb ../../FF_optimized/234_5_111011.mol -opt
          hostname                   : smp-n90
          coordinate file            : ../../FF_optimized/234_5_111011.mol
          omp threads                :                     8
          number of atoms            :                   162
          number of electrons        :                   454
          charge                     :                     0
          spin                       :                   0.0
          first test random number   :      0.13416423294878

   ID    Z sym.   atoms
    1    6 C      1-12, 14, 15, 17-28, 30, 31, 33-44, 46, 47, 49-52, 54-57,
                  59-70, 72, 73, 75-86, 88, 89
    2   16 S      13, 16, 29, 32, 45, 48, 71, 74, 87, 90
    3    7 N      53, 58
    4    1 H      91-162
########################################################################
[WARNING] Please study the warnings concerning your input carefully
-1- prog_main_parseArguments: the use of '-opt' is discouraged, please use '--opt' next time
########################################################################

           -------------------------------------------------
          |                 G F N 2 - x T B                 |
           -------------------------------------------------

        Reference                      10.1021/acs.jctc.8b01176
      * Hamiltonian:
        H0-scaling (s, p, d)           1.850000    2.230000    2.230000
        zeta-weighting                 0.500000
      * Dispersion:
        s8                             2.700000
        a1                             0.520000
        a2                             5.000000
        s9                             5.000000
      * Repulsion:
        kExp                           1.500000    1.000000
        rExp                           1.000000
      * Coulomb:
        alpha                          2.000000
        third order                    shell-resolved
        anisotropic                    true
        a3                             3.000000
        a5                             4.000000
        cn-shift                       1.200000
        cn-exp                         4.000000
        max-rad                        5.000000


          ...................................................
          :                      SETUP                      :
          :.................................................:
          :  # basis functions                 492          :
          :  # atomic orbitals                 482          :
          :  # shells                          262          :
          :  # electrons                       454          :
          :  max. iterations                   250          :
          :  Hamiltonian                  GFN2-xTB          :
          :  restarted?                      false          :
          :  GBSA solvation                  false          :
          :  PC potential                    false          :
          :  electronic temp.          300.0000000     K    :
          :  accuracy                    1.0000000          :
          :  -> integral cutoff          0.2500000E+02      :
          :  -> integral neglect         0.1000000E-07      :
          :  -> SCF convergence          0.1000000E-05 Eh   :
          :  -> wf. convergence          0.1000000E-03 e    :
          :  Broyden damping             0.4000000          :
          ...................................................

 iter      E             dE          RMSdq      gap      omega  full diag
   1   -245.5448386 -0.245545E+03  0.370E+00    1.58       0.0  T
   2   -245.7257259 -0.180887E+00  0.213E+00    1.57       1.0  T
   3   -245.6246642  0.101062E+00  0.107E+00    1.69       1.0  T
   4   -245.7515995 -0.126935E+00  0.483E-01    1.55       1.0  T
   5   -245.7708231 -0.192236E-01  0.132E-01    1.56       1.0  T
   6   -245.7711692 -0.346041E-03  0.671E-02    1.56       1.0  T
   7   -245.7716091 -0.439927E-03  0.281E-02    1.57       1.0  T
   8   -245.7717085 -0.994243E-04  0.122E-02    1.57       1.0  T
   9   -245.7717139 -0.534408E-05  0.607E-03    1.57       1.3  T
  10   -245.7717165 -0.260194E-05  0.286E-03    1.56       2.7  T
  11   -245.7717173 -0.798152E-06  0.119E-03    1.56       6.6  T
  12   -245.7717173 -0.678729E-07  0.664E-04    1.56      11.8  T
  13   -245.7717173 -0.193956E-07  0.316E-04    1.56      24.8  T

   *** convergence criteria satisfied after 13 iterations ***

         #    Occupation            Energy/Eh            Energy/eV
      -------------------------------------------------------------
         1        2.0000           -0.7339781             -19.9726
       ...           ...                  ...                  ...
       221        2.0000           -0.3735518             -10.1649
       222        2.0000           -0.3646553              -9.9228
       223        2.0000           -0.3575390              -9.7291
       224        2.0000           -0.3540039              -9.6329
       225        2.0000           -0.3530051              -9.6058
       226        2.0000           -0.3484326              -9.4813
       227        2.0000           -0.3456162              -9.4047 (HOMO)
       228                         -0.2881080              -7.8398 (LUMO)
       229                         -0.2789201              -7.5898
       230                         -0.2723932              -7.4122
       231                         -0.2525208              -6.8714
       232                         -0.2517312              -6.8500
       ...                                ...                  ...
       482                          0.8018271              21.8188
      -------------------------------------------------------------
                  HL-Gap            0.0575082 Eh            1.5649 eV
             Fermi-level           -0.3168621 Eh           -8.6223 eV

 SCC (total)                   0 d,  0 h,  0 min,  0.438 sec
 SCC setup                      ...        0 min,  0.001 sec (  0.334%)
 Dispersion                     ...        0 min,  0.007 sec (  1.527%)
 classical contributions        ...        0 min,  0.000 sec (  0.058%)
 integral evaluation            ...        0 min,  0.025 sec (  5.603%)
 iterations                     ...        0 min,  0.323 sec ( 73.773%)
 molecular gradient             ...        0 min,  0.080 sec ( 18.229%)
 printout                       ...        0 min,  0.002 sec (  0.451%)

         :::::::::::::::::::::::::::::::::::::::::::::::::::::
         ::                     SUMMARY                     ::
         :::::::::::::::::::::::::::::::::::::::::::::::::::::
         :: total energy            -242.159689142842 Eh    ::
         :: gradient norm              0.338513116265 Eh/a0 ::
         :: HOMO-LUMO gap              1.564878865053 eV    ::
         ::.................................................::
         :: SCC energy              -245.771717339733 Eh    ::
         :: -> isotropic ES            0.031833045829 Eh    ::
         :: -> anisotropic ES          0.033893378105 Eh    ::
         :: -> anisotropic XC          0.115609573167 Eh    ::
         :: -> dispersion             -0.242939295685 Eh    ::
         :: repulsion energy           3.608868096214 Eh    ::
         :: add. restraining           0.000000000000 Eh    ::
         :: total charge               0.000000000000 e     ::
         :::::::::::::::::::::::::::::::::::::::::::::::::::::

      ----------------------------------------------------------- 
     |                   =====================                   |
     |                        A N C O P T                        |
     |                   =====================                   |
     |               Approximate Normal Coordinate               |
     |                Rational Function Optimizer                |
      ----------------------------------------------------------- 

          ...................................................
          :                      SETUP                      :
          :.................................................:
          :   optimization level            normal          :
          :   max. optcycles                   486          :
          :   ANC micro-cycles                  20          :
          :   degrees of freedom               480          :
          :.................................................:
          :   RF solver                   davidson          :
          :   write xtbopt.log                true          :
          :   linear?                        false          :
          :   energy convergence         0.5000000E-05 Eh   :
          :   grad. convergence          0.1000000E-02 Eh/α :
          :   maximium RF displ.         1.0000000          :
          :   Hlow (freq-cutoff)         0.1000000E-01      :
          :   Hmax (freq-cutoff)         5.0000000          :
          :   S6 in model hess.         20.0000000          :
          ...................................................

generating ANC from model Hessian ...
Using Lindh-Hessian (1995)
 Shifting diagonal of input Hessian by   9.997992703369868E-003
 Lowest  eigenvalues of input Hessian
    0.000000    0.000000    0.000000    0.000000    0.000000    0.000000
    0.010000    0.010013    0.010031    0.010053    0.010063    0.010096
    0.010107    0.010154    0.010181    0.010236    0.010305    0.010327
 Highest eigenvalues
    1.979279    2.075032    2.078899    2.081306    2.081928    2.085533
 

........................................................................
.............................. CYCLE    1 ..............................
........................................................................
   1   -245.7717173 -0.245772E+03  0.139E-04    1.56       0.0  T
   2   -245.7717173  0.228113E-09  0.126E-04    1.56      62.2  T
   3   -245.7717173 -0.199316E-08  0.574E-05    1.56     136.9  T
     SCC iter.                  ...        0 min,  0.081 sec
     gradient                   ...        0 min,  0.079 sec
 * total energy  :  -242.1596891 Eh     change       -0.7095650E-08 Eh
   gradient norm :     0.3385127 Eh/α   predicted     0.0000000E+00 (-100.00%)
   displ. norm   :     0.3962409 α      lambda       -0.9950174E-01
   maximum displ.:     0.0988483 α      in ANC's #315, #433, #319, ...

........................................................................
.............................. CYCLE    2 ..............................
........................................................................
   1   -245.9123689 -0.245912E+03  0.261E-01    1.60       0.0  T
   2   -245.9132703 -0.901473E-03  0.150E-01    1.60       1.0  T
   3   -245.9130079  0.262407E-03  0.748E-02    1.60       1.0  T
   4   -245.9134688 -0.460827E-03  0.335E-02    1.60       1.0  T
   5   -245.9135669 -0.981332E-04  0.122E-02    1.60       1.0  T
   6   -245.9135749 -0.797230E-05  0.533E-03    1.60       1.5  T
   7   -245.9135775 -0.267249E-05  0.175E-03    1.60       4.5  T
   8   -245.9135778 -0.226610E-06  0.105E-03    1.60       7.5  T
   9   -245.9135778 -0.723729E-07  0.389E-04    1.60      20.2  T
  10   -245.9135778 -0.343829E-08  0.185E-04    1.60      42.4  T
     SCC iter.                  ...        0 min,  0.262 sec
     gradient                   ...        0 min,  0.080 sec
 * total energy  :  -242.2335772 Eh     change       -0.7388801E-01 Eh
   gradient norm :     0.1774274 Eh/α   predicted    -0.5757433E-01 ( -22.08%)
   displ. norm   :     0.4027111 α      lambda       -0.5027729E-01
   maximum displ.:     0.0798849 α      in ANC's #129, #433, #434, ...

........................................................................
.............................. CYCLE    3 ..............................
........................................................................
   1   -246.0210431 -0.246021E+03  0.255E-01    1.64       0.0  T
   2   -246.0221383 -0.109522E-02  0.142E-01    1.64       1.0  T
   3   -246.0219887  0.149660E-03  0.705E-02    1.64       1.0  T
   4   -246.0222968 -0.308138E-03  0.354E-02    1.64       1.0  T
   5   -246.0224165 -0.119702E-03  0.114E-02    1.64       1.0  T
   6   -246.0224209 -0.436375E-05  0.540E-03    1.64       1.5  T
   7   -246.0224240 -0.308293E-05  0.145E-03    1.64       5.4  T
   8   -246.0224241 -0.943143E-07  0.889E-04    1.64       8.8  T
   9   -246.0224241 -0.444776E-07  0.436E-04    1.64      18.0  T
     SCC iter.                  ...        0 min,  0.231 sec
     gradient                   ...        0 min,  0.079 sec
 * total energy  :  -242.2626884 Eh     change       -0.2911122E-01 Eh
   gradient norm :     0.0444530 Eh/α   predicted    -0.2921554E-01 (   0.36%)
   displ. norm   :     0.3654091 α      lambda       -0.6234439E-02
   maximum displ.:     0.0953737 α      in ANC's #90, #59, #80, ...

........................................................................
.............................. CYCLE    4 ..............................
........................................................................
   1   -246.0401117 -0.246040E+03  0.873E-02    1.64       0.0  T
   2   -246.0401838 -0.720696E-04  0.485E-02    1.64       1.0  T
   3   -246.0401554  0.283979E-04  0.204E-02    1.64       1.0  T
   4   -246.0401880 -0.326176E-04  0.103E-02    1.64       1.0  T
   5   -246.0401988 -0.107331E-04  0.330E-03    1.64       2.4  T
   6   -246.0401990 -0.261896E-06  0.151E-03    1.64       5.2  T
   7   -246.0401993 -0.229245E-06  0.563E-04    1.64      14.0  T
   8   -246.0401993 -0.104909E-07  0.331E-04    1.64      23.7  T
     SCC iter.                  ...        0 min,  0.202 sec
     gradient                   ...        0 min,  0.080 sec
 * total energy  :  -242.2671273 Eh     change       -0.4438895E-02 Eh
   gradient norm :     0.0216101 Eh/α   predicted    -0.3533454E-02 ( -20.40%)
   displ. norm   :     0.4104444 α      lambda       -0.2993295E-02
   maximum displ.:     0.1096813 α      in ANC's #59, #39, #40, ...

........................................................................
.............................. CYCLE    5 ..............................
........................................................................
   1   -246.0522283 -0.246052E+03  0.667E-02    1.64       0.0  T
   2   -246.0522495 -0.212378E-04  0.373E-02    1.64       1.0  T
   3   -246.0522283  0.212286E-04  0.149E-02    1.64       1.0  T
   4   -246.0522529 -0.246335E-04  0.655E-03    1.64       1.2  T
   5   -246.0522560 -0.312979E-05  0.249E-03    1.64       3.2  T
   6   -246.0522563 -0.233029E-06  0.112E-03    1.64       7.0  T
   7   -246.0522564 -0.111220E-06  0.534E-04    1.64      14.7  T
   8   -246.0522564 -0.833367E-08  0.322E-04    1.64      24.4  T
     SCC iter.                  ...        0 min,  0.203 sec
     gradient                   ...        0 min,  0.080 sec
 * total energy  :  -242.2691420 Eh     change       -0.2014764E-02 Eh
   gradient norm :     0.0159944 Eh/α   predicted    -0.1748892E-02 ( -13.20%)
   displ. norm   :     0.3442625 α      lambda       -0.1212516E-02
   maximum displ.:     0.1026773 α      in ANC's #39, #40, #59, ...

........................................................................
.............................. CYCLE    6 ..............................
........................................................................
   1   -246.0616049 -0.246062E+03  0.418E-02    1.64       0.0  T
   2   -246.0616088 -0.393087E-05  0.235E-02    1.64       1.0  T
   3   -246.0615955  0.133178E-04  0.112E-02    1.64       1.0  T
   4   -246.0616115 -0.159943E-04  0.318E-03    1.64       2.5  T
   5   -246.0616117 -0.167425E-06  0.151E-03    1.64       5.2  T
   6   -246.0616119 -0.224429E-06  0.559E-04    1.64      14.1  T
   7   -246.0616119 -0.187269E-07  0.334E-04    1.64      23.5  T
     SCC iter.                  ...        0 min,  0.173 sec
     gradient                   ...        0 min,  0.080 sec
 * total energy  :  -242.2700410 Eh     change       -0.8989566E-03 Eh
   gradient norm :     0.0135021 Eh/α   predicted    -0.6781110E-03 ( -24.57%)
   displ. norm   :     0.3874350 α      lambda       -0.9356447E-03
   maximum displ.:     0.1103675 α      in ANC's #39, #40, #14, ...

........................................................................
.............................. CYCLE    7 ..............................
........................................................................
   1   -246.0692868 -0.246069E+03  0.408E-02    1.64       0.0  T
   2   -246.0692928 -0.601166E-05  0.232E-02    1.64       1.0  T
   3   -246.0692824  0.104484E-04  0.999E-03    1.64       1.0  T
   4   -246.0692945 -0.121430E-04  0.343E-03    1.64       2.3  T
   5   -246.0692954 -0.905402E-06  0.138E-03    1.65       5.7  T
   6   -246.0692955 -0.107197E-06  0.602E-04    1.64      13.1  T
   7   -246.0692956 -0.281441E-07  0.286E-04    1.64      27.5  T
     SCC iter.                  ...        0 min,  0.171 sec
     gradient                   ...        0 min,  0.080 sec
 * total energy  :  -242.2707312 Eh     change       -0.6902144E-03 Eh
   gradient norm :     0.0108891 Eh/α   predicted    -0.5380459E-03 ( -22.05%)
   displ. norm   :     0.3763084 α      lambda       -0.6270219E-03
   maximum displ.:     0.1154179 α      in ANC's #14, #39, #27, ...

........................................................................
.............................. CYCLE    8 ..............................
........................................................................
   1   -246.0738261 -0.246074E+03  0.360E-02    1.65       0.0  T
   2   -246.0738317 -0.568350E-05  0.208E-02    1.65       1.0  T
   3   -246.0738220  0.973435E-05  0.905E-03    1.65       1.0  T
   4   -246.0738331 -0.110584E-04  0.324E-03    1.65       2.4  T
   5   -246.0738341 -0.108239E-05  0.114E-03    1.65       6.9  T
   6   -246.0738342 -0.586894E-07  0.504E-04    1.65      15.6  T
   7   -246.0738342 -0.209765E-07  0.221E-04    1.65      35.6  T
     SCC iter.                  ...        0 min,  0.171 sec
     gradient                   ...        0 min,  0.079 sec
 * total energy  :  -242.2711886 Eh     change       -0.4573791E-03 Eh
   gradient norm :     0.0066046 Eh/α   predicted    -0.3579265E-03 ( -21.74%)
   displ. norm   :     0.3570617 α      lambda       -0.4108058E-03
   maximum displ.:     0.1277083 α      in ANC's #14, #13, #34, ...

........................................................................
.............................. CYCLE    9 ..............................
........................................................................
   1   -246.0754990 -0.246075E+03  0.324E-02    1.66       0.0  T
   2   -246.0755020 -0.307083E-05  0.189E-02    1.66       1.0  T
   3   -246.0754925  0.954023E-05  0.854E-03    1.66       1.0  T
   4   -246.0755035 -0.109779E-04  0.230E-03    1.66       3.4  T
   5   -246.0755039 -0.405284E-06  0.917E-04    1.66       8.6  T
   6   -246.0755039 -0.448267E-07  0.399E-04    1.66      19.7  T
     SCC iter.                  ...        0 min,  0.155 sec
     gradient                   ...        0 min,  0.079 sec
 * total energy  :  -242.2714979 Eh     change       -0.3093466E-03 Eh
   gradient norm :     0.0042042 Eh/α   predicted    -0.2315932E-03 ( -25.13%)
   displ. norm   :     0.3853350 α      lambda       -0.3563475E-03
   maximum displ.:     0.1466430 α      in ANC's #14, #21, #13, ...

........................................................................
.............................. CYCLE   10 ..............................
........................................................................
   1   -246.0756013 -0.246076E+03  0.337E-02    1.66       0.0  T
   2   -246.0756030 -0.169838E-05  0.196E-02    1.66       1.0  T
   3   -246.0755930  0.100319E-04  0.873E-03    1.66       1.0  T
   4   -246.0756044 -0.114255E-04  0.178E-03    1.66       4.4  T
   5   -246.0756045 -0.112363E-06  0.837E-04    1.66       9.4  T
   6   -246.0756046 -0.606852E-07  0.334E-04    1.66      23.5  T
     SCC iter.                  ...        0 min,  0.157 sec
     gradient                   ...        0 min,  0.079 sec
 * total energy  :  -242.2717740 Eh     change       -0.2760540E-03 Eh
   gradient norm :     0.0064835 Eh/α   predicted    -0.2046725E-03 ( -25.86%)
   displ. norm   :     0.4613560 α      lambda       -0.3715202E-03
   maximum displ.:     0.1768209 α      in ANC's #14, #21, #13, ...

........................................................................
.............................. CYCLE   11 ..............................
........................................................................
   1   -246.0732043 -0.246073E+03  0.384E-02    1.66       0.0  T
   2   -246.0732066 -0.230268E-05  0.222E-02    1.66       1.0  T
   3   -246.0731954  0.112280E-04  0.941E-03    1.66       1.0  T
   4   -246.0732081 -0.127541E-04  0.189E-03    1.66       4.2  T
   5   -246.0732083 -0.153809E-06  0.833E-04    1.66       9.4  T
   6   -246.0732083 -0.522458E-07  0.377E-04    1.66      20.8  T
     SCC iter.                  ...        0 min,  0.163 sec
     gradient                   ...        0 min,  0.080 sec
 * total energy  :  -242.2720503 Eh     change       -0.2763294E-03 Eh
   gradient norm :     0.0076957 Eh/α   predicted    -0.2253057E-03 ( -18.46%)
   displ. norm   :     0.5013045 α      lambda       -0.4190500E-03
   maximum displ.:     0.1885303 α      in ANC's #14, #21, #2, ...

........................................................................
.............................. CYCLE   12 ..............................
........................................................................
   1   -246.0717687 -0.246072E+03  0.400E-02    1.65       0.0  T
   2   -246.0717708 -0.208426E-05  0.233E-02    1.65       1.0  T
   3   -246.0717560  0.147928E-04  0.105E-02    1.65       1.0  T
   4   -246.0717728 -0.167942E-04  0.195E-03    1.65       4.0  T
   5   -246.0717730 -0.202727E-06  0.854E-04    1.65       9.2  T
   6   -246.0717730 -0.563311E-07  0.361E-04    1.65      21.8  T
     SCC iter.                  ...        0 min,  0.152 sec
     gradient                   ...        0 min,  0.079 sec
 * total energy  :  -242.2723091 Eh     change       -0.2588038E-03 Eh
   gradient norm :     0.0103912 Eh/α   predicted    -0.2621826E-03 (   1.31%)
   displ. norm   :     0.3972506 α      lambda       -0.2964623E-03
   maximum displ.:     0.1504896 α      in ANC's #14, #21, #2, ...

........................................................................
.............................. CYCLE   13 ..............................
........................................................................
   1   -246.0700305 -0.246070E+03  0.279E-02    1.65       0.0  T
   2   -246.0700323 -0.175990E-05  0.162E-02    1.65       1.0  T
   3   -246.0700254  0.683081E-05  0.698E-03    1.65       1.1  T
   4   -246.0700331 -0.765104E-05  0.158E-03    1.65       5.0  T
   5   -246.0700333 -0.232644E-06  0.564E-04    1.65      13.9  T
   6   -246.0700333 -0.144218E-07  0.278E-04    1.65      28.2  T
     SCC iter.                  ...        0 min,  0.155 sec
     gradient                   ...        0 min,  0.080 sec
 * total energy  :  -242.2725292 Eh     change       -0.2201063E-03 Eh
   gradient norm :     0.0050242 Eh/α   predicted    -0.1716273E-03 ( -22.03%)
   displ. norm   :     0.3743866 α      lambda       -0.2363507E-03
   maximum displ.:     0.1357774 α      in ANC's #14, #2, #21, ...

........................................................................
.............................. CYCLE   14 ..............................
........................................................................
   1   -246.0709296 -0.246071E+03  0.244E-02    1.64       0.0  T
   2   -246.0709306 -0.904670E-06  0.142E-02    1.65       1.0  T
   3   -246.0709252  0.536077E-05  0.601E-03    1.64       1.3  T
   4   -246.0709312 -0.602979E-05  0.129E-03    1.65       6.1  T
   5   -246.0709313 -0.872565E-07  0.540E-04    1.65      14.6  T
   6   -246.0709313 -0.189791E-07  0.235E-04    1.65      33.4  T
     SCC iter.                  ...        0 min,  0.152 sec
     gradient                   ...        0 min,  0.080 sec
 * total energy  :  -242.2727093 Eh     change       -0.1801086E-03 Eh
   gradient norm :     0.0037235 Eh/α   predicted    -0.1347405E-03 ( -25.19%)
   displ. norm   :     0.3920552 α      lambda       -0.1957130E-03
   maximum displ.:     0.1464736 α      in ANC's #2, #14, #5, ...

........................................................................
.............................. CYCLE   15 ..............................
........................................................................
   1   -246.0717187 -0.246072E+03  0.231E-02    1.64       0.0  T
   2   -246.0717193 -0.575540E-06  0.133E-02    1.64       1.0  T
   3   -246.0717170  0.234929E-05  0.421E-03    1.64       1.9  T
   4   -246.0717196 -0.262960E-05  0.126E-03    1.64       6.2  T
   5   -246.0717197 -0.733017E-07  0.496E-04    1.64      15.9  T
   6   -246.0717197 -0.205592E-07  0.196E-04    1.64      40.1  T
     SCC iter.                  ...        0 min,  0.154 sec
     gradient                   ...        0 min,  0.080 sec
 * total energy  :  -242.2728649 Eh     change       -0.1556058E-03 Eh
   gradient norm :     0.0048184 Eh/α   predicted    -0.1129026E-03 ( -27.44%)
   displ. norm   :     0.4298200 α      lambda       -0.2023041E-03
   maximum displ.:     0.1689179 α      in ANC's #2, #5, #14, ...

........................................................................
.............................. CYCLE   16 ..............................
........................................................................
   1   -246.0731465 -0.246073E+03  0.225E-02    1.64       0.0  T
   2   -246.0731472 -0.675689E-06  0.128E-02    1.64       1.0  T
   3   -246.0731460  0.118303E-05  0.341E-03    1.64       2.3  T
   4   -246.0731473 -0.130240E-05  0.139E-03    1.64       5.6  T
   5   -246.0731475 -0.127761E-06  0.527E-04    1.64      14.9  T
   6   -246.0731475 -0.227529E-07  0.195E-04    1.64      40.2  T
     SCC iter.                  ...        0 min,  0.152 sec
     gradient                   ...        0 min,  0.080 sec
 * total energy  :  -242.2730344 Eh     change       -0.1694460E-03 Eh
   gradient norm :     0.0053888 Eh/α   predicted    -0.1198402E-03 ( -29.28%)
   displ. norm   :     0.5100867 α      lambda       -0.2511131E-03
   maximum displ.:     0.2072944 α      in ANC's #2, #5, #7, ...

........................................................................
.............................. CYCLE   17 ..............................
........................................................................
   1   -246.0744713 -0.246074E+03  0.250E-02    1.65       0.0  T
   2   -246.0744722 -0.962818E-06  0.141E-02    1.65       1.0  T
   3   -246.0744702  0.207042E-05  0.430E-03    1.65       1.8  T
   4   -246.0744724 -0.227933E-05  0.159E-03    1.65       4.9  T
   5   -246.0744726 -0.180650E-06  0.592E-04    1.65      13.3  T
   6   -246.0744727 -0.265238E-07  0.207E-04    1.65      37.9  T
     SCC iter.                  ...        0 min,  0.152 sec
     gradient                   ...        0 min,  0.079 sec
 * total energy  :  -242.2732505 Eh     change       -0.2161279E-03 Eh
   gradient norm :     0.0052236 Eh/α   predicted    -0.1582266E-03 ( -26.79%)
   displ. norm   :     0.5857491 α      lambda       -0.3038298E-03
   maximum displ.:     0.2438283 α      in ANC's #2, #5, #7, ...

........................................................................
.............................. CYCLE   18 ..............................
........................................................................
   1   -246.0753624 -0.246075E+03  0.295E-02    1.65       0.0  T
   2   -246.0753635 -0.110420E-05  0.169E-02    1.65       1.0  T
   3   -246.0753593  0.421794E-05  0.569E-03    1.65       1.4  T
   4   -246.0753640 -0.469603E-05  0.163E-03    1.65       4.8  T
   5   -246.0753641 -0.160613E-06  0.607E-04    1.65      13.0  T
   6   -246.0753642 -0.267761E-07  0.222E-04    1.65      35.3  T
     SCC iter.                  ...        0 min,  0.149 sec
     gradient                   ...        0 min,  0.079 sec
 * total energy  :  -242.2735123 Eh     change       -0.2618008E-03 Eh
   gradient norm :     0.0052485 Eh/α   predicted    -0.2040387E-03 ( -22.06%)
   displ. norm   :     0.6321400 α      lambda       -0.3255063E-03
   maximum displ.:     0.2681360 α      in ANC's #2, #5, #7, ...

........................................................................
.............................. CYCLE   19 ..............................
........................................................................
   1   -246.0751553 -0.246075E+03  0.343E-02    1.65       0.0  T
   2   -246.0751564 -0.107659E-05  0.198E-02    1.65       1.0  T
   3   -246.0751507  0.570571E-05  0.639E-03    1.65       1.2  T
   4   -246.0751570 -0.634959E-05  0.157E-03    1.65       5.0  T
   5   -246.0751571 -0.118073E-06  0.597E-04    1.65      13.2  T
   6   -246.0751572 -0.249758E-07  0.245E-04    1.65      32.0  T
     SCC iter.                  ...        0 min,  0.147 sec
     gradient                   ...        0 min,  0.080 sec
 * total energy  :  -242.2737917 Eh     change       -0.2793522E-03 Eh
   gradient norm :     0.0057339 Eh/α   predicted    -0.2277956E-03 ( -18.46%)
   displ. norm   :     0.6517234 α      lambda       -0.3207094E-03
   maximum displ.:     0.2812791 α      in ANC's #2, #5, #7, ...

........................................................................
.............................. CYCLE   20 ..............................
........................................................................
   1   -246.0745126 -0.246075E+03  0.377E-02    1.66       0.0  T
   2   -246.0745138 -0.113205E-05  0.218E-02    1.66       1.0  T
   3   -246.0745076  0.621699E-05  0.656E-03    1.66       1.2  T
   4   -246.0745145 -0.689839E-05  0.160E-03    1.66       4.9  T
   5   -246.0745146 -0.126827E-06  0.625E-04    1.66      12.6  T
   6   -246.0745146 -0.246936E-07  0.270E-04    1.66      29.1  T
     SCC iter.                  ...        0 min,  0.159 sec
     gradient                   ...        0 min,  0.080 sec
 * total energy  :  -242.2740690 Eh     change       -0.2773218E-03 Eh
   gradient norm :     0.0058817 Eh/α   predicted    -0.2284679E-03 ( -17.62%)
   displ. norm   :     0.6671689 α      lambda       -0.3203697E-03
   maximum displ.:     0.2928419 α      in ANC's #2, #5, #7, ...
 * RMSD in coord.:     0.5277230 α      energy gain  -0.1143798E+00 Eh

generating ANC from model Hessian ...
Using Lindh-Hessian (1995)
 Shifting diagonal of input Hessian by   9.998973356220910E-003
 Lowest  eigenvalues of input Hessian
    0.000000    0.000000    0.000000    0.000000    0.000000    0.000000
    0.010000    0.010016    0.010038    0.010061    0.010073    0.010106
    0.010119    0.010164    0.010184    0.010248    0.010319    0.010345
 Highest eigenvalues
    2.031063    2.064924    2.070939    2.078844    2.089635    2.092330
 

........................................................................
.............................. CYCLE   21 ..............................
........................................................................
   1   -246.0737492 -0.246074E+03  0.397E-02    1.66       0.0  T
   2   -246.0737505 -0.131888E-05  0.229E-02    1.66       1.0  T
   3   -246.0737435  0.706106E-05  0.693E-03    1.66       1.1  T
   4   -246.0737513 -0.783923E-05  0.168E-03    1.66       4.7  T
   5   -246.0737515 -0.149261E-06  0.676E-04    1.66      11.6  T
   6   -246.0737515 -0.285438E-07  0.296E-04    1.66      26.5  T
     SCC iter.                  ...        0 min,  0.155 sec
     gradient                   ...        0 min,  0.079 sec
 * total energy  :  -242.2743512 Eh     change       -0.2822226E-03 Eh
   gradient norm :     0.0054937 Eh/α   predicted     0.0000000E+00 (-100.00%)
   displ. norm   :     0.0706543 α      lambda       -0.8486606E-04
   maximum displ.:     0.0249013 α      in ANC's #2, #21, #8, ...

........................................................................
.............................. CYCLE   22 ..............................
........................................................................
   1   -246.0751978 -0.246075E+03  0.826E-03    1.66       0.0  T
   2   -246.0751980 -0.198677E-06  0.485E-03    1.66       1.6  T
   3   -246.0751972  0.743796E-06  0.239E-03    1.66       3.3  T
   4   -246.0751981 -0.860448E-06  0.569E-04    1.66      13.8  T
   5   -246.0751981 -0.179563E-07  0.245E-04    1.66      32.1  T
     SCC iter.                  ...        0 min,  0.130 sec
     gradient                   ...        0 min,  0.079 sec
 * total energy  :  -242.2744404 Eh     change       -0.8919139E-04 Eh
   gradient norm :     0.0028880 Eh/α   predicted    -0.5167433E-04 ( -42.06%)
   displ. norm   :     0.2722461 α      lambda       -0.2733331E-03
   maximum displ.:     0.0989499 α      in ANC's #2, #8, #21, ...

........................................................................
.............................. CYCLE   23 ..............................
........................................................................
   1   -246.0765336 -0.246077E+03  0.269E-02    1.66       0.0  T
   2   -246.0765355 -0.182828E-05  0.157E-02    1.66       1.0  T
   3   -246.0765287  0.675362E-05  0.709E-03    1.66       1.1  T
   4   -246.0765364 -0.769086E-05  0.175E-03    1.66       4.5  T
   5   -246.0765366 -0.201916E-06  0.698E-04    1.66      11.3  T
   6   -246.0765366 -0.190631E-07  0.374E-04    1.66      21.0  T
     SCC iter.                  ...        0 min,  0.154 sec
     gradient                   ...        0 min,  0.080 sec
 * total energy  :  -242.2746215 Eh     change       -0.1811112E-03 Eh
   gradient norm :     0.0039922 Eh/α   predicted    -0.1467972E-03 ( -18.95%)
   displ. norm   :     0.2170659 α      lambda       -0.1120402E-03
   maximum displ.:     0.0855175 α      in ANC's #2, #8, #5, ...

........................................................................
.............................. CYCLE   24 ..............................
........................................................................
   1   -246.0759054 -0.246076E+03  0.181E-02    1.65       0.0  T
   2   -246.0759059 -0.568318E-06  0.105E-02    1.66       1.0  T
   3   -246.0759043  0.164265E-05  0.343E-03    1.65       2.3  T
   4   -246.0759061 -0.181340E-05  0.106E-03    1.66       7.4  T
   5   -246.0759062 -0.941183E-07  0.392E-04    1.66      20.0  T
   6   -246.0759062 -0.624209E-08  0.188E-04    1.66      41.8  T
     SCC iter.                  ...        0 min,  0.153 sec
     gradient                   ...        0 min,  0.079 sec
 * total energy  :  -242.2747122 Eh     change       -0.9072186E-04 Eh
   gradient norm :     0.0053402 Eh/α   predicted    -0.5898865E-04 ( -34.98%)
   displ. norm   :     0.3351785 α      lambda       -0.1654451E-03
   maximum displ.:     0.1366943 α      in ANC's #2, #8, #5, ...

........................................................................
.............................. CYCLE   25 ..............................
........................................................................
   1   -246.0742814 -0.246074E+03  0.261E-02    1.66       0.0  T
   2   -246.0742821 -0.751438E-06  0.152E-02    1.66       1.0  T
   3   -246.0742804  0.170916E-05  0.358E-03    1.65       2.2  T
   4   -246.0742823 -0.191379E-05  0.121E-03    1.66       6.5  T
   5   -246.0742825 -0.113968E-06  0.472E-04    1.66      16.6  T
   6   -246.0742825 -0.135568E-07  0.191E-04    1.66      41.0  T
     SCC iter.                  ...        0 min,  0.156 sec
     gradient                   ...        0 min,  0.080 sec
 * total energy  :  -242.2748477 Eh     change       -0.1354745E-03 Eh
   gradient norm :     0.0047892 Eh/α   predicted    -0.9201659E-04 ( -32.08%)
   displ. norm   :     0.4279738 α      lambda       -0.2050070E-03
   maximum displ.:     0.1809462 α      in ANC's #2, #8, #5, ...

........................................................................
.............................. CYCLE   26 ..............................
........................................................................
   1   -246.0724937 -0.246072E+03  0.318E-02    1.66       0.0  T
   2   -246.0724946 -0.819843E-06  0.185E-02    1.66       1.0  T
   3   -246.0724919  0.264202E-05  0.443E-03    1.66       1.8  T
   4   -246.0724949 -0.301801E-05  0.122E-03    1.66       6.4  T
   5   -246.0724950 -0.647828E-07  0.521E-04    1.66      15.1  T
   6   -246.0724950 -0.200929E-07  0.211E-04    1.66      37.2  T
     SCC iter.                  ...        0 min,  0.153 sec
     gradient                   ...        0 min,  0.079 sec
 * total energy  :  -242.2750149 Eh     change       -0.1671632E-03 Eh
   gradient norm :     0.0032118 Eh/α   predicted    -0.1212819E-03 ( -27.45%)
   displ. norm   :     0.4637222 α      lambda       -0.2163017E-03
   maximum displ.:     0.2025752 α      in ANC's #2, #8, #5, ...

........................................................................
.............................. CYCLE   27 ..............................
........................................................................
   1   -246.0718602 -0.246072E+03  0.326E-02    1.66       0.0  T
   2   -246.0718611 -0.849479E-06  0.190E-02    1.66       1.0  T
   3   -246.0718574  0.361569E-05  0.506E-03    1.66       1.6  T
   4   -246.0718615 -0.408670E-05  0.125E-03    1.66       6.3  T
   5   -246.0718616 -0.614627E-07  0.543E-04    1.66      14.5  T
   6   -246.0718616 -0.226209E-07  0.236E-04    1.66      33.2  T
     SCC iter.                  ...        0 min,  0.156 sec
     gradient                   ...        0 min,  0.079 sec
 * total energy  :  -242.2751943 Eh     change       -0.1794544E-03 Eh
   gradient norm :     0.0037522 Eh/α   predicted    -0.1314227E-03 ( -26.77%)
   displ. norm   :     0.5052467 α      lambda       -0.2355038E-03
   maximum displ.:     0.2254931 α      in ANC's #2, #8, #5, ...

........................................................................
.............................. CYCLE   28 ..............................
........................................................................
   1   -246.0725997 -0.246073E+03  0.334E-02    1.66       0.0  T
   2   -246.0726007 -0.102347E-05  0.193E-02    1.66       1.0  T
   3   -246.0725975  0.322403E-05  0.481E-03    1.66       1.6  T
   4   -246.0726011 -0.361983E-05  0.150E-03    1.66       5.2  T
   5   -246.0726013 -0.134300E-06  0.608E-04    1.66      12.9  T
   6   -246.0726013 -0.309678E-07  0.239E-04    1.66      32.9  T
     SCC iter.                  ...        0 min,  0.153 sec
     gradient                   ...        0 min,  0.079 sec
 * total energy  :  -242.2753957 Eh     change       -0.2014125E-03 Eh
   gradient norm :     0.0054402 Eh/α   predicted    -0.1478787E-03 ( -26.58%)
   displ. norm   :     0.5763278 α      lambda       -0.2746529E-03
   maximum displ.:     0.2605284 α      in ANC's #2, #8, #5, ...

........................................................................
.............................. CYCLE   29 ..............................
........................................................................
   1   -246.0741617 -0.246074E+03  0.362E-02    1.65       0.0  T
   2   -246.0741630 -0.129608E-05  0.207E-02    1.66       1.0  T
   3   -246.0741602  0.273602E-05  0.460E-03    1.65       1.7  T
   4   -246.0741633 -0.303588E-05  0.184E-03    1.66       4.3  T
   5   -246.0741635 -0.243473E-06  0.727E-04    1.66      10.8  T
   6   -246.0741635 -0.531065E-07  0.227E-04    1.66      34.7  T
     SCC iter.                  ...        0 min,  0.155 sec
     gradient                   ...        0 min,  0.079 sec
 * total energy  :  -242.2756368 Eh     change       -0.2410329E-03 Eh
   gradient norm :     0.0058909 Eh/α   predicted    -0.1829407E-03 ( -24.10%)
   displ. norm   :     0.6479879 α      lambda       -0.3169818E-03
   maximum displ.:     0.2960824 α      in ANC's #2, #8, #5, ...

........................................................................
.............................. CYCLE   30 ..............................
........................................................................
   1   -246.0759986 -0.246076E+03  0.391E-02    1.65       0.0  T
   2   -246.0760002 -0.158095E-05  0.223E-02    1.66       1.0  T
   3   -246.0759950  0.520136E-05  0.631E-03    1.65       1.2  T
   4   -246.0760008 -0.584708E-05  0.202E-03    1.65       3.9  T
   5   -246.0760010 -0.207485E-06  0.831E-04    1.65       9.5  T
   6   -246.0760011 -0.679714E-07  0.262E-04    1.65      30.0  T
     SCC iter.                  ...        0 min,  0.153 sec
     gradient                   ...        0 min,  0.079 sec
 * total energy  :  -242.2759183 Eh     change       -0.2814862E-03 Eh
   gradient norm :     0.0047841 Eh/α   predicted    -0.2250404E-03 ( -20.05%)
   displ. norm   :     0.7008568 α      lambda       -0.3420464E-03
   maximum displ.:     0.3234784 α      in ANC's #2, #8, #5, ...

........................................................................
.............................. CYCLE   31 ..............................
........................................................................
   1   -246.0775227 -0.246078E+03  0.404E-02    1.65       0.0  T
   2   -246.0775244 -0.173079E-05  0.231E-02    1.66       1.0  T
   3   -246.0775150  0.947307E-05  0.839E-03    1.65       1.0  T
   4   -246.0775257 -0.106984E-04  0.206E-03    1.65       3.8  T
   5   -246.0775258 -0.131227E-06  0.901E-04    1.65       8.7  T
   6   -246.0775259 -0.757580E-07  0.326E-04    1.65      24.1  T
     SCC iter.                  ...        0 min,  0.146 sec
     gradient                   ...        0 min,  0.079 sec
 * total energy  :  -242.2762259 Eh     change       -0.3076844E-03 Eh
   gradient norm :     0.0036502 Eh/α   predicted    -0.2550365E-03 ( -17.11%)
   displ. norm   :     0.7349173 α      lambda       -0.3608941E-03
   maximum displ.:     0.3416680 α      in ANC's #2, #8, #5, ...

........................................................................
.............................. CYCLE   32 ..............................
........................................................................
   1   -246.0786459 -0.246079E+03  0.400E-02    1.65       0.0  T
   2   -246.0786476 -0.169502E-05  0.229E-02    1.66       1.0  T
   3   -246.0786369  0.106789E-04  0.889E-03    1.65       1.0  T
   4   -246.0786490 -0.120785E-04  0.202E-03    1.66       3.9  T
   5   -246.0786491 -0.986692E-07  0.901E-04    1.66       8.7  T
   6   -246.0786492 -0.745859E-07  0.358E-04    1.66      22.0  T
     SCC iter.                  ...        0 min,  0.158 sec
     gradient                   ...        0 min,  0.079 sec
 * total energy  :  -242.2765569 Eh     change       -0.3309785E-03 Eh
   gradient norm :     0.0043737 Eh/α   predicted    -0.2779403E-03 ( -16.02%)
   displ. norm   :     0.7622855 α      lambda       -0.3942642E-03
   maximum displ.:     0.3552306 α      in ANC's #2, #8, #5, ...

........................................................................
.............................. CYCLE   33 ..............................
........................................................................
   1   -246.0792389 -0.246079E+03  0.390E-02    1.66       0.0  T
   2   -246.0792406 -0.160762E-05  0.223E-02    1.66       1.0  T
   3   -246.0792324  0.810716E-05  0.778E-03    1.66       1.0  T
   4   -246.0792416 -0.916283E-05  0.200E-03    1.66       3.9  T
   5   -246.0792417 -0.120858E-06  0.837E-04    1.66       9.4  T
   6   -246.0792418 -0.615981E-07  0.355E-04    1.66      22.1  T
     SCC iter.                  ...        0 min,  0.152 sec
     gradient                   ...        0 min,  0.079 sec
 * total energy  :  -242.2769235 Eh     change       -0.3665427E-03 Eh
   gradient norm :     0.0055699 Eh/α   predicted    -0.3116817E-03 ( -14.97%)
   displ. norm   :     0.7884441 α      lambda       -0.4380888E-03
   maximum displ.:     0.3665417 α      in ANC's #2, #8, #5, ...

........................................................................
.............................. CYCLE   34 ..............................
........................................................................
   1   -246.0789900 -0.246079E+03  0.386E-02    1.66       0.0  T
   2   -246.0789916 -0.160181E-05  0.220E-02    1.66       1.0  T
   3   -246.0789878  0.385768E-05  0.561E-03    1.66       1.4  T
   4   -246.0789921 -0.434108E-05  0.206E-03    1.66       3.8  T
   5   -246.0789924 -0.247996E-06  0.755E-04    1.66      10.4  T
   6   -246.0789924 -0.478989E-07  0.316E-04    1.66      24.9  T
     SCC iter.                  ...        0 min,  0.151 sec
     gradient                   ...        0 min,  0.079 sec
 * total energy  :  -242.2773291 Eh     change       -0.4056026E-03 Eh
   gradient norm :     0.0057169 Eh/α   predicted    -0.3552127E-03 ( -12.42%)
   displ. norm   :     0.8097338 α      lambda       -0.4583384E-03
   maximum displ.:     0.3759614 α      in ANC's #2, #8, #5, ...

........................................................................
.............................. CYCLE   35 ..............................
........................................................................
   1   -246.0776116 -0.246078E+03  0.386E-02    1.66       0.0  T
   2   -246.0776132 -0.160534E-05  0.221E-02    1.66       1.0  T
   3   -246.0776110  0.227519E-05  0.466E-03    1.66       1.7  T
   4   -246.0776135 -0.255068E-05  0.205E-03    1.66       3.8  T
   5   -246.0776138 -0.315067E-06  0.720E-04    1.66      10.9  T
   6   -246.0776139 -0.472367E-07  0.273E-04    1.66      28.8  T
     SCC iter.                  ...        0 min,  0.151 sec
     gradient                   ...        0 min,  0.079 sec
 * total energy  :  -242.2777470 Eh     change       -0.4178816E-03 Eh
   gradient norm :     0.0047323 Eh/α   predicted    -0.3794303E-03 (  -9.20%)
   displ. norm   :     0.8218042 α      lambda       -0.4394339E-03
   maximum displ.:     0.3837287 α      in ANC's #2, #8, #5, ...

........................................................................
.............................. CYCLE   36 ..............................
........................................................................
   1   -246.0760176 -0.246076E+03  0.378E-02    1.66       0.0  T
   2   -246.0760190 -0.143267E-05  0.216E-02    1.66       1.0  T
   3   -246.0760153  0.370026E-05  0.556E-03    1.66       1.4  T
   4   -246.0760196 -0.421924E-05  0.192E-03    1.66       4.1  T
   5   -246.0760197 -0.179183E-06  0.703E-04    1.66      11.2  T
   6   -246.0760198 -0.433263E-07  0.290E-04    1.66      27.1  T
     SCC iter.                  ...        0 min,  0.147 sec
     gradient                   ...        0 min,  0.079 sec
 * total energy  :  -242.2781472 Eh     change       -0.4001992E-03 Eh
   gradient norm :     0.0039335 Eh/α   predicted    -0.3681060E-03 (  -8.02%)
   displ. norm   :     0.8292027 α      lambda       -0.4197993E-03
   maximum displ.:     0.3906430 α      in ANC's #2, #8, #5, ...

........................................................................
.............................. CYCLE   37 ..............................
........................................................................
   1   -246.0751931 -0.246075E+03  0.364E-02    1.66       0.0  T
   2   -246.0751944 -0.129894E-05  0.208E-02    1.66       1.0  T
   3   -246.0751895  0.488244E-05  0.619E-03    1.66       1.3  T
   4   -246.0751951 -0.556536E-05  0.180E-03    1.66       4.4  T
   5   -246.0751952 -0.104934E-06  0.720E-04    1.66      10.9  T
   6   -246.0751953 -0.506070E-07  0.296E-04    1.66      26.6  T
     SCC iter.                  ...        0 min,  0.158 sec
     gradient                   ...        0 min,  0.080 sec
 * total energy  :  -242.2785351 Eh     change       -0.3879459E-03 Eh
   gradient norm :     0.0041154 Eh/α   predicted    -0.3542243E-03 (  -8.69%)
   displ. norm   :     0.8384673 α      lambda       -0.4254500E-03
   maximum displ.:     0.3975727 α      in ANC's #2, #8, #5, ...

........................................................................
.............................. CYCLE   38 ..............................
........................................................................
   1   -246.0758325 -0.246076E+03  0.359E-02    1.66       0.0  T
   2   -246.0758339 -0.140414E-05  0.204E-02    1.66       1.0  T
   3   -246.0758288  0.517905E-05  0.642E-03    1.66       1.2  T
   4   -246.0758347 -0.593267E-05  0.181E-03    1.66       4.3  T
   5   -246.0758348 -0.964958E-07  0.750E-04    1.66      10.5  T
   6   -246.0758349 -0.558807E-07  0.301E-04    1.66      26.1  T
     SCC iter.                  ...        0 min,  0.155 sec
     gradient                   ...        0 min,  0.079 sec
 * total energy  :  -242.2789323 Eh     change       -0.3972170E-03 Eh
   gradient norm :     0.0045495 Eh/α   predicted    -0.3622809E-03 (  -8.80%)
   displ. norm   :     0.8516143 α      lambda       -0.4420987E-03
   maximum displ.:     0.4052788 α      in ANC's #2, #8, #5, ...

........................................................................
.............................. CYCLE   39 ..............................
........................................................................
   1   -246.0771211 -0.246077E+03  0.369E-02    1.66       0.0  T
   2   -246.0771229 -0.171165E-05  0.209E-02    1.66       1.0  T
   3   -246.0771192  0.363541E-05  0.572E-03    1.66       1.4  T
   4   -246.0771235 -0.423203E-05  0.196E-03    1.66       4.0  T
   5   -246.0771236 -0.164497E-06  0.746E-04    1.66      10.5  T
   6   -246.0771237 -0.509710E-07  0.302E-04    1.66      26.1  T
     SCC iter.                  ...        0 min,  0.152 sec
     gradient                   ...        0 min,  0.079 sec
 * total energy  :  -242.2793464 Eh     change       -0.4141357E-03 Eh
   gradient norm :     0.0045275 Eh/α   predicted    -0.3813704E-03 (  -7.91%)
   displ. norm   :     0.8570065 α      lambda       -0.4532788E-03
   maximum displ.:     0.4080438 α      in ANC's #2, #8, #5, ...

........................................................................
.............................. CYCLE   40 ..............................
........................................................................
   1   -246.0792938 -0.246079E+03  0.380E-02    1.66       0.0  T
   2   -246.0792957 -0.191904E-05  0.214E-02    1.66       1.0  T
   3   -246.0792940  0.174072E-05  0.464E-03    1.66       1.7  T
   4   -246.0792960 -0.208319E-05  0.209E-03    1.66       3.8  T
   5   -246.0792963 -0.264791E-06  0.721E-04    1.66      10.9  T
   6   -246.0792964 -0.472657E-07  0.258E-04    1.66      30.5  T
     SCC iter.                  ...        0 min,  0.153 sec
     gradient                   ...        0 min,  0.079 sec
 * total energy  :  -242.2797673 Eh     change       -0.4208761E-03 Eh
   gradient norm :     0.0037323 Eh/α   predicted    -0.3930983E-03 (  -6.60%)
   displ. norm   :     0.8961458 α      lambda       -0.4439306E-03
   maximum displ.:     0.4282146 α      in ANC's #2, #8, #5, ...

........................................................................
.............................. CYCLE   41 ..............................
........................................................................
   1   -246.0779784 -0.246078E+03  0.412E-02    1.65       0.0  T
   2   -246.0779804 -0.199087E-05  0.232E-02    1.65       1.0  T
   3   -246.0779792  0.117685E-05  0.416E-03    1.65       1.9  T
   4   -246.0779805 -0.129956E-05  0.231E-03    1.65       3.4  T
   5   -246.0779810 -0.461895E-06  0.788E-04    1.65      10.0  T
   6   -246.0779811 -0.593793E-07  0.301E-04    1.65      26.1  T
     SCC iter.                  ...        0 min,  0.148 sec
     gradient                   ...        0 min,  0.079 sec
 * total energy  :  -242.2801802 Eh     change       -0.4128307E-03 Eh
   gradient norm :     0.0037512 Eh/α   predicted    -0.4002246E-03 (  -3.05%)
   displ. norm   :     0.8501089 α      lambda       -0.4533183E-03
   maximum displ.:     0.4023001 α      in ANC's #2, #8, #4, ...

........................................................................
.............................. CYCLE   42 ..............................
........................................................................
   1   -246.0837834 -0.246084E+03  0.404E-02    1.65       0.0  T
   2   -246.0837854 -0.202314E-05  0.228E-02    1.65       1.0  T
   3   -246.0837817  0.372373E-05  0.594E-03    1.65       1.3  T
   4   -246.0837857 -0.404280E-05  0.254E-03    1.65       3.1  T
   5   -246.0837861 -0.422132E-06  0.970E-04    1.65       8.1  T
   6   -246.0837862 -0.930422E-07  0.316E-04    1.65      24.9  T
     SCC iter.                  ...        0 min,  0.157 sec
     gradient                   ...        0 min,  0.079 sec
 * total energy  :  -242.2805455 Eh     change       -0.3653064E-03 Eh
   gradient norm :     0.0047406 Eh/α   predicted    -0.3904675E-03 (   6.89%)
   displ. norm   :     0.8971263 α      lambda       -0.4243315E-03
   maximum displ.:     0.4311123 α      in ANC's #2, #8, #5, ...
 * RMSD in coord.:     1.0658121 α      energy gain  -0.6476471E-02 Eh

generating ANC from model Hessian ...
Using Lindh-Hessian (1995)
 Shifting diagonal of input Hessian by   1.000291225384663E-002
 Lowest  eigenvalues of input Hessian
    0.010000    0.000000    0.000000    0.000000    0.000000    0.000000
    0.000000    0.010019    0.010041    0.010066    0.010074    0.010110
    0.010123    0.010170    0.010189    0.010284    0.010328    0.010347
 Highest eigenvalues
    2.030283    2.064444    2.070109    2.078409    2.089177    2.091917
 

........................................................................
.............................. CYCLE   43 ..............................
........................................................................
   1   -246.0781902 -0.246078E+03  0.415E-02    1.65       0.0  T
   2   -246.0781917 -0.155041E-05  0.236E-02    1.65       1.0  T
   3   -246.0781905  0.127130E-05  0.403E-03    1.65       1.9  T
   4   -246.0781920 -0.151725E-05  0.209E-03    1.65       3.8  T
   5   -246.0781923 -0.328488E-06  0.690E-04    1.65      11.4  T
   6   -246.0781924 -0.542716E-07  0.274E-04    1.65      28.7  T
     SCC iter.                  ...        0 min,  0.154 sec
     gradient                   ...        0 min,  0.079 sec
 * total energy  :  -242.2809272 Eh     change       -0.3817175E-03 Eh
   gradient norm :     0.0041180 Eh/α   predicted     0.0000000E+00 (-100.00%)
   displ. norm   :     0.0564747 α      lambda       -0.6057641E-04
   maximum displ.:     0.0226930 α      in ANC's #4, #2, #8, ...

........................................................................
.............................. CYCLE   44 ..............................
........................................................................
   1   -246.0810130 -0.246081E+03  0.737E-03    1.66       0.0  T
   2   -246.0810132 -0.153834E-06  0.424E-03    1.66       1.9  T
   3   -246.0810129  0.322173E-06  0.159E-03    1.66       4.9  T
   4   -246.0810132 -0.356411E-06  0.484E-04    1.66      16.2  T
   5   -246.0810132 -0.202180E-07  0.198E-04    1.66      39.8  T
     SCC iter.                  ...        0 min,  0.128 sec
     gradient                   ...        0 min,  0.079 sec
 * total energy  :  -242.2809806 Eh     change       -0.5338285E-04 Eh
   gradient norm :     0.0020451 Eh/α   predicted    -0.3257161E-04 ( -38.98%)
   displ. norm   :     0.1714608 α      lambda       -0.1194096E-03
   maximum displ.:     0.0716042 α      in ANC's #4, #2, #8, ...

........................................................................
.............................. CYCLE   45 ..............................
........................................................................
   1   -246.0843081 -0.246084E+03  0.182E-02    1.66       0.0  T
   2   -246.0843088 -0.726305E-06  0.105E-02    1.66       1.0  T
   3   -246.0843067  0.212683E-05  0.406E-03    1.66       1.9  T
   4   -246.0843091 -0.239098E-05  0.103E-03    1.66       7.6  T
   5   -246.0843091 -0.702370E-07  0.446E-04    1.66      17.6  T
   6   -246.0843091 -0.163792E-07  0.188E-04    1.66      41.7  T
     SCC iter.                  ...        0 min,  0.155 sec
     gradient                   ...        0 min,  0.080 sec
 * total energy  :  -242.2810637 Eh     change       -0.8315589E-04 Eh
   gradient norm :     0.0025235 Eh/α   predicted    -0.6146031E-04 ( -26.09%)
   displ. norm   :     0.1831570 α      lambda       -0.7578678E-04
   maximum displ.:     0.0802097 α      in ANC's #4, #2, #8, ...

........................................................................
.............................. CYCLE   46 ..............................
........................................................................
   1   -246.0846612 -0.246085E+03  0.165E-02    1.66       0.0  T
   2   -246.0846616 -0.437157E-06  0.948E-03    1.66       1.0  T
   3   -246.0846597  0.195236E-05  0.384E-03    1.66       2.0  T
   4   -246.0846619 -0.220381E-05  0.794E-04    1.66       9.9  T
   5   -246.0846619 -0.296371E-07  0.349E-04    1.66      22.5  T
   6   -246.0846619 -0.990772E-08  0.151E-04    1.66      51.9  T
     SCC iter.                  ...        0 min,  0.153 sec
     gradient                   ...        0 min,  0.080 sec
 * total energy  :  -242.2811265 Eh     change       -0.6275566E-04 Eh
   gradient norm :     0.0040261 Eh/α   predicted    -0.3924277E-04 ( -37.47%)
   displ. norm   :     0.3063691 α      lambda       -0.1216250E-03
   maximum displ.:     0.1359069 α      in ANC's #4, #2, #8, ...

........................................................................
.............................. CYCLE   47 ..............................
........................................................................
   1   -246.0832462 -0.246083E+03  0.249E-02    1.67       0.0  T
   2   -246.0832470 -0.783331E-06  0.144E-02    1.67       1.0  T
   3   -246.0832419  0.514246E-05  0.620E-03    1.67       1.3  T
   4   -246.0832477 -0.582406E-05  0.106E-03    1.67       7.4  T
   5   -246.0832477 -0.313190E-07  0.488E-04    1.67      16.1  T
   6   -246.0832477 -0.197159E-07  0.221E-04    1.67      35.6  T
     SCC iter.                  ...        0 min,  0.153 sec
     gradient                   ...        0 min,  0.079 sec
 * total energy  :  -242.2812305 Eh     change       -0.1039848E-03 Eh
   gradient norm :     0.0045046 Eh/α   predicted    -0.6652093E-04 ( -36.03%)
   displ. norm   :     0.4515787 α      lambda       -0.1753640E-03
   maximum displ.:     0.2034385 α      in ANC's #4, #2, #8, ...

........................................................................
.............................. CYCLE   48 ..............................
........................................................................
   1   -246.0806197 -0.246081E+03  0.338E-02    1.67       0.0  T
   2   -246.0806209 -0.125462E-05  0.196E-02    1.67       1.0  T
   3   -246.0806107  0.102394E-04  0.876E-03    1.67       1.0  T
   4   -246.0806223 -0.116111E-04  0.141E-03    1.67       5.6  T
   5   -246.0806223 -0.373101E-07  0.695E-04    1.67      11.3  T
   6   -246.0806224 -0.438334E-07  0.306E-04    1.67      25.7  T
     SCC iter.                  ...        0 min,  0.155 sec
     gradient                   ...        0 min,  0.079 sec
 * total energy  :  -242.2813801 Eh     change       -0.1496318E-03 Eh
   gradient norm :     0.0039746 Eh/α   predicted    -0.1055649E-03 ( -29.45%)
   displ. norm   :     0.5313741 α      lambda       -0.2038330E-03
   maximum displ.:     0.2434766 α      in ANC's #4, #2, #8, ...

........................................................................
.............................. CYCLE   49 ..............................
........................................................................
   1   -246.0784466 -0.246078E+03  0.365E-02    1.67       0.0  T
   2   -246.0784480 -0.143132E-05  0.210E-02    1.67       1.0  T
   3   -246.0784367  0.113666E-04  0.925E-03    1.67       1.0  T
   4   -246.0784496 -0.129032E-04  0.162E-03    1.67       4.8  T
   5   -246.0784496 -0.488543E-07  0.815E-04    1.67       9.6  T
   6   -246.0784497 -0.648250E-07  0.333E-04    1.67      23.6  T
     SCC iter.                  ...        0 min,  0.153 sec
     gradient                   ...        0 min,  0.079 sec
 * total energy  :  -242.2815563 Eh     change       -0.1762482E-03 Eh
   gradient norm :     0.0037290 Eh/α   predicted    -0.1306994E-03 ( -25.84%)
   displ. norm   :     0.5704456 α      lambda       -0.2356709E-03
   maximum displ.:     0.2657785 α      in ANC's #4, #2, #8, ...

........................................................................
.............................. CYCLE   50 ..............................
........................................................................
   1   -246.0779947 -0.246078E+03  0.357E-02    1.67       0.0  T
   2   -246.0779962 -0.151898E-05  0.204E-02    1.67       1.0  T
   3   -246.0779880  0.823963E-05  0.796E-03    1.67       1.0  T
   4   -246.0779974 -0.936348E-05  0.179E-03    1.67       4.4  T
   5   -246.0779975 -0.898110E-07  0.849E-04    1.67       9.3  T
   6   -246.0779975 -0.731064E-07  0.326E-04    1.67      24.1  T
     SCC iter.                  ...        0 min,  0.146 sec
     gradient                   ...        0 min,  0.079 sec
 * total energy  :  -242.2817635 Eh     change       -0.2071709E-03 Eh
   gradient norm :     0.0046400 Eh/α   predicted    -0.1561905E-03 ( -24.61%)
   displ. norm   :     0.6134404 α      lambda       -0.2813052E-03
   maximum displ.:     0.2900966 α      in ANC's #4, #2, #8, ...

........................................................................
.............................. CYCLE   51 ..............................
........................................................................
   1   -246.0798237 -0.246080E+03  0.355E-02    1.67       0.0  T
   2   -246.0798254 -0.172729E-05  0.201E-02    1.67       1.0  T
   3   -246.0798218  0.359063E-05  0.561E-03    1.67       1.4  T
   4   -246.0798259 -0.406513E-05  0.206E-03    1.67       3.8  T
   5   -246.0798261 -0.234501E-06  0.836E-04    1.67       9.4  T
   6   -246.0798262 -0.706077E-07  0.309E-04    1.67      25.4  T
     SCC iter.                  ...        0 min,  0.167 sec
     gradient                   ...        0 min,  0.079 sec
 * total energy  :  -242.2820093 Eh     change       -0.2458047E-03 Eh
   gradient norm :     0.0057075 Eh/α   predicted    -0.1935818E-03 ( -21.25%)
   displ. norm   :     0.6631882 α      lambda       -0.3038484E-03
   maximum displ.:     0.3179844 α      in ANC's #4, #2, #8, ...

........................................................................
.............................. CYCLE   52 ..............................
........................................................................
   1   -246.0827271 -0.246083E+03  0.365E-02    1.67       0.0  T
   2   -246.0827288 -0.171941E-05  0.205E-02    1.67       1.0  T
   3   -246.0827280  0.847926E-06  0.361E-03    1.67       2.2  T
   4   -246.0827289 -0.945812E-06  0.200E-03    1.67       3.9  T
   5   -246.0827293 -0.344372E-06  0.759E-04    1.67      10.3  T
   6   -246.0827293 -0.636255E-07  0.277E-04    1.67      28.4  T
     SCC iter.                  ...        0 min,  0.157 sec
     gradient                   ...        0 min,  0.079 sec
 * total energy  :  -242.2822760 Eh     change       -0.2666522E-03 Eh
   gradient norm :     0.0057213 Eh/α   predicted    -0.2187443E-03 ( -17.97%)
   displ. norm   :     0.7144275 α      lambda       -0.3108153E-03
   maximum displ.:     0.3467970 α      in ANC's #4, #2, #8, ...

........................................................................
.............................. CYCLE   53 ..............................
........................................................................
   1   -246.0848640 -0.246085E+03  0.382E-02    1.67       0.0  T
   2   -246.0848655 -0.153409E-05  0.216E-02    1.67       1.0  T
   3   -246.0848645  0.103963E-05  0.374E-03    1.67       2.1  T
   4   -246.0848657 -0.118146E-05  0.200E-03    1.67       3.9  T
   5   -246.0848660 -0.341283E-06  0.637E-04    1.67      12.3  T
   6   -246.0848660 -0.421276E-07  0.234E-04    1.67      33.6  T
     SCC iter.                  ...        0 min,  0.156 sec
     gradient                   ...        0 min,  0.079 sec
 * total energy  :  -242.2825566 Eh     change       -0.2805863E-03 Eh
   gradient norm :     0.0044731 Eh/α   predicted    -0.2347295E-03 ( -16.34%)
   displ. norm   :     0.7598957 α      lambda       -0.3254723E-03
   maximum displ.:     0.3723205 α      in ANC's #4, #2, #8, ...

........................................................................
.............................. CYCLE   54 ..............................
........................................................................
   1   -246.0856312 -0.246086E+03  0.401E-02    1.67       0.0  T
   2   -246.0856327 -0.149580E-05  0.228E-02    1.67       1.0  T
   3   -246.0856302  0.243568E-05  0.478E-03    1.67       1.6  T
   4   -246.0856330 -0.275541E-05  0.211E-03    1.67       3.7  T
   5   -246.0856333 -0.292664E-06  0.705E-04    1.67      11.1  T
   6   -246.0856333 -0.510480E-07  0.267E-04    1.67      29.4  T
     SCC iter.                  ...        0 min,  0.152 sec
     gradient                   ...        0 min,  0.079 sec
 * total energy  :  -242.2828561 Eh     change       -0.2995387E-03 Eh
   gradient norm :     0.0029000 Eh/α   predicted    -0.2567092E-03 ( -14.30%)
   displ. norm   :     0.8009113 α      lambda       -0.3374100E-03
   maximum displ.:     0.3945071 α      in ANC's #4, #2, #8, ...

........................................................................
.............................. CYCLE   55 ..............................
........................................................................
   1   -246.0849349 -0.246085E+03  0.418E-02    1.67       0.0  T
   2   -246.0849366 -0.164213E-05  0.237E-02    1.67       1.0  T
   3   -246.0849340  0.258173E-05  0.494E-03    1.67       1.6  T
   4   -246.0849368 -0.285167E-05  0.229E-03    1.67       3.4  T
   5   -246.0849372 -0.376089E-06  0.768E-04    1.67      10.2  T
   6   -246.0849373 -0.592975E-07  0.285E-04    1.67      27.6  T
     SCC iter.                  ...        0 min,  0.150 sec
     gradient                   ...        0 min,  0.079 sec
 * total energy  :  -242.2831699 Eh     change       -0.3138522E-03 Eh
   gradient norm :     0.0031197 Eh/α   predicted    -0.2769326E-03 ( -11.76%)
   displ. norm   :     0.8270651 α      lambda       -0.3418199E-03
   maximum displ.:     0.4088216 α      in ANC's #4, #2, #8, ...

........................................................................
.............................. CYCLE   56 ..............................
........................................................................
   1   -246.0834872 -0.246083E+03  0.422E-02    1.67       0.0  T
   2   -246.0834890 -0.173362E-05  0.239E-02    1.67       1.0  T
   3   -246.0834871  0.184917E-05  0.452E-03    1.67       1.7  T
   4   -246.0834890 -0.192588E-05  0.245E-03    1.67       3.2  T
   5   -246.0834896 -0.518870E-06  0.761E-04    1.67      10.3  T
   6   -246.0834896 -0.567572E-07  0.285E-04    1.67      27.5  T
     SCC iter.                  ...        0 min,  0.162 sec
     gradient                   ...        0 min,  0.079 sec
 * total energy  :  -242.2834898 Eh     change       -0.3198414E-03 Eh
   gradient norm :     0.0041743 Eh/α   predicted    -0.2878358E-03 ( -10.01%)
   displ. norm   :     0.8426497 α      lambda       -0.3431374E-03
   maximum displ.:     0.4179455 α      in ANC's #4, #2, #8, ...

........................................................................
.............................. CYCLE   57 ..............................
........................................................................
   1   -246.0820491 -0.246082E+03  0.421E-02    1.67       0.0  T
   2   -246.0820508 -0.171229E-05  0.237E-02    1.67       1.0  T
   3   -246.0820495  0.134600E-05  0.423E-03    1.67       1.9  T
   4   -246.0820508 -0.134740E-05  0.247E-03    1.67       3.2  T
   5   -246.0820514 -0.558096E-06  0.698E-04    1.67      11.2  T
   6   -246.0820514 -0.467751E-07  0.279E-04    1.67      28.2  T
     SCC iter.                  ...        0 min,  0.156 sec
     gradient                   ...        0 min,  0.079 sec
 * total energy  :  -242.2838114 Eh     change       -0.3216288E-03 Eh
   gradient norm :     0.0043638 Eh/α   predicted    -0.2933929E-03 (  -8.78%)
   displ. norm   :     0.8500819 α      lambda       -0.3423759E-03
   maximum displ.:     0.4234976 α      in ANC's #4, #2, #8, ...

........................................................................
.............................. CYCLE   58 ..............................
........................................................................
   1   -246.0813123 -0.246081E+03  0.418E-02    1.66       0.0  T
   2   -246.0813140 -0.163888E-05  0.235E-02    1.67       1.0  T
   3   -246.0813124  0.158505E-05  0.447E-03    1.66       1.8  T
   4   -246.0813141 -0.170111E-05  0.244E-03    1.66       3.2  T
   5   -246.0813146 -0.465973E-06  0.627E-04    1.66      12.5  T
   6   -246.0813146 -0.376698E-07  0.259E-04    1.66      30.3  T
     SCC iter.                  ...        0 min,  0.153 sec
     gradient                   ...        0 min,  0.079 sec
 * total energy  :  -242.2841312 Eh     change       -0.3197456E-03 Eh
   gradient norm :     0.0035307 Eh/α   predicted    -0.2948968E-03 (  -7.77%)
   displ. norm   :     0.8552010 α      lambda       -0.3356830E-03
   maximum displ.:     0.4283415 α      in ANC's #4, #2, #8, ...

........................................................................
.............................. CYCLE   59 ..............................
........................................................................
   1   -246.0813732 -0.246081E+03  0.419E-02    1.66       0.0  T
   2   -246.0813748 -0.161256E-05  0.235E-02    1.66       1.0  T
   3   -246.0813727  0.213161E-05  0.490E-03    1.66       1.6  T
   4   -246.0813751 -0.237309E-05  0.242E-03    1.66       3.3  T
   5   -246.0813755 -0.376662E-06  0.659E-04    1.66      11.9  T
   6   -246.0813755 -0.463308E-07  0.281E-04    1.66      28.0  T
     SCC iter.                  ...        0 min,  0.153 sec
     gradient                   ...        0 min,  0.079 sec
 * total energy  :  -242.2844441 Eh     change       -0.3129404E-03 Eh
   gradient norm :     0.0026848 Eh/α   predicted    -0.2906030E-03 (  -7.14%)
   displ. norm   :     0.8572436 α      lambda       -0.3263098E-03
   maximum displ.:     0.4325808 α      in ANC's #4, #2, #8, ...

........................................................................
.............................. CYCLE   60 ..............................
........................................................................
   1   -246.0826283 -0.246083E+03  0.420E-02    1.66       0.0  T
   2   -246.0826299 -0.163676E-05  0.235E-02    1.66       1.0  T
   3   -246.0826281  0.188110E-05  0.477E-03    1.66       1.6  T
   4   -246.0826301 -0.204884E-05  0.243E-03    1.66       3.2  T
   5   -246.0826305 -0.399226E-06  0.734E-04    1.66      10.7  T
   6   -246.0826306 -0.631229E-07  0.295E-04    1.66      26.6  T
     SCC iter.                  ...        0 min,  0.148 sec
     gradient                   ...        0 min,  0.079 sec
 * total energy  :  -242.2847488 Eh     change       -0.3046627E-03 Eh
   gradient norm :     0.0031508 Eh/α   predicted    -0.2830538E-03 (  -7.09%)
   displ. norm   :     0.8681498 α      lambda       -0.3205622E-03
   maximum displ.:     0.4405921 α      in ANC's #4, #2, #8, ...

........................................................................
.............................. CYCLE   61 ..............................
........................................................................
   1   -246.0832058 -0.246083E+03  0.428E-02    1.66       0.0  T
   2   -246.0832075 -0.173191E-05  0.240E-02    1.66       1.0  T
   3   -246.0832058  0.169274E-05  0.465E-03    1.66       1.7  T
   4   -246.0832077 -0.183212E-05  0.245E-03    1.66       3.2  T
   5   -246.0832081 -0.436011E-06  0.740E-04    1.66      10.6  T
   6   -246.0832082 -0.667777E-07  0.297E-04    1.66      26.4  T
     SCC iter.                  ...        0 min,  0.156 sec
     gradient                   ...        0 min,  0.079 sec
 * total energy  :  -242.2850511 Eh     change       -0.3023208E-03 Eh
   gradient norm :     0.0039538 Eh/α   predicted    -0.2810850E-03 (  -7.02%)
   displ. norm   :     0.8505526 α      lambda       -0.3306044E-03
   maximum displ.:     0.4370616 α      in ANC's #4, #2, #8, ...

........................................................................
.............................. CYCLE   62 ..............................
........................................................................
   1   -246.0881230 -0.246088E+03  0.429E-02    1.66       0.0  T
   2   -246.0881247 -0.170634E-05  0.241E-02    1.66       1.0  T
   3   -246.0881233  0.135688E-05  0.439E-03    1.66       1.8  T
   4   -246.0881247 -0.132737E-05  0.246E-03    1.66       3.2  T
   5   -246.0881252 -0.529355E-06  0.759E-04    1.66      10.4  T
   6   -246.0881253 -0.769614E-07  0.273E-04    1.66      28.8  T
     SCC iter.                  ...        0 min,  0.152 sec
     gradient                   ...        0 min,  0.079 sec
 * total energy  :  -242.2853451 Eh     change       -0.2940577E-03 Eh
   gradient norm :     0.0040336 Eh/α   predicted    -0.2848915E-03 (  -3.12%)
   displ. norm   :     0.8945086 α      lambda       -0.3359428E-03
   maximum displ.:     0.4579829 α      in ANC's #4, #2, #8, ...

........................................................................
.............................. CYCLE   63 ..............................
........................................................................
   1   -246.0849710 -0.246085E+03  0.460E-02    1.66       0.0  T
   2   -246.0849731 -0.207798E-05  0.258E-02    1.66       1.0  T
   3   -246.0849705  0.253467E-05  0.533E-03    1.66       1.5  T
   4   -246.0849734 -0.287939E-05  0.259E-03    1.66       3.0  T
   5   -246.0849738 -0.438889E-06  0.767E-04    1.66      10.2  T
   6   -246.0849739 -0.711011E-07  0.297E-04    1.66      26.5  T
     SCC iter.                  ...        0 min,  0.150 sec
     gradient                   ...        0 min,  0.079 sec
 * total energy  :  -242.2856448 Eh     change       -0.2996648E-03 Eh
   gradient norm :     0.0037463 Eh/α   predicted    -0.3023807E-03 (   0.91%)
   displ. norm   :     0.8475162 α      lambda       -0.2918485E-03
   maximum displ.:     0.4407494 α      in ANC's #4, #2, #8, ...

........................................................................
.............................. CYCLE   64 ..............................
........................................................................
   1   -246.0845718 -0.246085E+03  0.425E-02    1.66       0.0  T
   2   -246.0845732 -0.147993E-05  0.238E-02    1.66       1.0  T
   3   -246.0845718  0.142535E-05  0.433E-03    1.66       1.8  T
   4   -246.0845732 -0.142276E-05  0.246E-03    1.66       3.2  T
   5   -246.0845738 -0.521323E-06  0.693E-04    1.66      11.3  T
   6   -246.0845738 -0.659925E-07  0.241E-04    1.66      32.6  T
     SCC iter.                  ...        0 min,  0.154 sec
[...]
                           144 H    0.968
    69   6 C    3.994 --    68 C    0.998   147 H    0.989   148 H    0.988
                           146 H    0.986
    70   6 C    3.948 --    67 C    1.418    61 C    1.252    71 S    1.073
    71  16 S    2.452 --    70 C    1.073    59 C    1.054
    72   6 C    3.961 --    73 C    1.568    66 C    1.214   149 H    0.958
    73   6 C    3.939 --    72 C    1.568    75 C    1.140    74 S    1.074
    74  16 S    2.486 --    65 C    1.088    73 C    1.074
    75   6 C    3.942 --    76 C    1.575    73 C    1.140    87 S    1.073
    76   6 C    3.961 --    75 C    1.575    77 C    1.211   150 H    0.957
    77   6 C    3.985 --    78 C    1.315    86 C    1.249    76 C    1.211
    78   6 C    3.969 --    81 C    1.402    77 C    1.315    79 C    1.013
    79   6 C    3.996 --    78 C    1.013    80 C    0.999   151 H    0.970
                           152 H    0.969
    80   6 C    3.994 --    79 C    0.999   153 H    0.988   155 H    0.987
                           154 H    0.986
    81   6 C    3.952 --    78 C    1.402    82 C    1.259    90 S    1.090
    82   6 C    3.975 --    83 C    1.318    81 C    1.259    88 C    1.189
    83   6 C    3.986 --    86 C    1.410    82 C    1.318    84 C    1.012
    84   6 C    3.996 --    83 C    1.012    85 C    0.999   157 H    0.969
                           156 H    0.965
    85   6 C    3.994 --    84 C    0.999   160 H    0.988   158 H    0.987
                           159 H    0.984
    86   6 C    3.946 --    83 C    1.410    77 C    1.249    87 S    1.081
    87  16 S    2.468 --    86 C    1.081    75 C    1.073
    88   6 C    3.982 --    89 C    1.686    82 C    1.189   161 H    0.961
                            90 S    0.102
    89   6 C    3.937 --    88 C    1.686    90 S    1.145   162 H    0.970
    90  16 S    2.520 --    89 C    1.145    81 C    1.090    88 C    0.102
    91   1 H    0.997 --     1 C    0.970
    92   1 H    0.998 --     2 C    0.961
    93   1 H    0.997 --     5 C    0.968
    94   1 H    0.998 --     5 C    0.970
    95   1 H    0.997 --     6 C    0.986
    96   1 H    0.999 --     6 C    0.988
    97   1 H    0.998 --     6 C    0.988
    98   1 H    0.997 --    10 C    0.969
    99   1 H    0.998 --    10 C    0.970
   100   1 H    0.997 --    11 C    0.986
   101   1 H    0.998 --    11 C    0.988
   102   1 H    0.999 --    11 C    0.987
   103   1 H    0.998 --    14 C    0.959
   104   1 H    0.998 --    18 C    0.959
   105   1 H    0.997 --    21 C    0.967
   106   1 H    0.998 --    21 C    0.970
   107   1 H    0.997 --    22 C    0.986
   108   1 H    0.999 --    22 C    0.988
   109   1 H    0.998 --    22 C    0.988
   110   1 H    0.998 --    26 C    0.969
   111   1 H    0.996 --    26 C    0.966
   112   1 H    0.997 --    27 C    0.983
   113   1 H    0.999 --    27 C    0.988
   114   1 H    0.998 --    27 C    0.987
   115   1 H    0.998 --    30 C    0.959
   116   1 H    0.998 --    34 C    0.959
   117   1 H    0.997 --    37 C    0.967
   118   1 H    0.998 --    37 C    0.967
   119   1 H    0.999 --    38 C    0.988
   120   1 H    0.997 --    38 C    0.986
   121   1 H    0.999 --    38 C    0.988
   122   1 H    0.997 --    42 C    0.967
   123   1 H    0.998 --    42 C    0.967
   124   1 H    0.999 --    43 C    0.987
   125   1 H    0.998 --    43 C    0.988
   126   1 H    0.997 --    43 C    0.986
   127   1 H    0.998 --    46 C    0.948
   128   1 H    0.997 --    50 C    0.956
   129   1 H    0.998 --    52 C    0.971
   130   1 H    0.998 --    52 C    0.972
   131   1 H    0.980 --    53 N    0.967
   132   1 H    0.981 --    53 N    0.968
   133   1 H    0.998 --    54 C    0.968
   134   1 H    0.997 --    55 C    0.967
   135   1 H    0.997 --    57 C    0.969
   136   1 H    0.998 --    57 C    0.953
   137   1 H    0.973 --    58 N    0.946
   138   1 H    0.998 --    60 C    0.957
   139   1 H    0.997 --    63 C    0.968
   140   1 H    0.998 --    63 C    0.967
   141   1 H    0.997 --    64 C    0.986
   142   1 H    0.998 --    64 C    0.987
   143   1 H    0.999 --    64 C    0.989
   144   1 H    0.998 --    68 C    0.968
   145   1 H    0.997 --    68 C    0.968
   146   1 H    0.997 --    69 C    0.986
   147   1 H    0.999 --    69 C    0.989
   148   1 H    0.999 --    69 C    0.988
   149   1 H    0.998 --    72 C    0.958
   150   1 H    0.997 --    76 C    0.957
   151   1 H    0.998 --    79 C    0.970
   152   1 H    0.997 --    79 C    0.969
   153   1 H    0.999 --    80 C    0.988
   154   1 H    0.997 --    80 C    0.986
   155   1 H    0.998 --    80 C    0.987
   156   1 H    0.997 --    84 C    0.965
   157   1 H    0.998 --    84 C    0.969
   158   1 H    0.998 --    85 C    0.987
   159   1 H    0.997 --    85 C    0.984
   160   1 H    0.999 --    85 C    0.988
   161   1 H    0.998 --    88 C    0.961
   162   1 H    0.997 --    89 C    0.970
 ---------------------------------------------------------------------------

Topologies differ in bond orders
Writing corrected topology to xtbtopo.mol

molecular dipole:
                 x           y           z       tot (Debye)
 q only:       -0.319      -0.370      -0.968
   full:       -0.554       0.239      -0.825       2.599
molecular quadrupole (traceless):
                xx          xy          yy          xz          yz          zz
 q only:      -20.826      -2.507      -6.451       8.016      16.746      27.277
  q+dip:      -27.279       0.832     -27.611      14.312      18.000      54.890
   full:      -21.216      10.932     -28.016      11.480      15.606      49.232

           -------------------------------------------------
          |                Geometry Summary                 |
           -------------------------------------------------

      molecular mass/u    :     1358.0704147
   center of mass at/Å    :        0.2456910      -0.0233885       0.3165489
  moments of inertia/u·Å² :        0.1975325E+05   0.7639635E+05   0.9097478E+05
rotational constants/cm⁻¹ :        0.8534107E-03   0.2206602E-03   0.1853001E-03

 * 162 selected distances

     #   Z          #   Z                                           value/Å
     1   6 C        2   6 C                                       1.3473381
     2   6 C        3   6 C                                       1.4283052
     3   6 C        4   6 C                                       1.3984089
     5   6 C        6   6 C                                       1.5299022
     4   6 C        7   6 C                                       1.3830947
     7   6 C        8   6 C                                       1.4175533
     8   6 C        9   6 C                                       1.4003043
    10   6 C       11   6 C                                       1.5298706
     3   6 C       12   6 C                                       1.4165610
     9   6 C       12   6 C                                       1.3828701
     1   6 C       13  16 S                                       1.7302940
    12   6 C       13  16 S                                       1.7479863
     8   6 C       14   6 C                                       1.4197802
    14   6 C       15   6 C                                       1.3634424
     7   6 C       16  16 S                                       1.7450035
    15   6 C       16  16 S                                       1.7508968
    15   6 C       17   6 C                                       1.4297809
    17   6 C       18   6 C                                       1.3638965
    18   6 C       19   6 C                                       1.4185660
    19   6 C       20   6 C                                       1.4001490
    21   6 C       22   6 C                                       1.5299193
    20   6 C       23   6 C                                       1.3815329
    23   6 C       24   6 C                                       1.4197016
    24   6 C       25   6 C                                       1.4010244
    26   6 C       27   6 C                                       1.5296638
    19   6 C       28   6 C                                       1.4169607
    25   6 C       28   6 C                                       1.3830922
    17   6 C       29  16 S                                       1.7505391
    28   6 C       29  16 S                                       1.7455339
    24   6 C       30   6 C                                       1.4220379
    30   6 C       31   6 C                                       1.3638427
    23   6 C       32  16 S                                       1.7416900
    31   6 C       32  16 S                                       1.7519007
    31   6 C       33   6 C                                       1.4306148
    33   6 C       34   6 C                                       1.3641207
    34   6 C       35   6 C                                       1.4225730
    35   6 C       36   6 C                                       1.4014467
    37   6 C       38   6 C                                       1.5297871
    36   6 C       39   6 C                                       1.3835182
    39   6 C       40   6 C                                       1.4143605
    40   6 C       41   6 C                                       1.3980836
    42   6 C       43   6 C                                       1.5293054
    35   6 C       44   6 C                                       1.4187009
    41   6 C       44   6 C                                       1.3808882
    33   6 C       45  16 S                                       1.7522112
    44   6 C       45  16 S                                       1.7413952
    40   6 C       46   6 C                                       1.4214784
    46   6 C       47   6 C                                       1.3578525
    39   6 C       48  16 S                                       1.7405818
    49   6 C       50   6 C                                       1.3990169
    50   6 C       51   6 C                                       1.3828366
    52   6 C       53   7 N                                       1.4587047
    51   6 C       54   6 C                                       1.3883830
    54   6 C       55   6 C                                       1.3803584
    49   6 C       56   6 C                                       1.4091855
    55   6 C       56   6 C                                       1.3909540
    57   6 C       58   7 N                                       1.4702659
    58   7 N       59   6 C                                       1.3779671
    59   6 C       60   6 C                                       1.3532138
    60   6 C       61   6 C                                       1.4233534
    61   6 C       62   6 C                                       1.3967840
    63   6 C       64   6 C                                       1.5288644
    62   6 C       65   6 C                                       1.3819468
    65   6 C       66   6 C                                       1.4163960
    66   6 C       67   6 C                                       1.4016529
    68   6 C       69   6 C                                       1.5297480
    61   6 C       70   6 C                                       1.4157015
    67   6 C       70   6 C                                       1.3811741
    70   6 C       71  16 S                                       1.7471096
    66   6 C       72   6 C                                       1.4214011
    72   6 C       73   6 C                                       1.3606792
    65   6 C       74  16 S                                       1.7434699
    73   6 C       74  16 S                                       1.7540261
    73   6 C       75   6 C                                       1.4291638
    75   6 C       76   6 C                                       1.3595652
    76   6 C       77   6 C                                       1.4202046
    77   6 C       78   6 C                                       1.3989950
    79   6 C       80   6 C                                       1.5300199
    78   6 C       81   6 C                                       1.3833039
    81   6 C       82   6 C                                       1.4154708
    82   6 C       83   6 C                                       1.3989657
    84   6 C       85   6 C                                       1.5301107
    77   6 C       86   6 C                                       1.4166821
    83   6 C       86   6 C                                       1.3819278
    75   6 C       87  16 S                                       1.7545908 (max)
    86   6 C       87  16 S                                       1.7500142
    82   6 C       88   6 C                                       1.4280741
    88   6 C       89   6 C                                       1.3474515
    81   6 C       90  16 S                                       1.7474612
    89   6 C       90  16 S                                       1.7301094
     1   6 C       91   1 H                                       1.0727926
     2   6 C       92   1 H                                       1.0749856
     5   6 C       93   1 H                                       1.0924409
     5   6 C       94   1 H                                       1.0912467
     6   6 C       95   1 H                                       1.0873194
     6   6 C       96   1 H                                       1.0878449
     6   6 C       97   1 H                                       1.0875429
    10   6 C       98   1 H                                       1.0922410
    10   6 C       99   1 H                                       1.0915556
    11   6 C      100   1 H                                       1.0873867
    11   6 C      101   1 H                                       1.0874599
    11   6 C      102   1 H                                       1.0877720
    14   6 C      103   1 H                                       1.0744276
    18   6 C      104   1 H                                       1.0744311
    21   6 C      105   1 H                                       1.0924589
    21   6 C      106   1 H                                       1.0913367
    22   6 C      107   1 H                                       1.0873459
    22   6 C      108   1 H                                       1.0878532
    22   6 C      109   1 H                                       1.0874324
    26   6 C      110   1 H                                       1.0900814
    26   6 C      111   1 H                                       1.0928830
    27   6 C      112   1 H                                       1.0864646
    27   6 C      113   1 H                                       1.0879430
    27   6 C      114   1 H                                       1.0875771
    30   6 C      115   1 H                                       1.0752562
    34   6 C      116   1 H                                       1.0752150
    37   6 C      117   1 H                                       1.0926576
    37   6 C      118   1 H                                       1.0903268
    38   6 C      119   1 H                                       1.0879429
    38   6 C      120   1 H                                       1.0873467
    38   6 C      121   1 H                                       1.0876910
    42   6 C      122   1 H                                       1.0923402
    42   6 C      123   1 H                                       1.0919014
    43   6 C      124   1 H                                       1.0880096
    43   6 C      125   1 H                                       1.0875590
    43   6 C      126   1 H                                       1.0874708
    46   6 C      127   1 H                                       1.0728354
    50   6 C      128   1 H                                       1.0813664
    52   6 C      129   1 H                                       1.0931383
    52   6 C      130   1 H                                       1.0931835
    53   7 N      131   1 H                                       1.0152163
    53   7 N      132   1 H                                       1.0153058
    54   6 C      133   1 H                                       1.0803361
    55   6 C      134   1 H                                       1.0804468
    57   6 C      135   1 H                                       1.0943100
    57   6 C      136   1 H                                       1.0968185
    58   7 N      137   1 H                                       1.0139284 (min)
    60   6 C      138   1 H                                       1.0738860
    63   6 C      139   1 H                                       1.0925067
    63   6 C      140   1 H                                       1.0921425
    64   6 C      141   1 H                                       1.0873749
    64   6 C      142   1 H                                       1.0876102
    64   6 C      143   1 H                                       1.0877568
    68   6 C      144   1 H                                       1.0905814
    68   6 C      145   1 H                                       1.0925577
    69   6 C      146   1 H                                       1.0873074
    69   6 C      147   1 H                                       1.0877599
    69   6 C      148   1 H                                       1.0879344
    72   6 C      149   1 H                                       1.0758643
    76   6 C      150   1 H                                       1.0753052
    79   6 C      151   1 H                                       1.0913606
    79   6 C      152   1 H                                       1.0923066
    80   6 C      153   1 H                                       1.0876515
    80   6 C      154   1 H                                       1.0872229
    80   6 C      155   1 H                                       1.0876991
    84   6 C      156   1 H                                       1.0915725
    84   6 C      157   1 H                                       1.0912202
    85   6 C      158   1 H                                       1.0877152
    85   6 C      159   1 H                                       1.0870094
    85   6 C      160   1 H                                       1.0877543
    88   6 C      161   1 H                                       1.0750410
    89   6 C      162   1 H                                       1.0727605

 * 5 distinct bonds (by element types)

   Z      Z             #   av. dist./Å        max./Å        min./Å
   1 H    6 C          69     1.0865924     1.0968185     1.0727605
   6 C    6 C          69     1.4164045     1.5301107     1.3473381
   1 H    7 N           3     1.0148168     1.0153058     1.0139284
   6 C    7 N           3     1.4356459     1.4702659     1.3779671
   6 C   16 S          18     1.7458230     1.7545908     1.7301094


optimized geometry written to: xtbopt.mol


           -------------------------------------------------
          | TOTAL ENERGY             -242.295722884980 Eh   |
          | GRADIENT NORM               0.000380527485 Eh/α |
          | HOMO-LUMO GAP               1.630094127857 eV   |
           -------------------------------------------------

------------------------------------------------------------------------
 * finished run on 2022/03/01 at 20:32:41.260     
------------------------------------------------------------------------
 total:
 * wall-time:     0 d,  0 h,  0 min, 52.824 sec
 *  cpu-time:     0 d,  0 h,  6 min, 58.186 sec
 * ratio c/w:     7.917 speedup
 SCF:
 * wall-time:     0 d,  0 h,  0 min,  0.440 sec
 *  cpu-time:     0 d,  0 h,  0 min,  3.508 sec
 * ratio c/w:     7.975 speedup
 ANC optimizer:
 * wall-time:     0 d,  0 h,  0 min, 51.672 sec
 *  cpu-time:     0 d,  0 h,  6 min, 53.066 sec
 * ratio c/w:     7.994 speedup

