      -----------------------------------------------------------      
     |                   =====================                   |     
     |                           x T B                           |     
     |                   =====================                   |     
     |                         S. Grimme                         |     
     |          Mulliken Center for Theoretical Chemistry        |     
     |                    University of Bonn                     |     
      -----------------------------------------------------------      

   * xtb version 6.4.1 (unknown) compiled by 'oda6@login1.crc.pitt.edu' on 2021-06-25

   xtb is free software: you can redistribute it and/or modify it under
   the terms of the GNU Lesser General Public License as published by
   the Free Software Foundation, either version 3 of the License, or
   (at your option) any later version.
   
   xtb is distributed in the hope that it will be useful,
   but WITHOUT ANY WARRANTY; without even the implied warranty of
   MERCHANTABILITY or FITNESS FOR A PARTICULAR PURPOSE.  See the
   GNU Lesser General Public License for more details.
   
   Cite this work as:
   * C. Bannwarth, E. Caldeweyher, S. Ehlert, A. Hansen, P. Pracht,
     J. Seibert, S. Spicher, S. Grimme, WIREs Comput. Mol. Sci., 2020, 11,
     e01493. DOI: 10.1002/wcms.1493
   
   for GFN2-xTB:
   * C. Bannwarth, S. Ehlert and S. Grimme., J. Chem. Theory Comput., 2019,
     15, 1652-1671. DOI: 10.1021/acs.jctc.8b01176
   for GFN1-xTB:
   * S. Grimme, C. Bannwarth, P. Shushkov, J. Chem. Theory Comput., 2017,
     13, 1989-2009. DOI: 10.1021/acs.jctc.7b00118
   for GFN0-xTB:
   * P. Pracht, E. Caldeweyher, S. Ehlert, S. Grimme, ChemRxiv, 2019, preprint.
     DOI: 10.26434/chemrxiv.8326202.v1
   for GFN-FF:
   * S. Spicher and S. Grimme, Angew. Chem. Int. Ed., 2020, 59, 15665-15673.
     DOI: 10.1002/anie.202004239
   
   for DFT-D4:
   * E. Caldeweyher, C. Bannwarth and S. Grimme, J. Chem. Phys., 2017,
     147, 034112. DOI: 10.1063/1.4993215
   * E. Caldeweyher, S. Ehlert, A. Hansen, H. Neugebauer, S. Spicher,
     C. Bannwarth and S. Grimme, J. Chem. Phys., 2019, 150, 154122.
     DOI: 10.1063/1.5090222
   * E. Caldeweyher, J.-M. Mewes, S. Ehlert and S. Grimme, Phys. Chem. Chem. Phys.
     2020, 22, 8499-8512. DOI: 10.1039/D0CP00502A
   
   for sTDA-xTB:
   * S. Grimme and C. Bannwarth, J. Chem. Phys., 2016, 145, 054103.
     DOI: 10.1063/1.4959605
   
   in the mass-spec context:
   * V. Asgeirsson, C. Bauer and S. Grimme, Chem. Sci., 2017, 8, 4879.
     DOI: 10.1039/c7sc00601b
   * J. Koopman and S. Grimme, ACS Omega 2019, 4, 12, 15120-15133.
     DOI: 10.1021/acsomega.9b02011
   
   for metadynamics refer to:
   * S. Grimme, J. Chem. Theory Comput., 2019, 155, 2847-2862
     DOI: 10.1021/acs.jctc.9b00143
   
   for SPH calculations refer to:
   * S. Spicher and S. Grimme, J. Chem. Theory Comput., 2021, 17, 1701-1714
     DOI: 10.1021/acs.jctc.0c01306
   
   with help from (in alphabetical order)
   P. Atkinson, C. Bannwarth, F. Bohle, G. Brandenburg, E. Caldeweyher
   M. Checinski, S. Dohm, S. Ehlert, S. Ehrlich, I. Gerasimov, J. Koopman
   C. Lavigne, S. Lehtola, F. März, M. Müller, F. Musil, H. Neugebauer
   J. Pisarek, C. Plett, P. Pracht, J. Seibert, P. Shushkov, S. Spicher
   M. Stahn, M. Steiner, T. Strunk, J. Stückrath, T. Rose, and J. Unsleber
   
 * started run on 2022/03/01 at 17:53:56.547     

           -------------------------------------------------
          |                Calculation Setup                |
           -------------------------------------------------

          program call               : /ihome/ghutchison/oda6/xtb/xtb-641/bin/xtb ../../FF_optimized/325_61_111011.mol -opt
          hostname                   : smp-n90
          coordinate file            : ../../FF_optimized/325_61_111011.mol
          omp threads                :                     8
          number of atoms            :                   226
          number of electrons        :                   814
          charge                     :                     0
          spin                       :                   0.0
          first test random number   :      0.89102569070513

   ID    Z sym.   atoms
    1    6 C      1-5, 7-10, 12, 14-17, 19-23, 26, 28, 29, 31-35, 37-40, 42,
                  44-47, 49-53, 56, 58, 59, 61-65, 67-70, 72, 74-77, 79-83,
                  86, 88, 89, 91-94, 96, 97, 99, 100, 102-106, 108-111, 113,
                  115-118, 120-124, 127, 129, 130, 132-136, 138-141, 143,
                  145-148, 150-154, 157, 159, 160
    2   16 S      6, 18, 27, 30, 36, 48, 57, 60, 66, 78, 87, 90, 95, 101,
                  107, 119, 128, 131, 137, 149, 158, 161
    3   17 Cl     11, 13, 24, 25, 41, 43, 54, 55, 71, 73, 84, 85, 112, 114,
                  125, 126, 142, 144, 155, 156
    4    7 N      98
    5    1 H      162-226
########################################################################
[WARNING] Please study the warnings concerning your input carefully
-1- prog_main_parseArguments: the use of '-opt' is discouraged, please use '--opt' next time
########################################################################

           -------------------------------------------------
          |                 G F N 2 - x T B                 |
           -------------------------------------------------

        Reference                      10.1021/acs.jctc.8b01176
      * Hamiltonian:
        H0-scaling (s, p, d)           1.850000    2.230000    2.230000
        zeta-weighting                 0.500000
      * Dispersion:
        s8                             2.700000
        a1                             0.520000
        a2                             5.000000
        s9                             5.000000
      * Repulsion:
        kExp                           1.500000    1.000000
        rExp                           1.000000
      * Coulomb:
        alpha                          2.000000
        third order                    shell-resolved
        anisotropic                    true
        a3                             3.000000
        a5                             4.000000
        cn-shift                       1.200000
        cn-exp                         4.000000
        max-rad                        5.000000


          ...................................................
          :                      SETUP                      :
          :.................................................:
          :  # basis functions                 961          :
          :  # atomic orbitals                 919          :
          :  # shells                          429          :
          :  # electrons                       814          :
          :  max. iterations                   250          :
          :  Hamiltonian                  GFN2-xTB          :
          :  restarted?                      false          :
          :  GBSA solvation                  false          :
          :  PC potential                    false          :
          :  electronic temp.          300.0000000     K    :
          :  accuracy                    1.0000000          :
          :  -> integral cutoff          0.2500000E+02      :
          :  -> integral neglect         0.1000000E-07      :
          :  -> SCF convergence          0.1000000E-05 Eh   :
          :  -> wf. convergence          0.1000000E-03 e    :
          :  Broyden damping             0.4000000          :
          ...................................................

 iter      E             dE          RMSdq      gap      omega  full diag
   1   -456.1029728 -0.456103E+03  0.441E+00    1.69       0.0  T
   2   -456.4127512 -0.309778E+00  0.248E+00    1.52       1.0  T
   3   -456.1864433  0.226308E+00  0.139E+00    1.56       1.0  T
   4   -456.4565163 -0.270073E+00  0.590E-01    1.50       1.0  T
   5   -456.5051218 -0.486055E-01  0.207E-01    1.52       1.0  T
   6   -456.5071085 -0.198672E-02  0.125E-01    1.52       1.0  T
   7   -456.5085419 -0.143337E-02  0.813E-02    1.52       1.0  T
   8   -456.5090226 -0.480699E-03  0.611E-02    1.53       1.0  T
   9   -456.5091986 -0.176042E-03  0.442E-02    1.53       1.0  T
  10   -456.5094137 -0.215078E-03  0.245E-02    1.54       1.0  T
  11   -456.5094676 -0.539421E-04  0.146E-02    1.54       1.0  T
  12   -456.5094841 -0.164623E-04  0.815E-03    1.54       1.0  T
  13   -456.5094911 -0.700070E-05  0.417E-03    1.54       1.6  T
  14   -456.5094928 -0.170862E-05  0.263E-03    1.54       2.5  T
  15   -456.5094931 -0.332010E-06  0.199E-03    1.54       3.3  T
  16   -456.5094934 -0.295389E-06  0.143E-03    1.54       4.7  T
  17   -456.5094936 -0.188590E-06  0.972E-04    1.54       6.8  T
  18   -456.5094937 -0.982633E-07  0.607E-04    1.54      11.0  T

   *** convergence criteria satisfied after 18 iterations ***

         #    Occupation            Energy/Eh            Energy/eV
      -------------------------------------------------------------
         1        2.0000           -1.0692620             -29.0961
       ...           ...                  ...                  ...
       401        2.0000           -0.3790450             -10.3143
       402        2.0000           -0.3778713             -10.2824
       403        2.0000           -0.3723569             -10.1323
       404        2.0000           -0.3700832             -10.0705
       405        2.0000           -0.3690547             -10.0425
       406        2.0000           -0.3675516             -10.0016
       407        2.0000           -0.3663172              -9.9680 (HOMO)
       408                         -0.3097293              -8.4282 (LUMO)
       409                         -0.3073909              -8.3645
       410                         -0.3010150              -8.1910
       411                         -0.2992623              -8.1433
       412                         -0.2953002              -8.0355
       ...                                ...                  ...
       919                          0.8466698              23.0391
      -------------------------------------------------------------
                  HL-Gap            0.0565878 Eh            1.5398 eV
             Fermi-level           -0.3380232 Eh           -9.1981 eV

 SCC (total)                   0 d,  0 h,  0 min,  1.652 sec
 SCC setup                      ...        0 min,  0.005 sec (  0.294%)
 Dispersion                     ...        0 min,  0.010 sec (  0.616%)
 classical contributions        ...        0 min,  0.000 sec (  0.027%)
 integral evaluation            ...        0 min,  0.072 sec (  4.338%)
 iterations                     ...        0 min,  1.358 sec ( 82.202%)
 molecular gradient             ...        0 min,  0.199 sec ( 12.058%)
 printout                       ...        0 min,  0.008 sec (  0.459%)

         :::::::::::::::::::::::::::::::::::::::::::::::::::::
         ::                     SUMMARY                     ::
         :::::::::::::::::::::::::::::::::::::::::::::::::::::
         :: total energy            -451.055430346145 Eh    ::
         :: gradient norm              0.615875588958 Eh/a0 ::
         :: HOMO-LUMO gap              1.539832571786 eV    ::
         ::.................................................::
         :: SCC energy              -456.509493714852 Eh    ::
         :: -> isotropic ES            0.093156373358 Eh    ::
         :: -> anisotropic ES         -0.028335487326 Eh    ::
         :: -> anisotropic XC          0.118787840370 Eh    ::
         :: -> dispersion             -0.451690560734 Eh    ::
         :: repulsion energy           5.444969705084 Eh    ::
         :: add. restraining           0.000000000000 Eh    ::
         :: total charge               0.000000000000 e     ::
         :::::::::::::::::::::::::::::::::::::::::::::::::::::

      ----------------------------------------------------------- 
     |                   =====================                   |
     |                        A N C O P T                        |
     |                   =====================                   |
     |               Approximate Normal Coordinate               |
     |                Rational Function Optimizer                |
      ----------------------------------------------------------- 

          ...................................................
          :                      SETUP                      :
          :.................................................:
          :   optimization level            normal          :
          :   max. optcycles                   678          :
          :   ANC micro-cycles                  20          :
          :   degrees of freedom               672          :
          :.................................................:
          :   RF solver                   davidson          :
          :   write xtbopt.log                true          :
          :   linear?                        false          :
          :   energy convergence         0.5000000E-05 Eh   :
          :   grad. convergence          0.1000000E-02 Eh/α :
          :   maximium RF displ.         1.0000000          :
          :   Hlow (freq-cutoff)         0.1000000E-01      :
          :   Hmax (freq-cutoff)         5.0000000          :
          :   S6 in model hess.         20.0000000          :
          ...................................................

generating ANC from model Hessian ...
Using Lindh-Hessian (1995)
 Shifting diagonal of input Hessian by   1.002639815196969E-002
 Lowest  eigenvalues of input Hessian
    0.010000    0.000000    0.000000    0.000000    0.000000    0.000000
    0.000000    0.010031    0.010037    0.010042    0.010045    0.010052
    0.010059    0.010071    0.010076    0.010094    0.010110    0.010122
 Highest eigenvalues
    2.167656    2.188345    2.189627    2.211005    2.227620    2.255981
 

........................................................................
.............................. CYCLE    1 ..............................
........................................................................
   1   -456.5094938 -0.456509E+03  0.357E-04    1.54       0.0  T
   2   -456.5094938 -0.256193E-08  0.294E-04    1.54      22.6  T
   3   -456.5094938 -0.698935E-08  0.233E-04    1.54      28.5  T
     SCC iter.                  ...        0 min,  0.236 sec
     gradient                   ...        0 min,  0.197 sec
 * total energy  :  -451.0554304 Eh     change       -0.4876847E-07 Eh
   gradient norm :     0.6158776 Eh/α   predicted     0.0000000E+00 (-100.00%)
   displ. norm   :     0.5650527 α      lambda       -0.2939708E+00
   maximum displ.:     0.1471723 α      in ANC's #569, #441, #395, ...

........................................................................
.............................. CYCLE    2 ..............................
........................................................................
   1   -456.5976521 -0.456598E+03  0.382E-01    1.52       0.0  T
   2   -456.5991942 -0.154218E-02  0.240E-01    1.52       1.0  T
   3   -456.5978289  0.136534E-02  0.135E-01    1.52       1.0  T
   4   -456.6008222 -0.299332E-02  0.430E-02    1.52       1.0  T
   5   -456.6009413 -0.119096E-03  0.267E-02    1.52       1.0  T
   6   -456.6010429 -0.101563E-03  0.129E-02    1.52       1.0  T
   7   -456.6010583 -0.154000E-04  0.921E-03    1.52       1.0  T
   8   -456.6010629 -0.463874E-05  0.673E-03    1.52       1.0  T
   9   -456.6010660 -0.308746E-05  0.415E-03    1.52       1.6  T
  10   -456.6010683 -0.225395E-05  0.217E-03    1.52       3.1  T
  11   -456.6010686 -0.387384E-06  0.134E-03    1.52       5.0  T
  12   -456.6010688 -0.129171E-06  0.846E-04    1.52       7.9  T
  13   -456.6010688 -0.538586E-07  0.545E-04    1.52      12.2  T
     SCC iter.                  ...        0 min,  0.988 sec
     gradient                   ...        0 min,  0.197 sec
 * total energy  :  -451.2844008 Eh     change       -0.2289704E+00 Eh
   gradient norm :     0.3454141 Eh/α   predicted    -0.1939430E+00 ( -15.30%)
   displ. norm   :     0.5610038 α      lambda       -0.1652497E+00
   maximum displ.:     0.1547072 α      in ANC's #569, #395, #441, ...

........................................................................
.............................. CYCLE    3 ..............................
........................................................................
   1   -456.6709521 -0.456671E+03  0.360E-01    1.41       0.0  T
   2   -456.6727337 -0.178157E-02  0.223E-01    1.41       1.0  T
   3   -456.6719886  0.745074E-03  0.125E-01    1.41       1.0  T
   4   -456.6743169 -0.232831E-02  0.453E-02    1.41       1.0  T
   5   -456.6744585 -0.141571E-03  0.260E-02    1.41       1.0  T
   6   -456.6745374 -0.788758E-04  0.148E-02    1.41       1.0  T
   7   -456.6745575 -0.200993E-04  0.101E-02    1.41       1.0  T
   8   -456.6745627 -0.525727E-05  0.756E-03    1.41       1.0  T
   9   -456.6745678 -0.511295E-05  0.403E-03    1.41       1.6  T
  10   -456.6745697 -0.180998E-05  0.220E-03    1.41       3.0  T
  11   -456.6745702 -0.512296E-06  0.125E-03    1.41       5.3  T
  12   -456.6745702 -0.766474E-07  0.881E-04    1.41       7.6  T
  13   -456.6745703 -0.699552E-07  0.538E-04    1.41      12.4  T
     SCC iter.                  ...        0 min,  0.987 sec
     gradient                   ...        0 min,  0.197 sec
 * total energy  :  -451.3981088 Eh     change       -0.1137080E+00 Eh
   gradient norm :     0.1251607 Eh/α   predicted    -0.1086354E+00 (  -4.46%)
   displ. norm   :     0.5826453 α      lambda       -0.5033825E-01
   maximum displ.:     0.1393646 α      in ANC's #130, #121, #124, ...

........................................................................
.............................. CYCLE    4 ..............................
........................................................................
   1   -456.7048615 -0.456705E+03  0.231E-01    1.31       0.0  T
   2   -456.7052786 -0.417022E-03  0.130E-01    1.33       1.0  T
   3   -456.7045413  0.737226E-03  0.732E-02    1.32       1.0  T
   4   -456.7055649 -0.102352E-02  0.260E-02    1.33       1.0  T
   5   -456.7056118 -0.469156E-04  0.152E-02    1.33       1.0  T
   6   -456.7056403 -0.285129E-04  0.813E-03    1.33       1.0  T
   7   -456.7056463 -0.605538E-05  0.564E-03    1.33       1.2  T
   8   -456.7056476 -0.127263E-05  0.433E-03    1.33       1.5  T
   9   -456.7056496 -0.202022E-05  0.216E-03    1.33       3.1  T
  10   -456.7056501 -0.478997E-06  0.123E-03    1.33       5.4  T
  11   -456.7056503 -0.155524E-06  0.756E-04    1.33       8.8  T
  12   -456.7056503 -0.272970E-07  0.526E-04    1.33      12.7  T
     SCC iter.                  ...        0 min,  0.903 sec
     gradient                   ...        0 min,  0.196 sec
 * total energy  :  -451.4337726 Eh     change       -0.3566377E-01 Eh
   gradient norm :     0.0456736 Eh/α   predicted    -0.3371344E-01 (  -5.47%)
   displ. norm   :     0.6722724 α      lambda       -0.2201709E-01
   maximum displ.:     0.1765029 α      in ANC's #130, #121, #124, ...

........................................................................
.............................. CYCLE    5 ..............................
........................................................................
   1   -456.7324611 -0.456732E+03  0.150E-01    1.28       0.0  T
   2   -456.7325229 -0.617778E-04  0.808E-02    1.29       1.0  T
   3   -456.7322880  0.234851E-03  0.362E-02    1.28       1.0  T
   4   -456.7325529 -0.264882E-03  0.135E-02    1.29       1.0  T
   5   -456.7325635 -0.106195E-04  0.693E-03    1.29       1.0  T
   6   -456.7325701 -0.655875E-05  0.374E-03    1.28       1.8  T
   7   -456.7325712 -0.108498E-05  0.283E-03    1.29       2.3  T
   8   -456.7325715 -0.339767E-06  0.208E-03    1.29       3.2  T
   9   -456.7325720 -0.492735E-06  0.996E-04    1.29       6.7  T
  10   -456.7325721 -0.977578E-07  0.625E-04    1.29      10.6  T
     SCC iter.                  ...        0 min,  0.774 sec
     gradient                   ...        0 min,  0.198 sec
 * total energy  :  -451.4512562 Eh     change       -0.1748366E-01 Eh
   gradient norm :     0.0283730 Eh/α   predicted    -0.1598411E-01 (  -8.58%)
   displ. norm   :     0.7341568 α      lambda       -0.1472836E-01
   maximum displ.:     0.1661546 α      in ANC's #130, #53, #76, ...

........................................................................
.............................. CYCLE    6 ..............................
........................................................................
   1   -456.7692649 -0.456769E+03  0.121E-01    1.27       0.0  T
   2   -456.7692977 -0.328604E-04  0.663E-02    1.27       1.0  T
   3   -456.7691562  0.141528E-03  0.288E-02    1.27       1.0  T
   4   -456.7693209 -0.164756E-03  0.973E-03    1.27       1.0  T
   5   -456.7693211 -0.195947E-06  0.584E-03    1.27       1.1  T
   6   -456.7693279 -0.678377E-05  0.257E-03    1.27       2.6  T
   7   -456.7693283 -0.369606E-06  0.205E-03    1.27       3.2  T
   8   -456.7693285 -0.235470E-06  0.138E-03    1.27       4.8  T
   9   -456.7693287 -0.187985E-06  0.734E-04    1.27       9.1  T
  10   -456.7693288 -0.655974E-07  0.427E-04    1.27      15.6  T
     SCC iter.                  ...        0 min,  0.751 sec
     gradient                   ...        0 min,  0.197 sec
 * total energy  :  -451.4633832 Eh     change       -0.1212695E-01 Eh
   gradient norm :     0.0230067 Eh/α   predicted    -0.1133337E-01 (  -6.54%)
   displ. norm   :     0.7502331 α      lambda       -0.1039540E-01
   maximum displ.:     0.1682448 α      in ANC's #76, #53, #72, ...

........................................................................
.............................. CYCLE    7 ..............................
........................................................................
   1   -456.8103910 -0.456810E+03  0.102E-01    1.27       0.0  T
   2   -456.8104212 -0.302345E-04  0.570E-02    1.27       1.0  T
   3   -456.8103113  0.109967E-03  0.253E-02    1.27       1.0  T
   4   -456.8104416 -0.130297E-03  0.806E-03    1.27       1.0  T
   5   -456.8104433 -0.174284E-05  0.441E-03    1.27       1.5  T
   6   -456.8104464 -0.312187E-05  0.209E-03    1.27       3.2  T
   7   -456.8104468 -0.405972E-06  0.154E-03    1.27       4.3  T
   8   -456.8104469 -0.104848E-06  0.115E-03    1.27       5.8  T
   9   -456.8104471 -0.125642E-06  0.593E-04    1.27      11.2  T
  10   -456.8104471 -0.392258E-07  0.347E-04    1.27      19.2  T
     SCC iter.                  ...        0 min,  0.754 sec
     gradient                   ...        0 min,  0.197 sec
 * total energy  :  -451.4719768 Eh     change       -0.8593649E-02 Eh
   gradient norm :     0.0181842 Eh/α   predicted    -0.8123235E-02 (  -5.47%)
   displ. norm   :     0.7443838 α      lambda       -0.7225565E-02
   maximum displ.:     0.1854660 α      in ANC's #76, #53, #72, ...

........................................................................
.............................. CYCLE    8 ..............................
........................................................................
   1   -456.8471637 -0.456847E+03  0.894E-02    1.28       0.0  T
   2   -456.8471865 -0.227949E-04  0.500E-02    1.28       1.0  T
   3   -456.8471022  0.843515E-04  0.215E-02    1.28       1.0  T
   4   -456.8471997 -0.975847E-04  0.697E-03    1.28       1.0  T
   5   -456.8472023 -0.256495E-05  0.348E-03    1.28       1.9  T
   6   -456.8472040 -0.169404E-05  0.157E-03    1.28       4.2  T
   7   -456.8472043 -0.262288E-06  0.109E-03    1.28       6.1  T
   8   -456.8472043 -0.496398E-07  0.843E-04    1.28       7.9  T
   9   -456.8472044 -0.606382E-07  0.464E-04    1.28      14.3  T
     SCC iter.                  ...        0 min,  0.673 sec
     gradient                   ...        0 min,  0.197 sec
 * total energy  :  -451.4779253 Eh     change       -0.5948483E-02 Eh
   gradient norm :     0.0142941 Eh/α   predicted    -0.5614653E-02 (  -5.61%)
   displ. norm   :     0.7274394 α      lambda       -0.4991295E-02
   maximum displ.:     0.1902619 α      in ANC's #53, #76, #72, ...

........................................................................
.............................. CYCLE    9 ..............................
........................................................................
   1   -456.8747617 -0.456875E+03  0.801E-02    1.28       0.0  T
   2   -456.8747767 -0.150147E-04  0.449E-02    1.28       1.0  T
   3   -456.8747018  0.748747E-04  0.196E-02    1.28       1.0  T
   4   -456.8747869 -0.850451E-04  0.598E-03    1.28       1.1  T
   5   -456.8747888 -0.191366E-05  0.293E-03    1.28       2.3  T
   6   -456.8747900 -0.119810E-05  0.129E-03    1.28       5.2  T
   7   -456.8747902 -0.162689E-06  0.900E-04    1.28       7.4  T
   8   -456.8747902 -0.375460E-07  0.685E-04    1.28       9.7  T
     SCC iter.                  ...        0 min,  0.606 sec
     gradient                   ...        0 min,  0.197 sec
 * total energy  :  -451.4820160 Eh     change       -0.4090731E-02 Eh
   gradient norm :     0.0116122 Eh/α   predicted    -0.3816266E-02 (  -6.71%)
   displ. norm   :     0.7053592 α      lambda       -0.3512298E-02
   maximum displ.:     0.1858032 α      in ANC's #53, #76, #38, ...

........................................................................
.............................. CYCLE   10 ..............................
........................................................................
   1   -456.8935413 -0.456894E+03  0.730E-02    1.29       0.0  T
   2   -456.8935514 -0.100608E-04  0.413E-02    1.29       1.0  T
   3   -456.8934832  0.682474E-04  0.185E-02    1.29       1.0  T
   4   -456.8935601 -0.769219E-04  0.513E-03    1.29       1.3  T
   5   -456.8935612 -0.108127E-05  0.267E-03    1.29       2.5  T
   6   -456.8935622 -0.106676E-05  0.120E-03    1.29       5.5  T
   7   -456.8935623 -0.122805E-06  0.876E-04    1.29       7.6  T
   8   -456.8935624 -0.392023E-07  0.649E-04    1.29      10.2  T
     SCC iter.                  ...        0 min,  0.601 sec
     gradient                   ...        0 min,  0.197 sec
 * total energy  :  -451.4848938 Eh     change       -0.2877738E-02 Eh
   gradient norm :     0.0102110 Eh/α   predicted    -0.2629890E-02 (  -8.61%)
   displ. norm   :     0.6880997 α      lambda       -0.2610816E-02
   maximum displ.:     0.1739037 α      in ANC's #53, #76, #38, ...

........................................................................
.............................. CYCLE   11 ..............................
........................................................................
   1   -456.9051600 -0.456905E+03  0.679E-02    1.29       0.0  T
   2   -456.9051677 -0.762044E-05  0.386E-02    1.29       1.0  T
   3   -456.9051097  0.579239E-04  0.170E-02    1.29       1.0  T
   4   -456.9051745 -0.647904E-04  0.455E-03    1.29       1.5  T
   5   -456.9051754 -0.827528E-06  0.248E-03    1.29       2.7  T
   6   -456.9051763 -0.919510E-06  0.114E-03    1.29       5.9  T
   7   -456.9051764 -0.103299E-06  0.842E-04    1.29       7.9  T
   8   -456.9051764 -0.358554E-07  0.626E-04    1.29      10.6  T
     SCC iter.                  ...        0 min,  0.616 sec
     gradient                   ...        0 min,  0.198 sec
 * total energy  :  -451.4870528 Eh     change       -0.2158990E-02 Eh
   gradient norm :     0.0098671 Eh/α   predicted    -0.1923495E-02 ( -10.91%)
   displ. norm   :     0.6850859 α      lambda       -0.2119104E-02
   maximum displ.:     0.1586775 α      in ANC's #43, #53, #16, ...

........................................................................
.............................. CYCLE   12 ..............................
........................................................................
   1   -456.9112495 -0.456911E+03  0.649E-02    1.30       0.0  T
   2   -456.9112560 -0.653923E-05  0.369E-02    1.30       1.0  T
   3   -456.9112133  0.427851E-04  0.147E-02    1.29       1.0  T
   4   -456.9112606 -0.473418E-04  0.425E-03    1.30       1.6  T
   5   -456.9112615 -0.946347E-06  0.227E-03    1.30       2.9  T
   6   -456.9112623 -0.723201E-06  0.106E-03    1.30       6.3  T
   7   -456.9112624 -0.905869E-07  0.789E-04    1.30       8.4  T
   8   -456.9112624 -0.286901E-07  0.594E-04    1.30      11.2  T
     SCC iter.                  ...        0 min,  0.610 sec
     gradient                   ...        0 min,  0.197 sec
 * total energy  :  -451.4888277 Eh     change       -0.1774906E-02 Eh
   gradient norm :     0.0096247 Eh/α   predicted    -0.1556848E-02 ( -12.29%)
   displ. norm   :     0.6910509 α      lambda       -0.1825362E-02
   maximum displ.:     0.1707459 α      in ANC's #16, #43, #15, ...

........................................................................
.............................. CYCLE   13 ..............................
........................................................................
   1   -456.9131621 -0.456913E+03  0.632E-02    1.30       0.0  T
   2   -456.9131681 -0.599737E-05  0.359E-02    1.30       1.0  T
   3   -456.9131416  0.264471E-04  0.118E-02    1.30       1.0  T
   4   -456.9131704 -0.287860E-04  0.410E-03    1.30       1.6  T
   5   -456.9131717 -0.124508E-05  0.201E-03    1.30       3.3  T
   6   -456.9131722 -0.526500E-06  0.939E-04    1.30       7.1  T
   7   -456.9131723 -0.717367E-07  0.692E-04    1.30       9.6  T
     SCC iter.                  ...        0 min,  0.530 sec
     gradient                   ...        0 min,  0.198 sec
 * total energy  :  -451.4903603 Eh     change       -0.1532581E-02 Eh
   gradient norm :     0.0088807 Eh/α   predicted    -0.1348537E-02 ( -12.01%)
   displ. norm   :     0.6912378 α      lambda       -0.1548381E-02
   maximum displ.:     0.1800648 α      in ANC's #15, #16, #18, ...

........................................................................
.............................. CYCLE   14 ..............................
........................................................................
   1   -456.9126885 -0.456913E+03  0.607E-02    1.30       0.0  T
   2   -456.9126940 -0.545615E-05  0.344E-02    1.30       1.0  T
   3   -456.9126772  0.168426E-04  0.973E-03    1.30       1.0  T
   4   -456.9126954 -0.181967E-04  0.386E-03    1.30       1.7  T
   5   -456.9126967 -0.130030E-05  0.177E-03    1.30       3.8  T
   6   -456.9126970 -0.364593E-06  0.874E-04    1.30       7.6  T
   7   -456.9126971 -0.554799E-07  0.651E-04    1.30      10.2  T
     SCC iter.                  ...        0 min,  0.541 sec
     gradient                   ...        0 min,  0.197 sec
 * total energy  :  -451.4916492 Eh     change       -0.1288939E-02 Eh
   gradient norm :     0.0077556 Eh/α   predicted    -0.1144110E-02 ( -11.24%)
   displ. norm   :     0.6808872 α      lambda       -0.1251011E-02
   maximum displ.:     0.1943388 α      in ANC's #15, #18, #16, ...

........................................................................
.............................. CYCLE   15 ..............................
........................................................................
   1   -456.9119268 -0.456912E+03  0.562E-02    1.30       0.0  T
   2   -456.9119314 -0.461854E-05  0.319E-02    1.30       1.0  T
   3   -456.9119160  0.154086E-04  0.927E-03    1.30       1.0  T
   4   -456.9119329 -0.169282E-04  0.340E-03    1.30       2.0  T
   5   -456.9119338 -0.860661E-06  0.163E-03    1.30       4.1  T
   6   -456.9119341 -0.350680E-06  0.840E-04    1.30       7.9  T
   7   -456.9119342 -0.553517E-07  0.630E-04    1.30      10.6  T
     SCC iter.                  ...        0 min,  0.535 sec
     gradient                   ...        0 min,  0.198 sec
 * total energy  :  -451.4926843 Eh     change       -0.1035099E-02 Eh
   gradient norm :     0.0069551 Eh/α   predicted    -0.9154963E-03 ( -11.55%)
   displ. norm   :     0.6657791 α      lambda       -0.1020296E-02
   maximum displ.:     0.2059008 α      in ANC's #15, #18, #16, ...

........................................................................
.............................. CYCLE   16 ..............................
........................................................................
   1   -456.9140588 -0.456914E+03  0.508E-02    1.30       0.0  T
   2   -456.9140629 -0.418104E-05  0.290E-02    1.30       1.0  T
   3   -456.9140480  0.149801E-04  0.904E-03    1.30       1.0  T
   4   -456.9140645 -0.165303E-04  0.307E-03    1.30       2.2  T
   5   -456.9140652 -0.664701E-06  0.158E-03    1.30       4.2  T
   6   -456.9140655 -0.322708E-06  0.884E-04    1.30       7.5  T
   7   -456.9140656 -0.682659E-07  0.660E-04    1.30      10.1  T
     SCC iter.                  ...        0 min,  0.536 sec
     gradient                   ...        0 min,  0.198 sec
 * total energy  :  -451.4935191 Eh     change       -0.8348396E-03 Eh
   gradient norm :     0.0069705 Eh/α   predicted    -0.7362798E-03 ( -11.81%)
   displ. norm   :     0.7113453 α      lambda       -0.9757564E-03
   maximum displ.:     0.2256863 α      in ANC's #15, #18, #16, ...

........................................................................
.............................. CYCLE   17 ..............................
........................................................................
   1   -456.9098082 -0.456910E+03  0.529E-02    1.30       0.0  T
   2   -456.9098181 -0.990221E-05  0.301E-02    1.30       1.0  T
   3   -456.9098046  0.135034E-04  0.924E-03    1.30       1.0  T
   4   -456.9098189 -0.143283E-04  0.374E-03    1.30       1.8  T
   5   -456.9098207 -0.185464E-05  0.166E-03    1.30       4.0  T
   6   -456.9098209 -0.132539E-06  0.107E-03    1.30       6.2  T
   7   -456.9098210 -0.143826E-06  0.690E-04    1.30       9.6  T
   8   -456.9098210 -0.222327E-07  0.533E-04    1.30      12.5  T
     SCC iter.                  ...        0 min,  0.616 sec
     gradient                   ...        0 min,  0.198 sec
 * total energy  :  -451.4940442 Eh     change       -0.5250629E-03 Eh
   gradient norm :     0.0143192 Eh/α   predicted    -0.7347519E-03 (  39.94%)
   displ. norm   :     0.5192052 α      lambda       -0.1113596E-02
   maximum displ.:     0.1760442 α      in ANC's #15, #18, #16, ...

........................................................................
.............................. CYCLE   18 ..............................
........................................................................
   1   -456.9215799 -0.456922E+03  0.373E-02    1.30       0.0  T
   2   -456.9215892 -0.923554E-05  0.210E-02    1.30       1.0  T
   3   -456.9215828  0.636682E-05  0.696E-03    1.30       1.0  T
   4   -456.9215891 -0.635940E-05  0.318E-03    1.30       2.1  T
   5   -456.9215908 -0.167874E-05  0.131E-03    1.30       5.1  T
   6   -456.9215909 -0.684329E-07  0.866E-04    1.30       7.7  T
   7   -456.9215910 -0.982324E-07  0.538E-04    1.30      12.4  T
     SCC iter.                  ...        0 min,  0.537 sec
     gradient                   ...        0 min,  0.201 sec
 * total energy  :  -451.4947718 Eh     change       -0.7276209E-03 Eh
   gradient norm :     0.0083487 Eh/α   predicted    -0.7068977E-03 (  -2.85%)
   displ. norm   :     0.6091790 α      lambda       -0.7249760E-03
   maximum displ.:     0.2026074 α      in ANC's #15, #18, #30, ...

........................................................................
.............................. CYCLE   19 ..............................
........................................................................
   1   -456.9165410 -0.456917E+03  0.440E-02    1.30       0.0  T
   2   -456.9165523 -0.113142E-04  0.250E-02    1.30       1.0  T
   3   -456.9165456  0.665753E-05  0.739E-03    1.30       1.0  T
   4   -456.9165521 -0.647595E-05  0.350E-03    1.30       1.9  T
   5   -456.9165541 -0.200613E-05  0.132E-03    1.30       5.0  T
   6   -456.9165541 -0.326805E-07  0.828E-04    1.30       8.0  T
   7   -456.9165542 -0.960488E-07  0.459E-04    1.30      14.5  T
     SCC iter.                  ...        0 min,  0.536 sec
     gradient                   ...        0 min,  0.197 sec
 * total energy  :  -451.4950165 Eh     change       -0.2446895E-03 Eh
   gradient norm :     0.0172495 Eh/α   predicted    -0.4970116E-03 ( 103.12%)
   displ. norm   :     0.4500497 α      lambda       -0.1028994E-02
   maximum displ.:     0.1603837 α      in ANC's #15, #18, #16, ...

........................................................................
.............................. CYCLE   20 ..............................
........................................................................
   1   -456.9202894 -0.456920E+03  0.326E-02    1.30       0.0  T
   2   -456.9202979 -0.844416E-05  0.183E-02    1.30       1.0  T
   3   -456.9202937  0.422208E-05  0.627E-03    1.30       1.1  T
   4   -456.9202979 -0.421414E-05  0.284E-03    1.30       2.3  T
   5   -456.9202992 -0.129812E-05  0.107E-03    1.30       6.2  T
   6   -456.9202992 -0.222450E-07  0.701E-04    1.30       9.5  T
   7   -456.9202993 -0.761102E-07  0.349E-04    1.30      19.0  T
     SCC iter.                  ...        0 min,  0.534 sec
     gradient                   ...        0 min,  0.198 sec
 * total energy  :  -451.4957039 Eh     change       -0.6874190E-03 Eh
   gradient norm :     0.0086313 Eh/α   predicted    -0.6187088E-03 ( -10.00%)
   displ. norm   :     0.5029361 α      lambda       -0.8383014E-03
   maximum displ.:     0.1762788 α      in ANC's #15, #18, #11, ...
 * RMSD in coord.:     0.6214046 α      energy gain  -0.4402736E+00 Eh

generating ANC from model Hessian ...
Using Lindh-Hessian (1995)
 Shifting diagonal of input Hessian by   1.023656414166867E-002
 Lowest  eigenvalues of input Hessian
    0.010000    0.010197    0.010223    0.000000    0.000000    0.000000
    0.000000    0.000000    0.000000    0.010243    0.010252    0.010257
    0.010260    0.010273    0.010288    0.010295    0.010307    0.010323
 Highest eigenvalues
    2.062662    2.071778    2.075362    2.080077    2.090510    2.171791
 

........................................................................
.............................. CYCLE   21 ..............................
........................................................................
   1   -456.9333093 -0.456933E+03  0.387E-02    1.30       0.0  T
   2   -456.9333211 -0.118046E-04  0.217E-02    1.30       1.0  T
   3   -456.9333116  0.944649E-05  0.840E-03    1.30       1.0  T
   4   -456.9333213 -0.968471E-05  0.361E-03    1.30       1.8  T
   5   -456.9333234 -0.209996E-05  0.144E-03    1.30       4.6  T
   6   -456.9333235 -0.828649E-07  0.927E-04    1.30       7.2  T
   7   -456.9333236 -0.121451E-06  0.495E-04    1.30      13.4  T
     SCC iter.                  ...        0 min,  0.531 sec
     gradient                   ...        0 min,  0.198 sec
 * total energy  :  -451.4959439 Eh     change       -0.2399411E-03 Eh
   gradient norm :     0.0165933 Eh/α   predicted     0.0000000E+00 (-100.00%)
   displ. norm   :     0.1160191 α      lambda       -0.7019686E-03
   maximum displ.:     0.0343174 α      in ANC's #17, #16, #12, ...

........................................................................
.............................. CYCLE   22 ..............................
........................................................................
   1   -456.9253963 -0.456925E+03  0.192E-02    1.30       0.0  T
   2   -456.9254012 -0.489572E-05  0.107E-02    1.30       1.0  T
   3   -456.9253999  0.129295E-05  0.414E-03    1.30       1.6  T
   4   -456.9254013 -0.139516E-05  0.195E-03    1.30       3.4  T
   5   -456.9254019 -0.574910E-06  0.764E-04    1.30       8.7  T
   6   -456.9254019 -0.151043E-07  0.492E-04    1.30      13.5  T
     SCC iter.                  ...        0 min,  0.459 sec
     gradient                   ...        0 min,  0.198 sec
 * total energy  :  -451.4964173 Eh     change       -0.4734665E-03 Eh
   gradient norm :     0.0049270 Eh/α   predicted    -0.3557102E-03 ( -24.87%)
   displ. norm   :     0.1819091 α      lambda       -0.3102625E-03
   maximum displ.:     0.0601369 α      in ANC's #17, #16, #12, ...

........................................................................
.............................. CYCLE   23 ..............................
........................................................................
   1   -456.9208857 -0.456921E+03  0.179E-02    1.31       0.0  T
   2   -456.9208875 -0.172460E-05  0.101E-02    1.31       1.0  T
   3   -456.9208849  0.253523E-05  0.416E-03    1.31       1.6  T
   4   -456.9208878 -0.285408E-05  0.155E-03    1.31       4.3  T
   5   -456.9208880 -0.257107E-06  0.780E-04    1.31       8.5  T
   6   -456.9208881 -0.376021E-07  0.508E-04    1.31      13.1  T
     SCC iter.                  ...        0 min,  0.460 sec
     gradient                   ...        0 min,  0.198 sec
 * total energy  :  -451.4966503 Eh     change       -0.2329242E-03 Eh
   gradient norm :     0.0038742 Eh/α   predicted    -0.1602756E-03 ( -31.19%)
   displ. norm   :     0.3249977 α      lambda       -0.3509581E-03
   maximum displ.:     0.1111163 α      in ANC's #17, #16, #12, ...

........................................................................
.............................. CYCLE   24 ..............................
........................................................................
   1   -456.9174396 -0.456917E+03  0.270E-02    1.31       0.0  T
   2   -456.9174413 -0.167956E-05  0.154E-02    1.31       1.0  T
   3   -456.9174363  0.499772E-05  0.542E-03    1.31       1.2  T
   4   -456.9174418 -0.554854E-05  0.194E-03    1.31       3.4  T
   5   -456.9174421 -0.288416E-06  0.104E-03    1.31       6.4  T
   6   -456.9174422 -0.116587E-06  0.601E-04    1.31      11.1  T
   7   -456.9174423 -0.239735E-07  0.474E-04    1.31      14.0  T
     SCC iter.                  ...        0 min,  0.537 sec
     gradient                   ...        0 min,  0.198 sec
 * total energy  :  -451.4969250 Eh     change       -0.2747193E-03 Eh
   gradient norm :     0.0084235 Eh/α   predicted    -0.1940203E-03 ( -29.38%)
   displ. norm   :     0.4596436 α      lambda       -0.4244896E-03
   maximum displ.:     0.1609331 α      in ANC's #17, #16, #12, ...

........................................................................
.............................. CYCLE   25 ..............................
........................................................................
   1   -456.9159660 -0.456916E+03  0.344E-02    1.31       0.0  T
   2   -456.9159676 -0.155908E-05  0.195E-02    1.31       1.0  T
   3   -456.9159629  0.466931E-05  0.533E-03    1.31       1.2  T
   4   -456.9159680 -0.513417E-05  0.217E-03    1.31       3.1  T
   5   -456.9159684 -0.328843E-06  0.104E-03    1.31       6.4  T
   6   -456.9159685 -0.151558E-06  0.556E-04    1.31      12.0  T
   7   -456.9159685 -0.157763E-07  0.456E-04    1.31      14.6  T
     SCC iter.                  ...        0 min,  0.534 sec
     gradient                   ...        0 min,  0.198 sec
 * total energy  :  -451.4972735 Eh     change       -0.3484871E-03 Eh
   gradient norm :     0.0105209 Eh/α   predicted    -0.2571835E-03 ( -26.20%)
   displ. norm   :     0.5535792 α      lambda       -0.5258805E-03
   maximum displ.:     0.2002914 α      in ANC's #17, #16, #12, ...

........................................................................
.............................. CYCLE   26 ..............................
........................................................................
   1   -456.9179310 -0.456918E+03  0.373E-02    1.31       0.0  T
   2   -456.9179328 -0.176678E-05  0.211E-02    1.31       1.0  T
   3   -456.9179309  0.188893E-05  0.399E-03    1.31       1.7  T
   4   -456.9179327 -0.183479E-05  0.224E-03    1.31       3.0  T
   5   -456.9179333 -0.611255E-06  0.876E-04    1.31       7.6  T
   6   -456.9179335 -0.108664E-06  0.452E-04    1.31      14.7  T
     SCC iter.                  ...        0 min,  0.461 sec
     gradient                   ...        0 min,  0.198 sec
 * total energy  :  -451.4977151 Eh     change       -0.4416309E-03 Eh
   gradient norm :     0.0085966 Eh/α   predicted    -0.3435704E-03 ( -22.20%)
   displ. norm   :     0.6045897 α      lambda       -0.5719305E-03
   maximum displ.:     0.2251258 α      in ANC's #17, #16, #12, ...

........................................................................
.............................. CYCLE   27 ..............................
........................................................................
   1   -456.9232574 -0.456923E+03  0.367E-02    1.31       0.0  T
   2   -456.9232596 -0.226706E-05  0.208E-02    1.31       1.0  T
   3   -456.9232574  0.223575E-05  0.445E-03    1.31       1.5  T
   4   -456.9232599 -0.249016E-05  0.211E-03    1.31       3.2  T
   5   -456.9232603 -0.381505E-06  0.877E-04    1.31       7.6  T
   6   -456.9232603 -0.813316E-07  0.473E-04    1.31      14.1  T
     SCC iter.                  ...        0 min,  0.463 sec
     gradient                   ...        0 min,  0.198 sec
 * total energy  :  -451.4981908 Eh     change       -0.4757023E-03 Eh
   gradient norm :     0.0048948 Eh/α   predicted    -0.3904989E-03 ( -17.91%)
   displ. norm   :     0.6914764 α      lambda       -0.5334945E-03
   maximum displ.:     0.2575809 α      in ANC's #17, #16, #12, ...

........................................................................
.............................. CYCLE   28 ..............................
........................................................................
   1   -456.9258917 -0.456926E+03  0.397E-02    1.31       0.0  T
   2   -456.9258936 -0.192020E-05  0.227E-02    1.31       1.0  T
   3   -456.9258894  0.421068E-05  0.550E-03    1.31       1.2  T
   4   -456.9258942 -0.475492E-05  0.217E-03    1.31       3.1  T
   5   -456.9258945 -0.278060E-06  0.101E-03    1.31       6.6  T
   6   -456.9258946 -0.144529E-06  0.524E-04    1.31      12.7  T
   7   -456.9258946 -0.163400E-07  0.407E-04    1.31      16.4  T
     SCC iter.                  ...        0 min,  0.533 sec
     gradient                   ...        0 min,  0.197 sec
 * total energy  :  -451.4986611 Eh     change       -0.4702915E-03 Eh
   gradient norm :     0.0046357 Eh/α   predicted    -0.3942970E-03 ( -16.16%)
   displ. norm   :     0.7334600 α      lambda       -0.5586318E-03
   maximum displ.:     0.2726841 α      in ANC's #17, #16, #12, ...

........................................................................
.............................. CYCLE   29 ..............................
........................................................................
   1   -456.9284468 -0.456928E+03  0.406E-02    1.31       0.0  T
   2   -456.9284490 -0.212481E-05  0.233E-02    1.31       1.0  T
   3   -456.9284423  0.665949E-05  0.653E-03    1.31       1.0  T
   4   -456.9284498 -0.748878E-05  0.222E-03    1.31       3.0  T
   5   -456.9284501 -0.273424E-06  0.110E-03    1.31       6.0  T
   6   -456.9284502 -0.160662E-06  0.601E-04    1.31      11.1  T
   7   -456.9284503 -0.218467E-07  0.468E-04    1.31      14.2  T
     SCC iter.                  ...        0 min,  0.543 sec
     gradient                   ...        0 min,  0.198 sec
 * total energy  :  -451.4991504 Eh     change       -0.4893049E-03 Eh
   gradient norm :     0.0054944 Eh/α   predicted    -0.4296933E-03 ( -12.18%)
   displ. norm   :     0.7825442 α      lambda       -0.5259877E-03
   maximum displ.:     0.2898666 α      in ANC's #17, #16, #12, ...

........................................................................
.............................. CYCLE   30 ..............................
........................................................................
   1   -456.9260472 -0.456926E+03  0.427E-02    1.31       0.0  T
   2   -456.9260493 -0.208016E-05  0.245E-02    1.31       1.0  T
   3   -456.9260448  0.441748E-05  0.544E-03    1.31       1.2  T
   4   -456.9260497 -0.490777E-05  0.224E-03    1.31       3.0  T
   5   -456.9260501 -0.379379E-06  0.999E-04    1.31       6.7  T
   6   -456.9260503 -0.129233E-06  0.547E-04    1.31      12.2  T
     SCC iter.                  ...        0 min,  0.472 sec
     gradient                   ...        0 min,  0.198 sec
 * total energy  :  -451.4996132 Eh     change       -0.4628474E-03 Eh
   gradient norm :     0.0057778 Eh/α   predicted    -0.4240598E-03 (  -8.38%)
   displ. norm   :     0.7346332 α      lambda       -0.5438110E-03
   maximum displ.:     0.2648467 α      in ANC's #17, #16, #12, ...

........................................................................
.............................. CYCLE   31 ..............................
........................................................................
   1   -456.9296123 -0.456930E+03  0.420E-02    1.31       0.0  T
   2   -456.9296150 -0.262246E-05  0.240E-02    1.31       1.0  T
   3   -456.9296089  0.600870E-05  0.603E-03    1.31       1.1  T
   4   -456.9296155 -0.659023E-05  0.239E-03    1.31       2.8  T
   5   -456.9296160 -0.479626E-06  0.117E-03    1.31       5.7  T
   6   -456.9296162 -0.153744E-06  0.654E-04    1.31      10.2  T
   7   -456.9296162 -0.300515E-07  0.495E-04    1.31      13.4  T
     SCC iter.                  ...        0 min,  0.544 sec
     gradient                   ...        0 min,  0.198 sec
 * total energy  :  -451.5000324 Eh     change       -0.4191472E-03 Eh
   gradient norm :     0.0077586 Eh/α   predicted    -0.4186545E-03 (  -0.12%)
   displ. norm   :     0.7845784 α      lambda       -0.5149450E-03
   maximum displ.:     0.2895039 α      in ANC's #17, #16, #12, ...

........................................................................
.............................. CYCLE   32 ..............................
........................................................................
   1   -456.9221434 -0.456922E+03  0.429E-02    1.31       0.0  T
   2   -456.9221464 -0.299622E-05  0.246E-02    1.31       1.0  T
   3   -456.9221418  0.462502E-05  0.534E-03    1.31       1.2  T
   4   -456.9221467 -0.491169E-05  0.235E-03    1.31       2.8  T
   5   -456.9221473 -0.610653E-06  0.106E-03    1.31       6.2  T
   6   -456.9221475 -0.122256E-06  0.567E-04    1.31      11.7  T
   7   -456.9221475 -0.304468E-07  0.393E-04    1.31      16.9  T
     SCC iter.                  ...        0 min,  0.543 sec
     gradient                   ...        0 min,  0.197 sec
 * total energy  :  -451.5004550 Eh     change       -0.4225997E-03 Eh
   gradient norm :     0.0063383 Eh/α   predicted    -0.4159657E-03 (  -1.57%)
   displ. norm   :     0.6660844 α      lambda       -0.4807916E-03
   maximum displ.:     0.2424897 α      in ANC's #16, #17, #12, ...

........................................................................
.............................. CYCLE   33 ..............................
........................................................................
   1   -456.9209898 -0.456921E+03  0.372E-02    1.31       0.0  T
   2   -456.9209917 -0.195078E-05  0.214E-02    1.31       1.0  T
   3   -456.9209833  0.840308E-05  0.677E-03    1.31       1.0  T
   4   -456.9209926 -0.925330E-05  0.216E-03    1.31       3.1  T
   5   -456.9209929 -0.338166E-06  0.119E-03    1.31       5.6  T
   6   -456.9209931 -0.180026E-06  0.639E-04    1.31      10.4  T
   7   -456.9209931 -0.254025E-07  0.509E-04    1.31      13.1  T
     SCC iter.                  ...        0 min,  0.524 sec
     gradient                   ...        0 min,  0.198 sec
 * total energy  :  -451.5008669 Eh     change       -0.4118736E-03 Eh
   gradient norm :     0.0053539 Eh/α   predicted    -0.3470761E-03 ( -15.73%)
   displ. norm   :     0.6885583 α      lambda       -0.4937841E-03
   maximum displ.:     0.2506163 α      in ANC's #16, #17, #12, ...

........................................................................
.............................. CYCLE   34 ..............................
........................................................................
   1   -456.9239518 -0.456924E+03  0.400E-02    1.31       0.0  T
   2   -456.9239542 -0.244355E-05  0.229E-02    1.31       1.0  T
   3   -456.9239453  0.895002E-05  0.715E-03    1.31       1.0  T
   4   -456.9239551 -0.984750E-05  0.243E-03    1.31       2.7  T
   5   -456.9239556 -0.470423E-06  0.130E-03    1.31       5.1  T
   6   -456.9239558 -0.188184E-06  0.739E-04    1.31       9.0  T
   7   -456.9239558 -0.354320E-07  0.591E-04    1.31      11.2  T
     SCC iter.                  ...        0 min,  0.524 sec
     gradient                   ...        0 min,  0.198 sec
 * total energy  :  -451.5012749 Eh     change       -0.4080631E-03 Eh
   gradient norm :     0.0053832 Eh/α   predicted    -0.3639504E-03 ( -10.81%)
   displ. norm   :     0.7700492 α      lambda       -0.4168574E-03
   maximum displ.:     0.2821970 α      in ANC's #16, #17, #12, ...

........................................................................
.............................. CYCLE   35 ..............................
........................................................................
   1   -456.9237708 -0.456924E+03  0.417E-02    1.32       0.0  T
   2   -456.9237726 -0.178665E-05  0.238E-02    1.32       1.0  T
   3   -456.9237676  0.494484E-05  0.554E-03    1.32       1.2  T
   4   -456.9237731 -0.542828E-05  0.227E-03    1.32       2.9  T
   5   -456.9237735 -0.390805E-06  0.107E-03    1.32       6.2  T
   6   -456.9237736 -0.147564E-06  0.584E-04    1.32      11.4  T
   7   -456.9237736 -0.178201E-07  0.470E-04    1.32      14.1  T
     SCC iter.                  ...        0 min,  0.524 sec
     gradient                   ...        0 min,  0.197 sec
 * total energy  :  -451.5016425 Eh     change       -0.3675799E-03 Eh
   gradient norm :     0.0056565 Eh/α   predicted    -0.3320239E-03 (  -9.67%)
   displ. norm   :     0.7285581 α      lambda       -0.4191228E-03
   maximum displ.:     0.2677083 α      in ANC's #16, #17, #12, ...

........................................................................
.............................. CYCLE   36 ..............................
........................................................................
   1   -456.9307423 -0.456931E+03  0.411E-02    1.32       0.0  T
   2   -456.9307446 -0.231194E-05  0.234E-02    1.32       1.0  T
   3   -456.9307382  0.643517E-05  0.630E-03    1.32       1.1  T
   4   -456.9307454 -0.715890E-05  0.235E-03    1.32       2.8  T
   5   -456.9307457 -0.343563E-06  0.113E-03    1.32       5.9  T
   6   -456.9307459 -0.174826E-06  0.580E-04    1.32      11.5  T
   7   -456.9307459 -0.248236E-07  0.439E-04    1.32      15.1  T
     SCC iter.                  ...        0 min,  0.524 sec
     gradient                   ...        0 min,  0.197 sec
 * total energy  :  -451.5019792 Eh     change       -0.3367130E-03 Eh
   gradient norm :     0.0045276 Eh/α   predicted    -0.3207967E-03 (  -4.73%)
   displ. norm   :     0.8298019 α      lambda       -0.3825210E-03
   maximum displ.:     0.3031732 α      in ANC's #16, #17, #12, ...

........................................................................
.............................. CYCLE   37 ..............................
........................................................................
   1   -456.9263697 -0.456926E+03  0.440E-02    1.32       0.0  T
   2   -456.9263724 -0.262775E-05  0.250E-02    1.32       1.0  T
   3   -456.9263660  0.638131E-05  0.649E-03    1.32       1.0  T
   4   -456.9263732 -0.718519E-05  0.243E-03    1.32       2.7  T
   5   -456.9263735 -0.340662E-06  0.117E-03    1.32       5.7  T
   6   -456.9263737 -0.182912E-06  0.632E-04    1.32      10.5  T
   7   -456.9263737 -0.281916E-07  0.480E-04    1.32      13.9  T
     SCC iter.                  ...        0 min,  0.524 sec
     gradient                   ...        0 min,  0.197 sec
 * total energy  :  -451.5022749 Eh     change       -0.2956999E-03 Eh
   gradient norm :     0.0051037 Eh/α   predicted    -0.3229583E-03 (   9.22%)
   displ. norm   :     0.6649855 α      lambda       -0.2977150E-03
   maximum displ.:     0.2447795 α      in ANC's #16, #17, #11, ...

........................................................................
.............................. CYCLE   38 ..............................
........................................................................
   1   -456.9292891 -0.456929E+03  0.348E-02    1.32       0.0  T
   2   -456.9292909 -0.181574E-05  0.197E-02    1.32       1.0  T
   3   -456.9292854  0.551405E-05  0.593E-03    1.32       1.1  T
   4   -456.9292916 -0.622767E-05  0.209E-03    1.32       3.2  T
   5   -456.9292918 -0.209215E-06  0.108E-03    1.32       6.2  T
   6   -456.9292920 -0.165274E-06  0.577E-04    1.32      11.5  T
   7   -456.9292920 -0.209786E-07  0.457E-04    1.32      14.5  T
     SCC iter.                  ...        0 min,  0.526 sec
     gradient                   ...        0 min,  0.198 sec
 * total energy  :  -451.5025244 Eh     change       -0.2494638E-03 Eh
   gradient norm :     0.0048898 Eh/α   predicted    -0.2146852E-03 ( -13.94%)
   displ. norm   :     0.7084351 α      lambda       -0.2997906E-03
   maximum displ.:     0.2600700 α      in ANC's #16, #11, #17, ...

........................................................................
.............................. CYCLE   39 ..............................
........................................................................
   1   -456.9324916 -0.456932E+03  0.359E-02    1.32       0.0  T
   2   -456.9324935 -0.194986E-05  0.203E-02    1.32       1.0  T
   3   -456.9324889  0.464127E-05  0.552E-03    1.32       1.2  T
   4   -456.9324941 -0.519965E-05  0.210E-03    1.32       3.2  T
   5   -456.9324944 -0.271333E-06  0.958E-04    1.32       6.9  T
   6   -456.9324945 -0.118249E-06  0.515E-04    1.32      12.9  T
     SCC iter.                  ...        0 min,  0.452 sec
     gradient                   ...        0 min,  0.197 sec
 * total energy  :  -451.5027741 Eh     change       -0.2497142E-03 Eh
   gradient norm :     0.0049576 Eh/α   predicted    -0.2251267E-03 (  -9.85%)
   displ. norm   :     0.7156991 α      lambda       -0.3032344E-03
   maximum displ.:     0.2557807 α      in ANC's #16, #11, #5, ...

........................................................................
.............................. CYCLE   40 ..............................
........................................................................
   1   -456.9350634 -0.456935E+03  0.361E-02    1.32       0.0  T
   2   -456.9350653 -0.184193E-05  0.204E-02    1.32       1.0  T
   3   -456.9350598  0.542958E-05  0.564E-03    1.32       1.2  T
   4   -456.9350658 -0.595495E-05  0.219E-03    1.32       3.0  T
   5   -456.9350661 -0.348487E-06  0.979E-04    1.32       6.8  T
   6   -456.9350663 -0.134425E-06  0.497E-04    1.32      13.4  T
     SCC iter.                  ...        0 min,  0.452 sec
     gradient                   ...        0 min,  0.197 sec
 * total energy  :  -451.5030296 Eh     change       -0.2555413E-03 Eh
   gradient norm :     0.0050777 Eh/α   predicted    -0.2292850E-03 ( -10.27%)
   displ. norm   :     0.7661444 α      lambda       -0.3029352E-03
   maximum displ.:     0.2712736 α      in ANC's #16, #11, #5, ...

........................................................................
.............................. CYCLE   41 ..............................
........................................................................
   1   -456.9329539 -0.456933E+03  0.379E-02    1.32       0.0  T
   2   -456.9329557 -0.178346E-05  0.215E-02    1.32       1.0  T
   3   -456.9329468  0.888384E-05  0.670E-03    1.32       1.0  T
   4   -456.9329565 -0.971135E-05  0.223E-03    1.32       3.0  T
   5   -456.9329568 -0.341623E-06  0.102E-03    1.32       6.5  T
   6   -456.9329570 -0.152461E-06  0.488E-04    1.32      13.6  T
   7   -456.9329570 -0.174488E-07  0.371E-04    1.32      17.9  T
     SCC iter.                  ...        0 min,  0.525 sec
     gradient                   ...        0 min,  0.197 sec
 * total energy  :  -451.5032949 Eh     change       -0.2652774E-03 Eh
   gradient norm :     0.0042818 Eh/α   predicted    -0.2403768E-03 (  -9.39%)
   displ. norm   :     0.7350313 α      lambda       -0.2996169E-03
   maximum displ.:     0.2486540 α      in ANC's #5, #11, #16, ...

........................................................................
.............................. CYCLE   42 ..............................
........................................................................
   1   -456.9332898 -0.456933E+03  0.369E-02    1.32       0.0  T
   2   -456.9332918 -0.199943E-05  0.209E-02    1.32       1.0  T
   3   -456.9332823  0.949443E-05  0.686E-03    1.32       1.0  T
   4   -456.9332926 -0.103766E-04  0.228E-03    1.32       2.9  T
   5   -456.9332930 -0.412715E-06  0.106E-03    1.32       6.3  T
   6   -456.9332932 -0.138002E-06  0.541E-04    1.32      12.3  T
   7   -456.9332932 -0.217533E-07  0.408E-04    1.32      16.3  T
     SCC iter.                  ...        0 min,  0.526 sec
     gradient                   ...        0 min,  0.197 sec
 * total energy  :  -451.5035444 Eh     change       -0.2494665E-03 Eh
   gradient norm :     0.0045429 Eh/α   predicted    -0.2307519E-03 (  -7.50%)
   displ. norm   :     0.7442276 α      lambda       -0.2804851E-03
   maximum displ.:     0.2651533 α      in ANC's #5, #11, #16, ...
 * RMSD in coord.:     0.8819063 α      energy gain  -0.7840455E-02 Eh

generating ANC from model Hessian ...
Using Lindh-Hessian (1995)
 Shifting diagonal of input Hessian by   1.017667669774262E-002
 Lowest  eigenvalues of input Hessian
    0.010000    0.010146    0.000000    0.000000    0.000000    0.000000
    0.000000    0.000000    0.010181    0.010186    0.010195    0.010198
    0.010206    0.010227    0.010235    0.010244    0.010272    0.010279
 Highest eigenvalues
    2.064623    2.072380    2.075879    2.083600    2.092112    2.167139
 

........................................................................
.............................. CYCLE   43 ..............................
........................................................................
   1   -456.9333663 -0.456933E+03  0.360E-02    1.32       0.0  T
   2   -456.9333680 -0.172921E-05  0.204E-02    1.32       1.0  T
   3   -456.9333627  0.531902E-05  0.534E-03    1.32       1.2  T
   4   -456.9333684 -0.572332E-05  0.218E-03    1.32       3.1  T
   5   -456.9333688 -0.456788E-06  0.956E-04    1.32       7.0  T
   6   -456.9333690 -0.111985E-06  0.506E-04    1.32      13.2  T
     SCC iter.                  ...        0 min,  0.452 sec
     gradient                   ...        0 min,  0.197 sec
 * total energy  :  -451.5037804 Eh     change       -0.2360233E-03 Eh
   gradient norm :     0.0048524 Eh/α   predicted     0.0000000E+00 (-100.00%)
   displ. norm   :     0.0569481 α      lambda       -0.6682921E-04
   maximum displ.:     0.0223456 α      in ANC's #3, #4, #11, ...

........................................................................
.............................. CYCLE   44 ..............................
........................................................................
   1   -456.9333826 -0.456933E+03  0.642E-03    1.32       0.0  T
   2   -456.9333829 -0.229870E-06  0.367E-03    1.32       1.8  T
   3   -456.9333822  0.674835E-06  0.203E-03    1.32       3.3  T
   4   -456.9333830 -0.803017E-06  0.605E-04    1.32      11.0  T
   5   -456.9333830 -0.333451E-07  0.337E-04    1.32      19.7  T
     SCC iter.                  ...        0 min,  0.378 sec
     gradient                   ...        0 min,  0.197 sec
 * total energy  :  -451.5038389 Eh     change       -0.5849578E-04 Eh
   gradient norm :     0.0026749 Eh/α   predicted    -0.3518020E-04 ( -39.86%)
   displ. norm   :     0.1958248 α      lambda       -0.1504044E-03
   maximum displ.:     0.0787678 α      in ANC's #3, #4, #11, ...

........................................................................
.............................. CYCLE   45 ..............................
........................................................................
   1   -456.9339412 -0.456934E+03  0.174E-02    1.32       0.0  T
   2   -456.9339426 -0.139587E-05  0.987E-03    1.32       1.0  T
   3   -456.9339374  0.526215E-05  0.555E-03    1.32       1.2  T
   4   -456.9339436 -0.622852E-05  0.158E-03    1.32       4.2  T
   5   -456.9339438 -0.219427E-06  0.859E-04    1.32       7.7  T
   6   -456.9339439 -0.847007E-07  0.488E-04    1.32      13.6  T
     SCC iter.                  ...        0 min,  0.467 sec
     gradient                   ...        0 min,  0.197 sec
 * total energy  :  -451.5039398 Eh     change       -0.1009247E-03 Eh
   gradient norm :     0.0030094 Eh/α   predicted    -0.7808646E-04 ( -22.63%)
   displ. norm   :     0.1815698 α      lambda       -0.7636576E-04
   maximum displ.:     0.0765865 α      in ANC's #3, #4, #11, ...

........................................................................
.............................. CYCLE   46 ..............................
........................................................................
   1   -456.9346893 -0.456935E+03  0.130E-02    1.32       0.0  T
   2   -456.9346898 -0.531684E-06  0.732E-03    1.32       1.0  T
   3   -456.9346876  0.222385E-05  0.348E-03    1.32       1.9  T
   4   -456.9346901 -0.251760E-05  0.110E-03    1.32       6.0  T
   5   -456.9346902 -0.104262E-06  0.601E-04    1.32      11.1  T
   6   -456.9346903 -0.391460E-07  0.358E-04    1.32      18.6  T
     SCC iter.                  ...        0 min,  0.470 sec
     gradient                   ...        0 min,  0.197 sec
 * total energy  :  -451.5040037 Eh     change       -0.6387024E-04 Eh
   gradient norm :     0.0046692 Eh/α   predicted    -0.3982890E-04 ( -37.64%)
   displ. norm   :     0.3336506 α      lambda       -0.1384086E-03
   maximum displ.:     0.1413602 α      in ANC's #3, #4, #11, ...

........................................................................
.............................. CYCLE   47 ..............................
........................................................................
   1   -456.9358320 -0.456936E+03  0.210E-02    1.32       0.0  T
   2   -456.9358329 -0.897221E-06  0.118E-02    1.32       1.0  T
   3   -456.9358299  0.300459E-05  0.414E-03    1.32       1.6  T
   4   -456.9358333 -0.332341E-05  0.146E-03    1.32       4.6  T
   5   -456.9358334 -0.157393E-06  0.725E-04    1.32       9.2  T
   6   -456.9358335 -0.692685E-07  0.370E-04    1.32      18.0  T
     SCC iter.                  ...        0 min,  0.462 sec
     gradient                   ...        0 min,  0.197 sec
 * total energy  :  -451.5041208 Eh     change       -0.1171449E-03 Eh
   gradient norm :     0.0054756 Eh/α   predicted    -0.7691002E-04 ( -34.35%)
   displ. norm   :     0.4910052 α      lambda       -0.2005524E-03
   maximum displ.:     0.2109982 α      in ANC's #3, #4, #11, ...

........................................................................
.............................. CYCLE   48 ..............................
........................................................................
   1   -456.9367319 -0.456937E+03  0.279E-02    1.32       0.0  T
   2   -456.9367331 -0.113303E-05  0.157E-02    1.32       1.0  T
   3   -456.9367301  0.290349E-05  0.437E-03    1.32       1.5  T
   4   -456.9367334 -0.324080E-05  0.170E-03    1.32       3.9  T
   5   -456.9367336 -0.172667E-06  0.800E-04    1.32       8.3  T
   6   -456.9367337 -0.898545E-07  0.381E-04    1.32      17.5  T
     SCC iter.                  ...        0 min,  0.460 sec
     gradient                   ...        0 min,  0.196 sec
 * total energy  :  -451.5042923 Eh     change       -0.1714644E-03 Eh
   gradient norm :     0.0049669 Eh/α   predicted    -0.1244591E-03 ( -27.41%)
   displ. norm   :     0.5811061 α      lambda       -0.2374473E-03
   maximum displ.:     0.2536683 α      in ANC's #3, #4, #11, ...

........................................................................
.............................. CYCLE   49 ..............................
........................................................................
   1   -456.9370402 -0.456937E+03  0.303E-02    1.33       0.0  T
   2   -456.9370414 -0.119427E-05  0.171E-02    1.32       1.0  T
   3   -456.9370367  0.464674E-05  0.523E-03    1.32       1.3  T
   4   -456.9370419 -0.517459E-05  0.183E-03    1.32       3.6  T
   5   -456.9370420 -0.152806E-06  0.943E-04    1.32       7.1  T
   6   -456.9370422 -0.133889E-06  0.429E-04    1.32      15.5  T
     SCC iter.                  ...        0 min,  0.459 sec
     gradient                   ...        0 min,  0.197 sec
 * total energy  :  -451.5044980 Eh     change       -0.2056682E-03 Eh
   gradient norm :     0.0038903 Eh/α   predicted    -0.1588212E-03 ( -22.78%)
   displ. norm   :     0.6287214 α      lambda       -0.2640803E-03
   maximum displ.:     0.2778180 α      in ANC's #3, #4, #11, ...

........................................................................
.............................. CYCLE   50 ..............................
........................................................................
   1   -456.9369163 -0.456937E+03  0.305E-02    1.33       0.0  T
   2   -456.9369176 -0.133207E-05  0.173E-02    1.33       1.0  T
   3   -456.9369108  0.680093E-05  0.605E-03    1.33       1.1  T
   4   -456.9369183 -0.753615E-05  0.193E-03    1.33       3.5  T
   5   -456.9369185 -0.193947E-06  0.105E-03    1.33       6.4  T
   6   -456.9369187 -0.150666E-06  0.506E-04    1.33      13.1  T
   7   -456.9369187 -0.152882E-07  0.388E-04    1.33      17.1  T
     SCC iter.                  ...        0 min,  0.531 sec
     gradient                   ...        0 min,  0.196 sec
 * total energy  :  -451.5047286 Eh     change       -0.2305823E-03 Eh
   gradient norm :     0.0041360 Eh/α   predicted    -0.1842678E-03 ( -20.09%)
   displ. norm   :     0.6631036 α      lambda       -0.2851569E-03
   maximum displ.:     0.2948721 α      in ANC's #3, #4, #11, ...

........................................................................
.............................. CYCLE   51 ..............................
........................................................................
   1   -456.9364012 -0.456936E+03  0.309E-02    1.33       0.0  T
   2   -456.9364026 -0.138006E-05  0.175E-02    1.33       1.0  T
   3   -456.9363963  0.624820E-05  0.583E-03    1.33       1.1  T
   4   -456.9364033 -0.692336E-05  0.192E-03    1.33       3.5  T
   5   -456.9364035 -0.231226E-06  0.976E-04    1.33       6.8  T
   6   -456.9364036 -0.116920E-06  0.504E-04    1.33      13.2  T
     SCC iter.                  ...        0 min,  0.455 sec
     gradient                   ...        0 min,  0.196 sec
 * total energy  :  -451.5049779 Eh     change       -0.2493736E-03 Eh
   gradient norm :     0.0054590 Eh/α   predicted    -0.2053558E-03 ( -17.65%)
   displ. norm   :     0.6890984 α      lambda       -0.2969655E-03
   maximum displ.:     0.3071266 α      in ANC's #3, #4, #11, ...

........................................................................
.............................. CYCLE   52 ..............................
........................................................................
   1   -456.9355047 -0.456936E+03  0.314E-02    1.32       0.0  T
   2   -456.9355060 -0.128661E-05  0.178E-02    1.32       1.0  T
   3   -456.9355019  0.411623E-05  0.487E-03    1.32       1.4  T
   4   -456.9355064 -0.452980E-05  0.188E-03    1.32       3.5  T
   5   -456.9355067 -0.263878E-06  0.934E-04    1.32       7.1  T
   6   -456.9355068 -0.110306E-06  0.484E-04    1.32      13.7  T
     SCC iter.                  ...        0 min,  0.455 sec
     gradient                   ...        0 min,  0.196 sec
 * total energy  :  -451.5052380 Eh     change       -0.2600410E-03 Eh
   gradient norm :     0.0059740 Eh/α   predicted    -0.2189980E-03 ( -15.78%)
   displ. norm   :     0.7029831 α      lambda       -0.2987206E-03
   maximum displ.:     0.3143133 α      in ANC's #3, #4, #11, ...

........................................................................
.............................. CYCLE   53 ..............................
........................................................................
   1   -456.9345775 -0.456935E+03  0.315E-02    1.32       0.0  T
   2   -456.9345787 -0.120622E-05  0.179E-02    1.32       1.0  T
   3   -456.9345744  0.429573E-05  0.486E-03    1.32       1.4  T
   4   -456.9345791 -0.470947E-05  0.182E-03    1.32       3.7  T
   5   -456.9345793 -0.212161E-06  0.961E-04    1.32       6.9  T
   6   -456.9345795 -0.151435E-06  0.454E-04    1.32      14.7  T
     SCC iter.                  ...        0 min,  0.456 sec
     gradient                   ...        0 min,  0.196 sec
 * total energy  :  -451.5054981 Eh     change       -0.2601073E-03 Eh
   gradient norm :     0.0051431 Eh/α   predicted    -0.2231757E-03 ( -14.20%)
   displ. norm   :     0.7044451 α      lambda       -0.2882197E-03
   maximum displ.:     0.3165635 α      in ANC's #3, #4, #11, ...

........................................................................
.............................. CYCLE   54 ..............................
........................................................................
   1   -456.9341338 -0.456934E+03  0.309E-02    1.32       0.0  T
   2   -456.9341352 -0.133682E-05  0.176E-02    1.32       1.0  T
   3   -456.9341285  0.671783E-05  0.575E-03    1.32       1.2  T
   4   -456.9341358 -0.730580E-05  0.190E-03    1.32       3.5  T
   5   -456.9341360 -0.268370E-06  0.103E-03    1.32       6.4  T
   6   -456.9341362 -0.171645E-06  0.474E-04    1.32      14.0  T
   7   -456.9341362 -0.136332E-07  0.367E-04    1.32      18.1  T
     SCC iter.                  ...        0 min,  0.535 sec
     gradient                   ...        0 min,  0.196 sec
 * total energy  :  -451.5057480 Eh     change       -0.2498886E-03 Eh
   gradient norm :     0.0039521 Eh/α   predicted    -0.2156470E-03 ( -13.70%)
   displ. norm   :     0.7027696 α      lambda       -0.2757084E-03
   maximum displ.:     0.3169654 α      in ANC's #3, #4, #11, ...

........................................................................
.............................. CYCLE   55 ..............................
........................................................................
   1   -456.9344854 -0.456934E+03  0.304E-02    1.32       0.0  T
   2   -456.9344869 -0.147955E-05  0.173E-02    1.32       1.0  T
   3   -456.9344800  0.684532E-05  0.583E-03    1.32       1.1  T
   4   -456.9344874 -0.744360E-05  0.194E-03    1.32       3.4  T
   5   -456.9344878 -0.319083E-06  0.102E-03    1.32       6.5  T
   6   -456.9344879 -0.152758E-06  0.483E-04    1.32      13.8  T
   7   -456.9344879 -0.156580E-07  0.368E-04    1.32      18.1  T
     SCC iter.                  ...        0 min,  0.530 sec
     gradient                   ...        0 min,  0.196 sec
 * total energy  :  -451.5059894 Eh     change       -0.2414524E-03 Eh
   gradient norm :     0.0041306 Eh/α   predicted    -0.2059389E-03 ( -14.71%)
   displ. norm   :     0.7118177 α      lambda       -0.2795024E-03
   maximum displ.:     0.3203408 α      in ANC's #3, #4, #11, ...

........................................................................
.............................. CYCLE   56 ..............................
........................................................................
   1   -456.9356310 -0.456936E+03  0.307E-02    1.32       0.0  T
   2   -456.9356325 -0.150859E-05  0.174E-02    1.32       1.0  T
   3   -456.9356273  0.519328E-05  0.523E-03    1.32       1.3  T
   4   -456.9356329 -0.561462E-05  0.196E-03    1.32       3.4  T
   5   -456.9356333 -0.347695E-06  0.986E-04    1.32       6.7  T
   6   -456.9356334 -0.139110E-06  0.471E-04    1.32      14.1  T
     SCC iter.                  ...        0 min,  0.451 sec
     gradient                   ...        0 min,  0.195 sec
 * total energy  :  -451.5062381 Eh     change       -0.2486364E-03 Eh
   gradient norm :     0.0051957 Eh/α   predicted    -0.2105633E-03 ( -15.31%)
   displ. norm   :     0.7300333 α      lambda       -0.3004096E-03
   maximum displ.:     0.3250994 α      in ANC's #3, #4, #11, ...

........................................................................
.............................. CYCLE   57 ..............................
........................................................................
   1   -456.9371711 -0.456937E+03  0.318E-02    1.32       0.0  T
   2   -456.9371725 -0.144693E-05  0.179E-02    1.32       1.0  T
   3   -456.9371688  0.368520E-05  0.470E-03    1.32       1.4  T
   4   -456.9371728 -0.398312E-05  0.195E-03    1.32       3.4  T
   5   -456.9371731 -0.326050E-06  0.965E-04    1.32       6.9  T
   6   -456.9371733 -0.136483E-06  0.458E-04    1.32      14.5  T
     SCC iter.                  ...        0 min,  0.461 sec
     gradient                   ...        0 min,  0.195 sec
 * total energy  :  -451.5065078 Eh     change       -0.2697536E-03 Eh
   gradient norm :     0.0056748 Eh/α   predicted    -0.2302607E-03 ( -14.64%)
   displ. norm   :     0.7526630 α      lambda       -0.3220313E-03
   maximum displ.:     0.3302552 α      in ANC's #3, #4, #11, ...

........................................................................
.............................. CYCLE   58 ..............................
........................................................................
   1   -456.9381319 -0.456938E+03  0.326E-02    1.33       0.0  T
   2   -456.9381333 -0.138432E-05  0.184E-02    1.33       1.0  T
   3   -456.9381287  0.457761E-05  0.523E-03    1.33       1.3  T
   4   -456.9381337 -0.502605E-05  0.197E-03    1.33       3.4  T
   5   -456.9381340 -0.259045E-06  0.951E-04    1.33       7.0  T
   6   -456.9381341 -0.132080E-06  0.458E-04    1.33      14.5  T
     SCC iter.                  ...        0 min,  0.460 sec
     gradient                   ...        0 min,  0.195 sec
 * total energy  :  -451.5067963 Eh     change       -0.2884605E-03 Eh
   gradient norm :     0.0051647 Eh/α   predicted    -0.2522319E-03 ( -12.56%)
   displ. norm   :     0.7669551 α      lambda       -0.3283100E-03
   maximum displ.:     0.3325215 α      in ANC's #3, #4, #10, ...

........................................................................
.............................. CYCLE   59 ..............................
........................................................................
   1   -456.9382385 -0.456938E+03  0.327E-02    1.33       0.0  T
   2   -456.9382400 -0.145438E-05  0.185E-02    1.33       1.0  T
   3   -456.9382335  0.643731E-05  0.598E-03    1.33       1.1  T
   4   -456.9382406 -0.705958E-05  0.207E-03    1.33       3.2  T
   5   -456.9382409 -0.292310E-06  0.101E-03    1.33       6.6  T
   6   -456.9382410 -0.134475E-06  0.516E-04    1.33      12.9  T
   7   -456.9382410 -0.174284E-07  0.409E-04    1.33      16.3  T
     SCC iter.                  ...        0 min,  0.533 sec
     gradient                   ...        0 min,  0.195 sec
 * total energy  :  -451.5070895 Eh     change       -0.2932385E-03 Eh
   gradient norm :     0.0045976 Eh/α   predicted    -0.2607170E-03 ( -11.09%)
   displ. norm   :     0.7732564 α      lambda       -0.3289301E-03
   maximum displ.:     0.3338191 α      in ANC's #3, #4, #10, ...

........................................................................
[...]
rotational constants/cm⁻¹ :        0.1770034E-03   0.9014269E-04   0.6663397E-04

 * 241 selected distances

     #   Z          #   Z                                           value/Å
     1   6 C        2   6 C                                       1.3485284
     2   6 C        3   6 C                                       1.4249834
     3   6 C        4   6 C                                       1.4025775
     5   6 C        6  16 S                                       1.7387584
     6  16 S        7   6 C                                       1.7306585
     7   6 C        8   6 C                                       1.4887973
     8   6 C        9   6 C                                       1.5299203
     7   6 C       10   6 C                                       1.3627516
    10   6 C       11  17 Cl                                      1.7167149
     5   6 C       12   6 C                                       1.3666894
    10   6 C       12   6 C                                       1.4218879
    12   6 C       13  17 Cl                                      1.7166186
     4   6 C       14   6 C                                       1.3888175
    14   6 C       15   6 C                                       1.4154338
    15   6 C       16   6 C                                       1.4053168
    17   6 C       18  16 S                                       1.7401159
    18  16 S       19   6 C                                       1.7300993
    19   6 C       20   6 C                                       1.4886593
    20   6 C       21   6 C                                       1.5305474
    19   6 C       22   6 C                                       1.3626912
    17   6 C       23   6 C                                       1.3674933
    22   6 C       23   6 C                                       1.4210786
    23   6 C       24  17 Cl                                      1.7133401
    22   6 C       25  17 Cl                                      1.7156444
     3   6 C       26   6 C                                       1.4162690
    16   6 C       26   6 C                                       1.3913308
     1   6 C       27  16 S                                       1.7283755
    26   6 C       27  16 S                                       1.7406061
    15   6 C       28   6 C                                       1.4188972
    28   6 C       29   6 C                                       1.3623020
    14   6 C       30  16 S                                       1.7378940
    29   6 C       30  16 S                                       1.7521601
    29   6 C       31   6 C                                       1.4251412
    31   6 C       32   6 C                                       1.3631230
    32   6 C       33   6 C                                       1.4138198
    33   6 C       34   6 C                                       1.4052658
    35   6 C       36  16 S                                       1.7401339
    36  16 S       37   6 C                                       1.7281312
    37   6 C       38   6 C                                       1.4889379
    38   6 C       39   6 C                                       1.5294867
    37   6 C       40   6 C                                       1.3635241
    40   6 C       41  17 Cl                                      1.7162034
    35   6 C       42   6 C                                       1.3702870
    40   6 C       42   6 C                                       1.4198346
    42   6 C       43  17 Cl                                      1.7185729
    34   6 C       44   6 C                                       1.3894151
    44   6 C       45   6 C                                       1.4163707
    45   6 C       46   6 C                                       1.4076217
    47   6 C       48  16 S                                       1.7407579
    48  16 S       49   6 C                                       1.7308791
    49   6 C       50   6 C                                       1.4886915
    50   6 C       51   6 C                                       1.5301464
    49   6 C       52   6 C                                       1.3623527
    47   6 C       53   6 C                                       1.3668875
    52   6 C       53   6 C                                       1.4223636
    53   6 C       54  17 Cl                                      1.7132273
    52   6 C       55  17 Cl                                      1.7160669
    33   6 C       56   6 C                                       1.4186231
    46   6 C       56   6 C                                       1.3884942
    31   6 C       57  16 S                                       1.7496623
    56   6 C       57  16 S                                       1.7417416
    45   6 C       58   6 C                                       1.4164388
    58   6 C       59   6 C                                       1.3635419
    44   6 C       60  16 S                                       1.7389023
    59   6 C       60  16 S                                       1.7485399
    59   6 C       61   6 C                                       1.4274510
    61   6 C       62   6 C                                       1.3649173
    62   6 C       63   6 C                                       1.4170267
    63   6 C       64   6 C                                       1.4093058
    65   6 C       66  16 S                                       1.7393949
    66  16 S       67   6 C                                       1.7289355
    67   6 C       68   6 C                                       1.4884892
    68   6 C       69   6 C                                       1.5308889
    67   6 C       70   6 C                                       1.3631345
    70   6 C       71  17 Cl                                      1.7161222
    65   6 C       72   6 C                                       1.3689382
    70   6 C       72   6 C                                       1.4198198
    72   6 C       73  17 Cl                                      1.7175715
    64   6 C       74   6 C                                       1.3889373
    74   6 C       75   6 C                                       1.4171893
    75   6 C       76   6 C                                       1.4052442
    77   6 C       78  16 S                                       1.7398747
    78  16 S       79   6 C                                       1.7285516
    79   6 C       80   6 C                                       1.4881972
    80   6 C       81   6 C                                       1.5306852
    79   6 C       82   6 C                                       1.3634178
    77   6 C       83   6 C                                       1.3673676
    82   6 C       83   6 C                                       1.4208039
    83   6 C       84  17 Cl                                      1.7164069
    82   6 C       85  17 Cl                                      1.7170314
    63   6 C       86   6 C                                       1.4151966
    76   6 C       86   6 C                                       1.3882200
    61   6 C       87  16 S                                       1.7481792
    86   6 C       87  16 S                                       1.7368072
    75   6 C       88   6 C                                       1.4145066
    88   6 C       89   6 C                                       1.3651422
    74   6 C       90  16 S                                       1.7462416
    89   6 C       90  16 S                                       1.7513195
    89   6 C       91   6 C                                       1.4334343
    91   6 C       92   6 C                                       1.3754220
    92   6 C       93   6 C                                       1.4034191
    93   6 C       94   6 C                                       1.4094811
    94   6 C       95  16 S                                       1.7226955
    94   6 C       96   6 C                                       1.3952585
    96   6 C       97   6 C                                       1.4083092
    93   6 C       98   7 N                                       1.3741366
    97   6 C       98   7 N                                       1.3755233
    97   6 C       99   6 C                                       1.4050943
    99   6 C      100   6 C                                       1.3779975
    96   6 C      101  16 S                                       1.7251503
   100   6 C      102   6 C                                       1.4349923
   102   6 C      103   6 C                                       1.3664884
   103   6 C      104   6 C                                       1.4091832
   104   6 C      105   6 C                                       1.4024784
   106   6 C      107  16 S                                       1.7465594
   107  16 S      108   6 C                                       1.7298654
   108   6 C      109   6 C                                       1.4890097
   109   6 C      110   6 C                                       1.5298630
   108   6 C      111   6 C                                       1.3623548
   111   6 C      112  17 Cl                                      1.7157430
   106   6 C      113   6 C                                       1.3663267
   111   6 C      113   6 C                                       1.4225771
   113   6 C      114  17 Cl                                      1.7129117
   105   6 C      115   6 C                                       1.3870715
   115   6 C      116   6 C                                       1.4174136
   116   6 C      117   6 C                                       1.4110442
   118   6 C      119  16 S                                       1.7398598
   119  16 S      120   6 C                                       1.7295338
   120   6 C      121   6 C                                       1.4886310
   121   6 C      122   6 C                                       1.5306923
   120   6 C      123   6 C                                       1.3630494
   118   6 C      124   6 C                                       1.3688896
   123   6 C      124   6 C                                       1.4200913
   124   6 C      125  17 Cl                                      1.7134130
   123   6 C      126  17 Cl                                      1.7156241
   104   6 C      127   6 C                                       1.4149472
   117   6 C      127   6 C                                       1.3922470
   102   6 C      128  16 S                                       1.7526063 (max)
   127   6 C      128  16 S                                       1.7524668
   116   6 C      129   6 C                                       1.4225825
   129   6 C      130   6 C                                       1.3629655
   115   6 C      131  16 S                                       1.7299601
   130   6 C      131  16 S                                       1.7523039
   130   6 C      132   6 C                                       1.4280303
   132   6 C      133   6 C                                       1.3627069
   133   6 C      134   6 C                                       1.4115062
   134   6 C      135   6 C                                       1.4025164
   136   6 C      137  16 S                                       1.7358045
   137  16 S      138   6 C                                       1.7294343
   138   6 C      139   6 C                                       1.4871767
   139   6 C      140   6 C                                       1.5306439
   138   6 C      141   6 C                                       1.3641227
   141   6 C      142  17 Cl                                      1.7201662
   136   6 C      143   6 C                                       1.3673602
   141   6 C      143   6 C                                       1.4183760
   143   6 C      144  17 Cl                                      1.7130143
   135   6 C      145   6 C                                       1.3841665
   145   6 C      146   6 C                                       1.4172386
   146   6 C      147   6 C                                       1.4060495
   148   6 C      149  16 S                                       1.7389100
   149  16 S      150   6 C                                       1.7303189
   150   6 C      151   6 C                                       1.4887654
   151   6 C      152   6 C                                       1.5307223
   150   6 C      153   6 C                                       1.3626940
   148   6 C      154   6 C                                       1.3672138
   153   6 C      154   6 C                                       1.4207957
   154   6 C      155  17 Cl                                      1.7136192
   153   6 C      156  17 Cl                                      1.7157298
   134   6 C      157   6 C                                       1.4136968
   147   6 C      157   6 C                                       1.3905251
   132   6 C      158  16 S                                       1.7503912
   157   6 C      158  16 S                                       1.7472825
   146   6 C      159   6 C                                       1.4260878
   159   6 C      160   6 C                                       1.3487585
   145   6 C      161  16 S                                       1.7398734
   160   6 C      161  16 S                                       1.7296344
     1   6 C      162   1 H                                       1.0725253
     2   6 C      163   1 H                                       1.0741067
     8   6 C      164   1 H                                       1.0925271
     8   6 C      165   1 H                                       1.0911148
     9   6 C      166   1 H                                       1.0866710
     9   6 C      167   1 H                                       1.0874084
     9   6 C      168   1 H                                       1.0872582
    20   6 C      169   1 H                                       1.0915334
    20   6 C      170   1 H                                       1.0914004
    21   6 C      171   1 H                                       1.0874568
    21   6 C      172   1 H                                       1.0870021
    21   6 C      173   1 H                                       1.0866284
    28   6 C      174   1 H                                       1.0749444
    32   6 C      175   1 H                                       1.0744735
    38   6 C      176   1 H                                       1.0920399
    38   6 C      177   1 H                                       1.0908721
    39   6 C      178   1 H                                       1.0867184
    39   6 C      179   1 H                                       1.0867879
    39   6 C      180   1 H                                       1.0864017
    50   6 C      181   1 H                                       1.0909197
    50   6 C      182   1 H                                       1.0923883
    51   6 C      183   1 H                                       1.0870772
    51   6 C      184   1 H                                       1.0867682
    51   6 C      185   1 H                                       1.0879484
    58   6 C      186   1 H                                       1.0734561
    62   6 C      187   1 H                                       1.0736832
    68   6 C      188   1 H                                       1.0918105
    68   6 C      189   1 H                                       1.0908527
    69   6 C      190   1 H                                       1.0872671
    69   6 C      191   1 H                                       1.0870211
    69   6 C      192   1 H                                       1.0864929
    80   6 C      193   1 H                                       1.0916354
    80   6 C      194   1 H                                       1.0913924
    81   6 C      195   1 H                                       1.0865806
    81   6 C      196   1 H                                       1.0872161
    81   6 C      197   1 H                                       1.0872075
    88   6 C      198   1 H                                       1.0740607
    92   6 C      199   1 H                                       1.0746133
    98   7 N      200   1 H                                       1.0055949 (min)
    99   6 C      201   1 H                                       1.0750933
   103   6 C      202   1 H                                       1.0734560
   109   6 C      203   1 H                                       1.0920473
   109   6 C      204   1 H                                       1.0914903
   110   6 C      205   1 H                                       1.0862157
   110   6 C      206   1 H                                       1.0873358
   110   6 C      207   1 H                                       1.0868111
   121   6 C      208   1 H                                       1.0911583
   121   6 C      209   1 H                                       1.0916759
   122   6 C      210   1 H                                       1.0874290
   122   6 C      211   1 H                                       1.0865726
   122   6 C      212   1 H                                       1.0870360
   129   6 C      213   1 H                                       1.0747769
   133   6 C      214   1 H                                       1.0748829
   139   6 C      215   1 H                                       1.0895010
   139   6 C      216   1 H                                       1.0915735
   140   6 C      217   1 H                                       1.0868604
   140   6 C      218   1 H                                       1.0869525
   140   6 C      219   1 H                                       1.0872951
   151   6 C      220   1 H                                       1.0917583
   151   6 C      221   1 H                                       1.0912044
   152   6 C      222   1 H                                       1.0874134
   152   6 C      223   1 H                                       1.0865540
   152   6 C      224   1 H                                       1.0869549
   159   6 C      225   1 H                                       1.0743101
   160   6 C      226   1 H                                       1.0724292

 * 6 distinct bonds (by element types)

   Z      Z             #   av. dist./Å        max./Å        min./Å
   1 H    6 C          64     1.0855477     1.0925271     1.0724292
   6 C    6 C         112     1.4153633     1.5308889     1.3485284
   1 H    7 N           1     1.0055949     1.0055949     1.0055949
   6 C    7 N           2     1.3748300     1.3755233     1.3741366
   6 C   16 S          42     1.7385564     1.7526063     1.7226955
   6 C   17 Cl         20     1.7156871     1.7201662     1.7129117


optimized geometry written to: xtbopt.mol


           -------------------------------------------------
          | TOTAL ENERGY             -451.536915902816 Eh   |
          | GRADIENT NORM               0.000312304395 Eh/α |
          | HOMO-LUMO GAP               1.344460460363 eV   |
           -------------------------------------------------

------------------------------------------------------------------------
 * finished run on 2022/03/01 at 17:57:52.707     
------------------------------------------------------------------------
 total:
 * wall-time:     0 d,  0 h,  3 min, 56.159 sec
 *  cpu-time:     0 d,  0 h, 31 min, 27.982 sec
 * ratio c/w:     7.995 speedup
 SCF:
 * wall-time:     0 d,  0 h,  0 min,  1.655 sec
 *  cpu-time:     0 d,  0 h,  0 min, 13.218 sec
 * ratio c/w:     7.985 speedup
 ANC optimizer:
 * wall-time:     0 d,  0 h,  3 min, 54.130 sec
 *  cpu-time:     0 d,  0 h, 31 min, 12.788 sec
 * ratio c/w:     7.999 speedup

