      -----------------------------------------------------------      
     |                   =====================                   |     
     |                           x T B                           |     
     |                   =====================                   |     
     |                         S. Grimme                         |     
     |          Mulliken Center for Theoretical Chemistry        |     
     |                    University of Bonn                     |     
      -----------------------------------------------------------      

   * xtb version 6.4.1 (unknown) compiled by 'oda6@login1.crc.pitt.edu' on 2021-06-25

   xtb is free software: you can redistribute it and/or modify it under
   the terms of the GNU Lesser General Public License as published by
   the Free Software Foundation, either version 3 of the License, or
   (at your option) any later version.
   
   xtb is distributed in the hope that it will be useful,
   but WITHOUT ANY WARRANTY; without even the implied warranty of
   MERCHANTABILITY or FITNESS FOR A PARTICULAR PURPOSE.  See the
   GNU Lesser General Public License for more details.
   
   Cite this work as:
   * C. Bannwarth, E. Caldeweyher, S. Ehlert, A. Hansen, P. Pracht,
     J. Seibert, S. Spicher, S. Grimme, WIREs Comput. Mol. Sci., 2020, 11,
     e01493. DOI: 10.1002/wcms.1493
   
   for GFN2-xTB:
   * C. Bannwarth, S. Ehlert and S. Grimme., J. Chem. Theory Comput., 2019,
     15, 1652-1671. DOI: 10.1021/acs.jctc.8b01176
   for GFN1-xTB:
   * S. Grimme, C. Bannwarth, P. Shushkov, J. Chem. Theory Comput., 2017,
     13, 1989-2009. DOI: 10.1021/acs.jctc.7b00118
   for GFN0-xTB:
   * P. Pracht, E. Caldeweyher, S. Ehlert, S. Grimme, ChemRxiv, 2019, preprint.
     DOI: 10.26434/chemrxiv.8326202.v1
   for GFN-FF:
   * S. Spicher and S. Grimme, Angew. Chem. Int. Ed., 2020, 59, 15665-15673.
     DOI: 10.1002/anie.202004239
   
   for DFT-D4:
   * E. Caldeweyher, C. Bannwarth and S. Grimme, J. Chem. Phys., 2017,
     147, 034112. DOI: 10.1063/1.4993215
   * E. Caldeweyher, S. Ehlert, A. Hansen, H. Neugebauer, S. Spicher,
     C. Bannwarth and S. Grimme, J. Chem. Phys., 2019, 150, 154122.
     DOI: 10.1063/1.5090222
   * E. Caldeweyher, J.-M. Mewes, S. Ehlert and S. Grimme, Phys. Chem. Chem. Phys.
     2020, 22, 8499-8512. DOI: 10.1039/D0CP00502A
   
   for sTDA-xTB:
   * S. Grimme and C. Bannwarth, J. Chem. Phys., 2016, 145, 054103.
     DOI: 10.1063/1.4959605
   
   in the mass-spec context:
   * V. Asgeirsson, C. Bauer and S. Grimme, Chem. Sci., 2017, 8, 4879.
     DOI: 10.1039/c7sc00601b
   * J. Koopman and S. Grimme, ACS Omega 2019, 4, 12, 15120-15133.
     DOI: 10.1021/acsomega.9b02011
   
   for metadynamics refer to:
   * S. Grimme, J. Chem. Theory Comput., 2019, 155, 2847-2862
     DOI: 10.1021/acs.jctc.9b00143
   
   for SPH calculations refer to:
   * S. Spicher and S. Grimme, J. Chem. Theory Comput., 2021, 17, 1701-1714
     DOI: 10.1021/acs.jctc.0c01306
   
   with help from (in alphabetical order)
   P. Atkinson, C. Bannwarth, F. Bohle, G. Brandenburg, E. Caldeweyher
   M. Checinski, S. Dohm, S. Ehlert, S. Ehrlich, I. Gerasimov, J. Koopman
   C. Lavigne, S. Lehtola, F. März, M. Müller, F. Musil, H. Neugebauer
   J. Pisarek, C. Plett, P. Pracht, J. Seibert, P. Shushkov, S. Spicher
   M. Stahn, M. Steiner, T. Strunk, J. Stückrath, T. Rose, and J. Unsleber
   
 * started run on 2022/03/02 at 16:49:39.543     

           -------------------------------------------------
          |                Calculation Setup                |
           -------------------------------------------------

          program call               : /ihome/ghutchison/oda6/xtb/xtb-641/bin/xtb ../../FF_optimized/43_61_111011.mol -opt
          hostname                   : smp-n90
          coordinate file            : ../../FF_optimized/43_61_111011.mol
          omp threads                :                     8
          number of atoms            :                   222
          number of electrons        :                   796
          charge                     :                     0
          spin                       :                   0.0
          first test random number   :      0.28009084649744

   ID    Z sym.   atoms
    1    6 C      1-5, 7-10, 12, 14-17, 19-23, 26, 28, 29, 31-35, 37-40, 42,
                  44-47, 49-53, 56, 58, 59, 61-65, 67-70, 72, 74-77, 79-83,
                  86, 88, 89, 91, 92, 94-102, 104-107, 109, 111-114, 116-120,
                  123, 125, 126, 128-132, 134-137, 139, 141-144, 146-150,
                  153, 155, 156
    2   16 S      6, 18, 27, 30, 36, 48, 57, 60, 66, 78, 87, 90, 103, 115,
                  124, 127, 133, 145, 154, 157
    3   17 Cl     11, 13, 24, 25, 41, 43, 54, 55, 71, 73, 84, 85, 108, 110,
                  121, 122, 138, 140, 151, 152
    4    9 F      93
    5    1 H      158-222
########################################################################
[WARNING] Please study the warnings concerning your input carefully
-1- prog_main_parseArguments: the use of '-opt' is discouraged, please use '--opt' next time
########################################################################

           -------------------------------------------------
          |                 G F N 2 - x T B                 |
           -------------------------------------------------

        Reference                      10.1021/acs.jctc.8b01176
      * Hamiltonian:
        H0-scaling (s, p, d)           1.850000    2.230000    2.230000
        zeta-weighting                 0.500000
      * Dispersion:
        s8                             2.700000
        a1                             0.520000
        a2                             5.000000
        s9                             5.000000
      * Repulsion:
        kExp                           1.500000    1.000000
        rExp                           1.000000
      * Coulomb:
        alpha                          2.000000
        third order                    shell-resolved
        anisotropic                    true
        a3                             3.000000
        a5                             4.000000
        cn-shift                       1.200000
        cn-exp                         4.000000
        max-rad                        5.000000


          ...................................................
          :                      SETUP                      :
          :.................................................:
          :  # basis functions                 933          :
          :  # atomic orbitals                 893          :
          :  # shells                          419          :
          :  # electrons                       796          :
          :  max. iterations                   250          :
          :  Hamiltonian                  GFN2-xTB          :
          :  restarted?                      false          :
          :  GBSA solvation                  false          :
          :  PC potential                    false          :
          :  electronic temp.          300.0000000     K    :
          :  accuracy                    1.0000000          :
          :  -> integral cutoff          0.2500000E+02      :
          :  -> integral neglect         0.1000000E-07      :
          :  -> SCF convergence          0.1000000E-05 Eh   :
          :  -> wf. convergence          0.1000000E-03 e    :
          :  Broyden damping             0.4000000          :
          ...................................................

 iter      E             dE          RMSdq      gap      omega  full diag
   1   -447.2164333 -0.447216E+03  0.426E+00    1.55       0.0  T
   2   -447.4555257 -0.239092E+00  0.242E+00    1.41       1.0  T
   3   -447.2215658  0.233960E+00  0.131E+00    1.54       1.0  T
   4   -447.4894227 -0.267857E+00  0.548E-01    1.42       1.0  T
   5   -447.5309605 -0.415378E-01  0.204E-01    1.45       1.0  T
   6   -447.5333997 -0.243916E-02  0.122E-01    1.45       1.0  T
   7   -447.5344776 -0.107791E-02  0.814E-02    1.45       1.0  T
   8   -447.5348746 -0.397045E-03  0.624E-02    1.45       1.0  T
   9   -447.5350802 -0.205579E-03  0.448E-02    1.45       1.0  T
  10   -447.5352857 -0.205482E-03  0.241E-02    1.45       1.0  T
  11   -447.5353391 -0.534447E-04  0.140E-02    1.45       1.0  T
  12   -447.5353552 -0.160635E-04  0.740E-03    1.46       1.0  T
  13   -447.5353593 -0.407306E-05  0.429E-03    1.45       1.6  T
  14   -447.5353617 -0.247520E-05  0.241E-03    1.45       2.8  T
  15   -447.5353621 -0.375334E-06  0.181E-03    1.45       3.7  T
  16   -447.5353623 -0.219420E-06  0.123E-03    1.45       5.5  T
  17   -447.5353625 -0.122252E-06  0.888E-04    1.46       7.6  T
  18   -447.5353625 -0.800781E-07  0.555E-04    1.46      12.1  T

   *** convergence criteria satisfied after 18 iterations ***

         #    Occupation            Energy/Eh            Energy/eV
      -------------------------------------------------------------
         1        2.0000           -1.0709583             -29.1423
       ...           ...                  ...                  ...
       392        2.0000           -0.3937242             -10.7138
       393        2.0000           -0.3885418             -10.5728
       394        2.0000           -0.3772171             -10.2646
       395        2.0000           -0.3770032             -10.2588
       396        2.0000           -0.3724777             -10.1356
       397        2.0000           -0.3711903             -10.1006
       398        2.0000           -0.3671790              -9.9915 (HOMO)
       399                         -0.3137065              -8.5364 (LUMO)
       400                         -0.3099647              -8.4346
       401                         -0.3000946              -8.1660
       402                         -0.2922105              -7.9515
       403                         -0.2883134              -7.8454
       ...                                ...                  ...
       893                          0.7808137              21.2470
      -------------------------------------------------------------
                  HL-Gap            0.0534725 Eh            1.4551 eV
             Fermi-level           -0.3404428 Eh           -9.2639 eV

 SCC (total)                   0 d,  0 h,  0 min,  1.518 sec
 SCC setup                      ...        0 min,  0.005 sec (  0.308%)
 Dispersion                     ...        0 min,  0.011 sec (  0.693%)
 classical contributions        ...        0 min,  0.000 sec (  0.029%)
 integral evaluation            ...        0 min,  0.068 sec (  4.485%)
 iterations                     ...        0 min,  1.235 sec ( 81.332%)
 molecular gradient             ...        0 min,  0.193 sec ( 12.708%)
 printout                       ...        0 min,  0.007 sec (  0.439%)

         :::::::::::::::::::::::::::::::::::::::::::::::::::::
         ::                     SUMMARY                     ::
         :::::::::::::::::::::::::::::::::::::::::::::::::::::
         :: total energy            -442.394906748787 Eh    ::
         :: gradient norm              0.404165005496 Eh/a0 ::
         :: HOMO-LUMO gap              1.455062037887 eV    ::
         ::.................................................::
         :: SCC energy              -447.535362536891 Eh    ::
         :: -> isotropic ES            0.105939000756 Eh    ::
         :: -> anisotropic ES         -0.029642489799 Eh    ::
         :: -> anisotropic XC          0.114377270179 Eh    ::
         :: -> dispersion             -0.468898075208 Eh    ::
         :: repulsion energy           5.118322126091 Eh    ::
         :: add. restraining           0.000000000000 Eh    ::
         :: total charge              -0.000000000000 e     ::
         :::::::::::::::::::::::::::::::::::::::::::::::::::::

      ----------------------------------------------------------- 
     |                   =====================                   |
     |                        A N C O P T                        |
     |                   =====================                   |
     |               Approximate Normal Coordinate               |
     |                Rational Function Optimizer                |
      ----------------------------------------------------------- 

          ...................................................
          :                      SETUP                      :
          :.................................................:
          :   optimization level            normal          :
          :   max. optcycles                   666          :
          :   ANC micro-cycles                  20          :
          :   degrees of freedom               660          :
          :.................................................:
          :   RF solver                   davidson          :
          :   write xtbopt.log                true          :
          :   linear?                        false          :
          :   energy convergence         0.5000000E-05 Eh   :
          :   grad. convergence          0.1000000E-02 Eh/α :
          :   maximium RF displ.         1.0000000          :
          :   Hlow (freq-cutoff)         0.1000000E-01      :
          :   Hmax (freq-cutoff)         5.0000000          :
          :   S6 in model hess.         20.0000000          :
          ...................................................

generating ANC from model Hessian ...
Using Lindh-Hessian (1995)
 Shifting diagonal of input Hessian by   1.000363959384169E-002
 Lowest  eigenvalues of input Hessian
    0.010000    0.000000    0.000000    0.000000    0.000000    0.000000
    0.000000    0.010015    0.010023    0.010039    0.010054    0.010064
    0.010078    0.010101    0.010109    0.010135    0.010148    0.010156
 Highest eigenvalues
    2.042778    2.086935    2.099959    2.102682    2.104068    2.107315
 

........................................................................
.............................. CYCLE    1 ..............................
........................................................................
   1   -447.5353626 -0.447535E+03  0.319E-04    1.46       0.0  T
   2   -447.5353626 -0.258785E-08  0.261E-04    1.46      25.7  T
   3   -447.5353626 -0.398910E-08  0.218E-04    1.46      30.8  T
     SCC iter.                  ...        0 min,  0.212 sec
     gradient                   ...        0 min,  0.189 sec
 * total energy  :  -442.3949068 Eh     change       -0.3960054E-07 Eh
   gradient norm :     0.4041663 Eh/α   predicted     0.0000000E+00 (-100.00%)
   displ. norm   :     0.4162536 α      lambda       -0.1327188E+00
   maximum displ.:     0.1229822 α      in ANC's #559, #456, #482, ...

........................................................................
.............................. CYCLE    2 ..............................
........................................................................
   1   -447.6841677 -0.447684E+03  0.271E-01    1.49       0.0  T
   2   -447.6857221 -0.155444E-02  0.161E-01    1.50       1.0  T
   3   -447.6855958  0.126288E-03  0.871E-02    1.49       1.0  T
   4   -447.6865173 -0.921423E-03  0.402E-02    1.50       1.0  T
   5   -447.6866307 -0.113459E-03  0.204E-02    1.49       1.0  T
   6   -447.6866651 -0.344155E-04  0.131E-02    1.49       1.0  T
   7   -447.6866822 -0.170854E-04  0.876E-03    1.49       1.0  T
   8   -447.6866864 -0.421702E-05  0.655E-03    1.49       1.0  T
   9   -447.6866901 -0.362213E-05  0.351E-03    1.49       1.9  T
  10   -447.6866913 -0.124709E-05  0.194E-03    1.49       3.5  T
  11   -447.6866918 -0.462908E-06  0.913E-04    1.49       7.4  T
  12   -447.6866918 -0.284646E-07  0.648E-04    1.49      10.4  T
     SCC iter.                  ...        0 min,  0.812 sec
     gradient                   ...        0 min,  0.190 sec
 * total energy  :  -442.4972516 Eh     change       -0.1023448E+00 Eh
   gradient norm :     0.2281963 Eh/α   predicted    -0.7786643E-01 ( -23.92%)
   displ. norm   :     0.4181018 α      lambda       -0.7790078E-01
   maximum displ.:     0.1388165 α      in ANC's #559, #456, #607, ...

........................................................................
.............................. CYCLE    3 ..............................
........................................................................
   1   -447.8039201 -0.447804E+03  0.279E-01    1.53       0.0  T
   2   -447.8061557 -0.223562E-02  0.165E-01    1.53       1.0  T
   3   -447.8064211 -0.265380E-03  0.885E-02    1.53       1.0  T
   4   -447.8071790 -0.757863E-03  0.476E-02    1.53       1.0  T
   5   -447.8073500 -0.171047E-03  0.227E-02    1.53       1.0  T
   6   -447.8073742 -0.241705E-04  0.164E-02    1.53       1.0  T
   7   -447.8074006 -0.263821E-04  0.109E-02    1.53       1.0  T
   8   -447.8074071 -0.655412E-05  0.773E-03    1.53       1.0  T
   9   -447.8074133 -0.611447E-05  0.378E-03    1.53       1.8  T
  10   -447.8074144 -0.117828E-05  0.202E-03    1.53       3.3  T
  11   -447.8074150 -0.524457E-06  0.970E-04    1.53       6.9  T
  12   -447.8074150 -0.341237E-07  0.682E-04    1.53       9.8  T
     SCC iter.                  ...        0 min,  0.831 sec
     gradient                   ...        0 min,  0.189 sec
 * total energy  :  -442.5449879 Eh     change       -0.4773633E-01 Eh
   gradient norm :     0.0585029 Eh/α   predicted    -0.4576408E-01 (  -4.13%)
   displ. norm   :     0.4075712 α      lambda       -0.1095816E-01
   maximum displ.:     0.0851138 α      in ANC's #103, #109, #73, ...

........................................................................
.............................. CYCLE    4 ..............................
........................................................................
   1   -447.8443880 -0.447844E+03  0.113E-01    1.52       0.0  T
   2   -447.8445756 -0.187594E-03  0.646E-02    1.52       1.0  T
   3   -447.8444876  0.880129E-04  0.354E-02    1.52       1.0  T
   4   -447.8446589 -0.171267E-03  0.158E-02    1.52       1.0  T
   5   -447.8446785 -0.196742E-04  0.831E-03    1.52       1.0  T
   6   -447.8446826 -0.406155E-05  0.593E-03    1.52       1.1  T
   7   -447.8446862 -0.362991E-05  0.387E-03    1.52       1.7  T
   8   -447.8446870 -0.806795E-06  0.270E-03    1.52       2.5  T
   9   -447.8446877 -0.704887E-06  0.138E-03    1.52       4.9  T
  10   -447.8446879 -0.197153E-06  0.669E-04    1.52      10.0  T
  11   -447.8446880 -0.428088E-07  0.390E-04    1.52      17.2  T
     SCC iter.                  ...        0 min,  0.734 sec
     gradient                   ...        0 min,  0.189 sec
 * total energy  :  -442.5523319 Eh     change       -0.7344016E-02 Eh
   gradient norm :     0.0209851 Eh/α   predicted    -0.6389353E-02 ( -13.00%)
   displ. norm   :     0.4303901 α      lambda       -0.3806608E-02
   maximum displ.:     0.1052019 α      in ANC's #73, #103, #95, ...

........................................................................
.............................. CYCLE    5 ..............................
........................................................................
   1   -447.8693167 -0.447869E+03  0.686E-02    1.50       0.0  T
   2   -447.8693320 -0.152736E-04  0.379E-02    1.50       1.0  T
   3   -447.8693040  0.280020E-04  0.136E-02    1.50       1.0  T
   4   -447.8693359 -0.318920E-04  0.620E-03    1.50       1.1  T
   5   -447.8693386 -0.273367E-05  0.333E-03    1.50       2.0  T
   6   -447.8693399 -0.131460E-05  0.197E-03    1.50       3.4  T
   7   -447.8693402 -0.315386E-06  0.146E-03    1.50       4.6  T
   8   -447.8693403 -0.120595E-06  0.100E-03    1.50       6.7  T
   9   -447.8693404 -0.879958E-07  0.535E-04    1.50      12.5  T
  10   -447.8693405 -0.352354E-07  0.298E-04    1.50      22.5  T
     SCC iter.                  ...        0 min,  0.683 sec
     gradient                   ...        0 min,  0.192 sec
 * total energy  :  -442.5550468 Eh     change       -0.2714894E-02 Eh
   gradient norm :     0.0118359 Eh/α   predicted    -0.2255970E-02 ( -16.90%)
   displ. norm   :     0.4366744 α      lambda       -0.1931729E-02
   maximum displ.:     0.1160270 α      in ANC's #73, #36, #103, ...

........................................................................
.............................. CYCLE    6 ..............................
........................................................................
   1   -447.8894674 -0.447889E+03  0.581E-02    1.49       0.0  T
   2   -447.8894746 -0.721173E-05  0.321E-02    1.49       1.0  T
   3   -447.8894614  0.131794E-04  0.975E-03    1.49       1.0  T
   4   -447.8894765 -0.150932E-04  0.403E-03    1.49       1.7  T
   5   -447.8894773 -0.779669E-06  0.205E-03    1.49       3.3  T
   6   -447.8894780 -0.703382E-06  0.946E-04    1.49       7.1  T
   7   -447.8894781 -0.700470E-07  0.715E-04    1.49       9.4  T
     SCC iter.                  ...        0 min,  0.486 sec
     gradient                   ...        0 min,  0.190 sec
 * total energy  :  -442.5564560 Eh     change       -0.1409138E-02 Eh
   gradient norm :     0.0105547 Eh/α   predicted    -0.1150128E-02 ( -18.38%)
   displ. norm   :     0.4472679 α      lambda       -0.1211965E-02
   maximum displ.:     0.1349726 α      in ANC's #36, #73, #39, ...

........................................................................
.............................. CYCLE    7 ..............................
........................................................................
   1   -447.9026930 -0.447903E+03  0.562E-02    1.49       0.0  T
   2   -447.9027022 -0.923306E-05  0.313E-02    1.49       1.0  T
   3   -447.9026791  0.231222E-04  0.117E-02    1.49       1.0  T
   4   -447.9027048 -0.257698E-04  0.419E-03    1.49       1.6  T
   5   -447.9027065 -0.160898E-05  0.201E-03    1.49       3.3  T
   6   -447.9027069 -0.487530E-06  0.102E-03    1.49       6.6  T
   7   -447.9027071 -0.116294E-06  0.665E-04    1.49      10.1  T
   8   -447.9027071 -0.184557E-07  0.526E-04    1.49      12.8  T
     SCC iter.                  ...        0 min,  0.546 sec
     gradient                   ...        0 min,  0.190 sec
 * total energy  :  -442.5573892 Eh     change       -0.9332283E-03 Eh
   gradient norm :     0.0093326 Eh/α   predicted    -0.7272879E-03 ( -22.07%)
   displ. norm   :     0.5156436 α      lambda       -0.1063888E-02
   maximum displ.:     0.1775560 α      in ANC's #36, #39, #29, ...

........................................................................
.............................. CYCLE    8 ..............................
........................................................................
   1   -447.9091230 -0.447909E+03  0.627E-02    1.49       0.0  T
   2   -447.9091331 -0.100679E-04  0.351E-02    1.49       1.0  T
   3   -447.9091001  0.330214E-04  0.133E-02    1.49       1.0  T
   4   -447.9091361 -0.360703E-04  0.461E-03    1.49       1.5  T
   5   -447.9091383 -0.217541E-05  0.219E-03    1.49       3.1  T
   6   -447.9091389 -0.577450E-06  0.102E-03    1.49       6.6  T
   7   -447.9091390 -0.120825E-06  0.632E-04    1.49      10.6  T
   8   -447.9091390 -0.161697E-07  0.499E-04    1.49      13.5  T
     SCC iter.                  ...        0 min,  0.555 sec
     gradient                   ...        0 min,  0.190 sec
 * total energy  :  -442.5582385 Eh     change       -0.8492988E-03 Eh
   gradient norm :     0.0073563 Eh/α   predicted    -0.6734264E-03 ( -20.71%)
   displ. norm   :     0.5758001 α      lambda       -0.1009837E-02
   maximum displ.:     0.2103919 α      in ANC's #36, #39, #37, ...

........................................................................
.............................. CYCLE    9 ..............................
........................................................................
   1   -447.9085532 -0.447909E+03  0.684E-02    1.49       0.0  T
   2   -447.9085620 -0.881151E-05  0.383E-02    1.49       1.0  T
   3   -447.9085231  0.388987E-04  0.141E-02    1.49       1.0  T
   4   -447.9085659 -0.428123E-04  0.466E-03    1.49       1.4  T
   5   -447.9085675 -0.160624E-05  0.230E-03    1.49       2.9  T
   6   -447.9085682 -0.703047E-06  0.101E-03    1.49       6.7  T
   7   -447.9085683 -0.993925E-07  0.691E-04    1.49       9.7  T
   8   -447.9085684 -0.189787E-07  0.539E-04    1.49      12.5  T
     SCC iter.                  ...        0 min,  0.545 sec
     gradient                   ...        0 min,  0.189 sec
 * total energy  :  -442.5590544 Eh     change       -0.8159077E-03 Eh
   gradient norm :     0.0072473 Eh/α   predicted    -0.6723246E-03 ( -17.60%)
   displ. norm   :     0.5934178 α      lambda       -0.9109008E-03
   maximum displ.:     0.2165445 α      in ANC's #36, #39, #37, ...

........................................................................
.............................. CYCLE   10 ..............................
........................................................................
   1   -447.9034217 -0.447903E+03  0.697E-02    1.49       0.0  T
   2   -447.9034289 -0.722211E-05  0.389E-02    1.49       1.0  T
   3   -447.9033935  0.353920E-04  0.137E-02    1.49       1.0  T
   4   -447.9034329 -0.393857E-04  0.454E-03    1.49       1.5  T
   5   -447.9034337 -0.802912E-06  0.237E-03    1.49       2.8  T
   6   -447.9034346 -0.929300E-06  0.969E-04    1.49       6.9  T
   7   -447.9034347 -0.593085E-07  0.754E-04    1.49       8.9  T
     SCC iter.                  ...        0 min,  0.484 sec
     gradient                   ...        0 min,  0.190 sec
 * total energy  :  -442.5597808 Eh     change       -0.7264211E-03 Eh
   gradient norm :     0.0083515 Eh/α   predicted    -0.6158397E-03 ( -15.22%)
   displ. norm   :     0.5610637 α      lambda       -0.7382103E-03
   maximum displ.:     0.1909096 α      in ANC's #36, #39, #32, ...

........................................................................
.............................. CYCLE   11 ..............................
........................................................................
   1   -447.8976613 -0.447898E+03  0.658E-02    1.49       0.0  T
   2   -447.8976678 -0.649560E-05  0.367E-02    1.49       1.0  T
   3   -447.8976434  0.243356E-04  0.119E-02    1.49       1.0  T
   4   -447.8976707 -0.272603E-04  0.433E-03    1.49       1.5  T
   5   -447.8976715 -0.780183E-06  0.222E-03    1.49       3.0  T
   6   -447.8976723 -0.793455E-06  0.102E-03    1.49       6.5  T
   7   -447.8976723 -0.532031E-07  0.818E-04    1.49       8.2  T
   8   -447.8976724 -0.351021E-07  0.606E-04    1.49      11.1  T
     SCC iter.                  ...        0 min,  0.544 sec
     gradient                   ...        0 min,  0.191 sec
 * total energy  :  -442.5603536 Eh     change       -0.5728058E-03 Eh
   gradient norm :     0.0078402 Eh/α   predicted    -0.4853123E-03 ( -15.27%)
   displ. norm   :     0.4991827 α      lambda       -0.5476355E-03
   maximum displ.:     0.1456538 α      in ANC's #36, #32, #39, ...

........................................................................
.............................. CYCLE   12 ..............................
........................................................................
   1   -447.8940877 -0.447894E+03  0.585E-02    1.48       0.0  T
   2   -447.8940929 -0.519684E-05  0.326E-02    1.48       1.0  T
   3   -447.8940787  0.142005E-04  0.931E-03    1.48       1.0  T
   4   -447.8940943 -0.156012E-04  0.386E-03    1.48       1.7  T
   5   -447.8940952 -0.870289E-06  0.194E-03    1.48       3.5  T
   6   -447.8940959 -0.662599E-06  0.877E-04    1.48       7.7  T
   7   -447.8940959 -0.523463E-07  0.676E-04    1.48       9.9  T
     SCC iter.                  ...        0 min,  0.491 sec
     gradient                   ...        0 min,  0.191 sec
 * total energy  :  -442.5607710 Eh     change       -0.4173494E-03 Eh
   gradient norm :     0.0059056 Eh/α   predicted    -0.3420835E-03 ( -18.03%)
   displ. norm   :     0.4459624 α      lambda       -0.4094668E-03
   maximum displ.:     0.1382712 α      in ANC's #32, #36, #39, ...

........................................................................
.............................. CYCLE   13 ..............................
........................................................................
   1   -447.8933942 -0.447893E+03  0.510E-02    1.48       0.0  T
   2   -447.8933978 -0.362826E-05  0.285E-02    1.48       1.0  T
   3   -447.8933912  0.662621E-05  0.697E-03    1.48       1.0  T
   4   -447.8933984 -0.723669E-05  0.332E-03    1.48       2.0  T
   5   -447.8933992 -0.798579E-06  0.153E-03    1.48       4.4  T
   6   -447.8933996 -0.374294E-06  0.785E-04    1.48       8.5  T
   7   -447.8933996 -0.339440E-07  0.628E-04    1.48      10.7  T
     SCC iter.                  ...        0 min,  0.485 sec
     gradient                   ...        0 min,  0.191 sec
 * total energy  :  -442.5610835 Eh     change       -0.3125002E-03 Eh
   gradient norm :     0.0048945 Eh/α   predicted    -0.2454552E-03 ( -21.45%)
   displ. norm   :     0.4282284 α      lambda       -0.3339304E-03
   maximum displ.:     0.1426752 α      in ANC's #32, #33, #44, ...

........................................................................
.............................. CYCLE   14 ..............................
........................................................................
   1   -447.8947096 -0.447895E+03  0.463E-02    1.47       0.0  T
   2   -447.8947125 -0.287723E-05  0.258E-02    1.47       1.0  T
   3   -447.8947085  0.399892E-05  0.579E-03    1.47       1.2  T
   4   -447.8947128 -0.428167E-05  0.298E-03    1.47       2.3  T
   5   -447.8947135 -0.704004E-06  0.137E-03    1.47       4.9  T
   6   -447.8947138 -0.312774E-06  0.695E-04    1.47       9.7  T
   7   -447.8947138 -0.241623E-07  0.567E-04    1.47      11.8  T
     SCC iter.                  ...        0 min,  0.482 sec
     gradient                   ...        0 min,  0.189 sec
 * total energy  :  -442.5613398 Eh     change       -0.2563116E-03 Eh
   gradient norm :     0.0055865 Eh/α   predicted    -0.1975845E-03 ( -22.91%)
   displ. norm   :     0.4234352 α      lambda       -0.2879956E-03
   maximum displ.:     0.1443725 α      in ANC's #32, #15, #33, ...

........................................................................
.............................. CYCLE   15 ..............................
........................................................................
   1   -447.8970547 -0.447897E+03  0.420E-02    1.47       0.0  T
   2   -447.8970573 -0.263707E-05  0.234E-02    1.47       1.0  T
   3   -447.8970535  0.377369E-05  0.540E-03    1.47       1.2  T
   4   -447.8970575 -0.390769E-05  0.282E-03    1.47       2.4  T
   5   -447.8970582 -0.763401E-06  0.125E-03    1.47       5.4  T
   6   -447.8970584 -0.227776E-06  0.668E-04    1.47      10.1  T
   7   -447.8970585 -0.300341E-07  0.524E-04    1.47      12.8  T
     SCC iter.                  ...        0 min,  0.486 sec
     gradient                   ...        0 min,  0.191 sec
 * total energy  :  -442.5615623 Eh     change       -0.2224574E-03 Eh
   gradient norm :     0.0059218 Eh/α   predicted    -0.1698215E-03 ( -23.66%)
   displ. norm   :     0.4260123 α      lambda       -0.2570095E-03
   maximum displ.:     0.1432357 α      in ANC's #32, #15, #3, ...

........................................................................
.............................. CYCLE   16 ..............................
........................................................................
   1   -447.8989867 -0.447899E+03  0.385E-02    1.47       0.0  T
   2   -447.8989891 -0.244736E-05  0.215E-02    1.47       1.0  T
   3   -447.8989842  0.489062E-05  0.555E-03    1.47       1.2  T
   4   -447.8989893 -0.510805E-05  0.269E-03    1.47       2.5  T
   5   -447.8989901 -0.766390E-06  0.116E-03    1.47       5.8  T
   6   -447.8989902 -0.156156E-06  0.654E-04    1.47      10.3  T
   7   -447.8989903 -0.327933E-07  0.493E-04    1.47      13.6  T
     SCC iter.                  ...        0 min,  0.477 sec
     gradient                   ...        0 min,  0.190 sec
 * total energy  :  -442.5617620 Eh     change       -0.1997395E-03 Eh
   gradient norm :     0.0052013 Eh/α   predicted    -0.1518405E-03 ( -23.98%)
   displ. norm   :     0.4250359 α      lambda       -0.2370373E-03
   maximum displ.:     0.1344911 α      in ANC's #32, #15, #3, ...

........................................................................
.............................. CYCLE   17 ..............................
........................................................................
   1   -447.9006822 -0.447901E+03  0.346E-02    1.47       0.0  T
   2   -447.9006840 -0.185493E-05  0.194E-02    1.47       1.0  T
   3   -447.9006781  0.593759E-05  0.569E-03    1.47       1.2  T
   4   -447.9006846 -0.650659E-05  0.232E-03    1.47       2.9  T
   5   -447.9006850 -0.438589E-06  0.110E-03    1.47       6.1  T
   6   -447.9006852 -0.146573E-06  0.607E-04    1.47      11.1  T
   7   -447.9006852 -0.218604E-07  0.472E-04    1.47      14.2  T
     SCC iter.                  ...        0 min,  0.482 sec
     gradient                   ...        0 min,  0.192 sec
 * total energy  :  -442.5619482 Eh     change       -0.1862184E-03 Eh
   gradient norm :     0.0046023 Eh/α   predicted    -0.1399402E-03 ( -24.85%)
   displ. norm   :     0.4645249 α      lambda       -0.2385039E-03
   maximum displ.:     0.1396912 α      in ANC's #15, #32, #3, ...

........................................................................
.............................. CYCLE   18 ..............................
........................................................................
   1   -447.8996436 -0.447900E+03  0.363E-02    1.47       0.0  T
   2   -447.8996456 -0.195455E-05  0.205E-02    1.47       1.0  T
   3   -447.8996370  0.855372E-05  0.673E-03    1.47       1.0  T
   4   -447.8996466 -0.954148E-05  0.238E-03    1.47       2.8  T
   5   -447.8996469 -0.303131E-06  0.130E-03    1.47       5.2  T
   6   -447.8996471 -0.235032E-06  0.673E-04    1.47      10.0  T
   7   -447.8996471 -0.244031E-07  0.543E-04    1.47      12.4  T
     SCC iter.                  ...        0 min,  0.482 sec
     gradient                   ...        0 min,  0.191 sec
 * total energy  :  -442.5621411 Eh     change       -0.1928368E-03 Eh
   gradient norm :     0.0052531 Eh/α   predicted    -0.1449888E-03 ( -24.81%)
   displ. norm   :     0.5022936 α      lambda       -0.2852870E-03
   maximum displ.:     0.1574651 α      in ANC's #15, #3, #6, ...

........................................................................
.............................. CYCLE   19 ..............................
........................................................................
   1   -447.9022201 -0.447902E+03  0.373E-02    1.47       0.0  T
   2   -447.9022227 -0.259741E-05  0.211E-02    1.47       1.0  T
   3   -447.9022103  0.123432E-04  0.791E-03    1.47       1.0  T
   4   -447.9022240 -0.136731E-04  0.263E-03    1.47       2.6  T
   5   -447.9022244 -0.448729E-06  0.154E-03    1.47       4.4  T
   6   -447.9022248 -0.325588E-06  0.780E-04    1.47       8.6  T
   7   -447.9022248 -0.457316E-07  0.594E-04    1.47      11.3  T
     SCC iter.                  ...        0 min,  0.478 sec
     gradient                   ...        0 min,  0.189 sec
 * total energy  :  -442.5623561 Eh     change       -0.2150718E-03 Eh
   gradient norm :     0.0069941 Eh/α   predicted    -0.1786524E-03 ( -16.93%)
   displ. norm   :     0.6041980 α      lambda       -0.3220294E-03
   maximum displ.:     0.1851147 α      in ANC's #15, #3, #32, ...

........................................................................
.............................. CYCLE   20 ..............................
........................................................................
   1   -447.8943868 -0.447894E+03  0.483E-02    1.47       0.0  T
   2   -447.8943906 -0.378093E-05  0.273E-02    1.47       1.0  T
   3   -447.8943695  0.210985E-04  0.103E-02    1.47       1.0  T
   4   -447.8943928 -0.233097E-04  0.335E-03    1.47       2.0  T
   5   -447.8943934 -0.598624E-06  0.202E-03    1.47       3.3  T
   6   -447.8943940 -0.596636E-06  0.101E-03    1.47       6.6  T
   7   -447.8943941 -0.672985E-07  0.792E-04    1.47       8.5  T
   8   -447.8943941 -0.371048E-07  0.558E-04    1.47      12.0  T
     SCC iter.                  ...        0 min,  0.544 sec
     gradient                   ...        0 min,  0.191 sec
 * total energy  :  -442.5625839 Eh     change       -0.2278115E-03 Eh
   gradient norm :     0.0077246 Eh/α   predicted    -0.2198010E-03 (  -3.52%)
   displ. norm   :     0.4737713 α      lambda       -0.2919925E-03
   maximum displ.:     0.1483475 α      in ANC's #15, #3, #6, ...
 * RMSD in coord.:     0.4525156 α      energy gain  -0.1676772E+00 Eh

generating ANC from model Hessian ...
Using Lindh-Hessian (1995)
 Shifting diagonal of input Hessian by   1.001681464112933E-002
 Lowest  eigenvalues of input Hessian
    0.010000    0.000000    0.000000    0.000000    0.000000    0.000000
    0.000000    0.010024    0.010032    0.010041    0.010061    0.010066
    0.010085    0.010103    0.010120    0.010141    0.010145    0.010169
 Highest eigenvalues
    2.057432    2.068256    2.077822    2.081711    2.093573    2.095555
 

........................................................................
.............................. CYCLE   21 ..............................
........................................................................
   1   -447.8955840 -0.447896E+03  0.363E-02    1.47       0.0  T
   2   -447.8955868 -0.272438E-05  0.204E-02    1.47       1.0  T
   3   -447.8955662  0.205428E-04  0.956E-03    1.46       1.0  T
   4   -447.8955886 -0.223646E-04  0.278E-03    1.47       2.4  T
   5   -447.8955893 -0.748975E-06  0.141E-03    1.47       4.8  T
   6   -447.8955896 -0.234799E-06  0.707E-04    1.47       9.5  T
   7   -447.8955896 -0.541314E-07  0.447E-04    1.47      15.0  T
     SCC iter.                  ...        0 min,  0.478 sec
     gradient                   ...        0 min,  0.192 sec
 * total energy  :  -442.5628084 Eh     change       -0.2245096E-03 Eh
   gradient norm :     0.0063860 Eh/α   predicted     0.0000000E+00 (-100.00%)
   displ. norm   :     0.0658532 α      lambda       -0.9338204E-04
   maximum displ.:     0.0151753 α      in ANC's #3, #43, #1, ...

........................................................................
.............................. CYCLE   22 ..............................
........................................................................
   1   -447.8984728 -0.447898E+03  0.925E-03    1.47       0.0  T
   2   -447.8984733 -0.407695E-06  0.538E-03    1.47       1.2  T
   3   -447.8984719  0.134721E-05  0.301E-03    1.47       2.2  T
   4   -447.8984735 -0.163038E-05  0.874E-04    1.47       7.7  T
   5   -447.8984736 -0.627887E-07  0.534E-04    1.47      12.6  T
   6   -447.8984736 -0.295383E-07  0.320E-04    1.47      21.0  T
     SCC iter.                  ...        0 min,  0.411 sec
     gradient                   ...        0 min,  0.191 sec
 * total energy  :  -442.5628959 Eh     change       -0.8749478E-04 Eh
   gradient norm :     0.0036405 Eh/α   predicted    -0.5318482E-04 ( -39.21%)
   displ. norm   :     0.1860117 α      lambda       -0.1719367E-03
   maximum displ.:     0.0488370 α      in ANC's #3, #1, #43, ...

........................................................................
.............................. CYCLE   23 ..............................
........................................................................
   1   -447.9019013 -0.447902E+03  0.217E-02    1.46       0.0  T
   2   -447.9019031 -0.181239E-05  0.125E-02    1.46       1.0  T
   3   -447.9018961  0.705029E-05  0.662E-03    1.46       1.0  T
   4   -447.9019043 -0.822903E-05  0.198E-03    1.46       3.4  T
   5   -447.9019046 -0.343216E-06  0.121E-03    1.46       5.5  T
   6   -447.9019048 -0.154081E-06  0.753E-04    1.46       8.9  T
   7   -447.9019048 -0.310287E-07  0.604E-04    1.46      11.1  T
     SCC iter.                  ...        0 min,  0.481 sec
     gradient                   ...        0 min,  0.190 sec
 * total energy  :  -442.5630074 Eh     change       -0.1114233E-03 Eh
   gradient norm :     0.0025259 Eh/α   predicted    -0.9297358E-04 ( -16.56%)
   displ. norm   :     0.1205121 α      lambda       -0.5002235E-04
   maximum displ.:     0.0367783 α      in ANC's #3, #1, #19, ...

........................................................................
.............................. CYCLE   24 ..............................
........................................................................
   1   -447.9016626 -0.447902E+03  0.106E-02    1.46       0.0  T
   2   -447.9016628 -0.235230E-06  0.599E-03    1.46       1.1  T
   3   -447.9016617  0.118456E-05  0.260E-03    1.46       2.6  T
   4   -447.9016630 -0.134721E-05  0.876E-04    1.46       7.7  T
   5   -447.9016631 -0.473694E-07  0.540E-04    1.46      12.4  T
   6   -447.9016631 -0.292946E-07  0.362E-04    1.46      18.5  T
     SCC iter.                  ...        0 min,  0.418 sec
     gradient                   ...        0 min,  0.190 sec
 * total energy  :  -442.5630503 Eh     change       -0.4290744E-04 Eh
   gradient norm :     0.0033633 Eh/α   predicted    -0.2611265E-04 ( -39.14%)
   displ. norm   :     0.2793932 α      lambda       -0.1128562E-03
   maximum displ.:     0.0887418 α      in ANC's #3, #1, #19, ...

........................................................................
.............................. CYCLE   25 ..............................
........................................................................
   1   -447.8996480 -0.447900E+03  0.214E-02    1.46       0.0  T
   2   -447.8996486 -0.604255E-06  0.120E-02    1.46       1.0  T
   3   -447.8996450  0.362348E-05  0.438E-03    1.46       1.5  T
   4   -447.8996490 -0.398287E-05  0.143E-03    1.46       4.7  T
   5   -447.8996491 -0.924459E-07  0.790E-04    1.46       8.5  T
   6   -447.8996492 -0.101964E-06  0.373E-04    1.46      18.0  T
     SCC iter.                  ...        0 min,  0.419 sec
     gradient                   ...        0 min,  0.195 sec
 * total energy  :  -442.5631379 Eh     change       -0.8767143E-04 Eh
   gradient norm :     0.0038989 Eh/α   predicted    -0.6083347E-04 ( -30.61%)
   displ. norm   :     0.3469732 α      lambda       -0.1187229E-03
   maximum displ.:     0.1150614 α      in ANC's #3, #1, #19, ...

........................................................................
.............................. CYCLE   26 ..............................
........................................................................
   1   -447.8972156 -0.447897E+03  0.240E-02    1.47       0.0  T
   2   -447.8972164 -0.739820E-06  0.136E-02    1.47       1.0  T
   3   -447.8972127  0.370607E-05  0.452E-03    1.46       1.5  T
   4   -447.8972168 -0.411243E-05  0.148E-03    1.47       4.5  T
   5   -447.8972168 -0.491537E-07  0.867E-04    1.47       7.7  T
   6   -447.8972170 -0.137689E-06  0.333E-04    1.47      20.2  T
     SCC iter.                  ...        0 min,  0.429 sec
     gradient                   ...        0 min,  0.199 sec
 * total energy  :  -442.5632307 Eh     change       -0.9276001E-04 Eh
   gradient norm :     0.0037508 Eh/α   predicted    -0.6651138E-04 ( -28.30%)
   displ. norm   :     0.3803460 α      lambda       -0.1213952E-03
   maximum displ.:     0.1310436 α      in ANC's #3, #1, #19, ...

........................................................................
.............................. CYCLE   27 ..............................
........................................................................
   1   -447.8958469 -0.447896E+03  0.246E-02    1.47       0.0  T
   2   -447.8958478 -0.927852E-06  0.140E-02    1.47       1.0  T
   3   -447.8958434  0.442825E-05  0.491E-03    1.47       1.4  T
   4   -447.8958483 -0.493071E-05  0.153E-03    1.47       4.4  T
   5   -447.8958484 -0.945562E-07  0.891E-04    1.47       7.5  T
   6   -447.8958486 -0.125696E-06  0.392E-04    1.47      17.1  T
     SCC iter.                  ...        0 min,  0.431 sec
     gradient                   ...        0 min,  0.193 sec
 * total energy  :  -442.5633278 Eh     change       -0.9711167E-04 Eh
   gradient norm :     0.0032155 Eh/α   predicted    -0.6948366E-04 ( -28.45%)
   displ. norm   :     0.4176845 α      lambda       -0.1328544E-03
   maximum displ.:     0.1484425 α      in ANC's #3, #1, #19, ...

........................................................................
.............................. CYCLE   28 ..............................
........................................................................
   1   -447.8962103 -0.447896E+03  0.259E-02    1.47       0.0  T
   2   -447.8962114 -0.109887E-05  0.147E-02    1.47       1.0  T
   3   -447.8962060  0.537785E-05  0.531E-03    1.47       1.3  T
   4   -447.8962120 -0.593738E-05  0.168E-03    1.47       4.0  T
   5   -447.8962122 -0.193452E-06  0.951E-04    1.47       7.1  T
   6   -447.8962123 -0.120969E-06  0.491E-04    1.47      13.7  T
     SCC iter.                  ...        0 min,  0.420 sec
     gradient                   ...        0 min,  0.193 sec
 * total energy  :  -442.5634351 Eh     change       -0.1072778E-03 Eh
   gradient norm :     0.0031723 Eh/α   predicted    -0.7804649E-04 ( -27.25%)
   displ. norm   :     0.4596092 α      lambda       -0.1440734E-03
   maximum displ.:     0.1669541 α      in ANC's #3, #1, #19, ...

........................................................................
.............................. CYCLE   29 ..............................
........................................................................
   1   -447.8980781 -0.447898E+03  0.273E-02    1.47       0.0  T
   2   -447.8980791 -0.106303E-05  0.156E-02    1.47       1.0  T
   3   -447.8980742  0.489152E-05  0.502E-03    1.47       1.3  T
   4   -447.8980796 -0.533791E-05  0.176E-03    1.47       3.8  T
   5   -447.8980798 -0.245715E-06  0.960E-04    1.47       7.0  T
   6   -447.8980799 -0.116115E-06  0.525E-04    1.47      12.8  T
     SCC iter.                  ...        0 min,  0.421 sec
     gradient                   ...        0 min,  0.194 sec
 * total energy  :  -442.5635533 Eh     change       -0.1181925E-03 Eh
   gradient norm :     0.0039353 Eh/α   predicted    -0.8725502E-04 ( -26.18%)
   displ. norm   :     0.5137113 α      lambda       -0.1606983E-03
   maximum displ.:     0.1894652 α      in ANC's #3, #19, #1, ...

........................................................................
.............................. CYCLE   30 ..............................
........................................................................
   1   -447.9005818 -0.447901E+03  0.293E-02    1.47       0.0  T
   2   -447.9005828 -0.100422E-05  0.167E-02    1.47       1.0  T
   3   -447.9005792  0.361854E-05  0.443E-03    1.47       1.5  T
   4   -447.9005831 -0.391175E-05  0.179E-03    1.47       3.7  T
   5   -447.9005834 -0.255818E-06  0.949E-04    1.47       7.1  T
   6   -447.9005835 -0.122009E-06  0.511E-04    1.47      13.1  T
     SCC iter.                  ...        0 min,  0.417 sec
     gradient                   ...        0 min,  0.193 sec
 * total energy  :  -442.5636879 Eh     change       -0.1346508E-03 Eh
   gradient norm :     0.0045855 Eh/α   predicted    -0.1015598E-03 ( -24.58%)
   displ. norm   :     0.5675119 α      lambda       -0.1834156E-03
   maximum displ.:     0.2121063 α      in ANC's #3, #19, #1, ...

........................................................................
.............................. CYCLE   31 ..............................
........................................................................
   1   -447.9027865 -0.447903E+03  0.318E-02    1.47       0.0  T
   2   -447.9027876 -0.111376E-05  0.181E-02    1.47       1.0  T
   3   -447.9027834  0.415249E-05  0.475E-03    1.47       1.4  T
   4   -447.9027879 -0.447042E-05  0.192E-03    1.47       3.5  T
   5   -447.9027882 -0.270365E-06  0.101E-03    1.47       6.7  T
   6   -447.9027883 -0.151670E-06  0.517E-04    1.47      13.0  T
   7   -447.9027883 -0.160536E-07  0.411E-04    1.47      16.3  T
     SCC iter.                  ...        0 min,  0.481 sec
     gradient                   ...        0 min,  0.194 sec
 * total energy  :  -442.5638425 Eh     change       -0.1545265E-03 Eh
   gradient norm :     0.0044918 Eh/α   predicted    -0.1212502E-03 ( -21.53%)
   displ. norm   :     0.6002176 α      lambda       -0.1956199E-03
   maximum displ.:     0.2279662 α      in ANC's #3, #19, #1, ...

........................................................................
.............................. CYCLE   32 ..............................
........................................................................
   1   -447.9035819 -0.447904E+03  0.341E-02    1.47       0.0  T
   2   -447.9035832 -0.132045E-05  0.194E-02    1.47       1.0  T
   3   -447.9035756  0.759685E-05  0.618E-03    1.47       1.1  T
   4   -447.9035838 -0.823863E-05  0.207E-03    1.47       3.2  T
   5   -447.9035841 -0.283753E-06  0.106E-03    1.47       6.3  T
   6   -447.9035843 -0.166583E-06  0.530E-04    1.47      12.7  T
   7   -447.9035843 -0.198393E-07  0.408E-04    1.47      16.5  T
     SCC iter.                  ...        0 min,  0.484 sec
     gradient                   ...        0 min,  0.192 sec
 * total energy  :  -442.5640051 Eh     change       -0.1626013E-03 Eh
   gradient norm :     0.0037748 Eh/α   predicted    -0.1331203E-03 ( -18.13%)
   displ. norm   :     0.6051569 α      lambda       -0.1828059E-03
   maximum displ.:     0.2351534 α      in ANC's #3, #19, #1, ...

........................................................................
.............................. CYCLE   33 ..............................
........................................................................
   1   -447.9025284 -0.447903E+03  0.351E-02    1.46       0.0  T
   2   -447.9025297 -0.133148E-05  0.200E-02    1.46       1.0  T
   3   -447.9025199  0.977581E-05  0.696E-03    1.46       1.0  T
   4   -447.9025306 -0.106227E-04  0.216E-03    1.46       3.1  T
   5   -447.9025309 -0.287132E-06  0.110E-03    1.46       6.1  T
   6   -447.9025310 -0.177027E-06  0.551E-04    1.46      12.2  T
   7   -447.9025310 -0.203221E-07  0.430E-04    1.46      15.6  T
     SCC iter.                  ...        0 min,  0.481 sec
     gradient                   ...        0 min,  0.189 sec
 * total energy  :  -442.5641550 Eh     change       -0.1499060E-03 Eh
   gradient norm :     0.0033401 Eh/α   predicted    -0.1248776E-03 ( -16.70%)
   displ. norm   :     0.5917408 α      lambda       -0.1588961E-03
   maximum displ.:     0.2360743 α      in ANC's #3, #1, #19, ...

........................................................................
.............................. CYCLE   34 ..............................
........................................................................
   1   -447.9005431 -0.447901E+03  0.344E-02    1.46       0.0  T
   2   -447.9005443 -0.119716E-05  0.196E-02    1.46       1.0  T
   3   -447.9005357  0.853239E-05  0.663E-03    1.46       1.0  T
   4   -447.9005450 -0.930894E-05  0.207E-03    1.46       3.2  T
   5   -447.9005452 -0.201168E-06  0.109E-03    1.46       6.2  T
   6   -447.9005454 -0.193717E-06  0.494E-04    1.46      13.6  T
   7   -447.9005454 -0.144514E-07  0.391E-04    1.46      17.2  T
     SCC iter.                  ...        0 min,  0.478 sec
     gradient                   ...        0 min,  0.190 sec
 * total energy  :  -442.5642857 Eh     change       -0.1306865E-03 Eh
   gradient norm :     0.0036458 Eh/α   predicted    -0.1072718E-03 ( -17.92%)
   displ. norm   :     0.6794181 α      lambda       -0.2630159E-03
   maximum displ.:     0.2703730 α      in ANC's #3, #1, #19, ...

........................................................................
.............................. CYCLE   35 ..............................
........................................................................
   1   -447.8995521 -0.447900E+03  0.486E-02    1.46       0.0  T
   2   -447.8995549 -0.285436E-05  0.275E-02    1.46       1.0  T
   3   -447.8995372  0.177327E-04  0.977E-03    1.46       1.0  T
   4   -447.8995567 -0.194623E-04  0.302E-03    1.46       2.2  T
   5   -447.8995570 -0.371320E-06  0.165E-03    1.46       4.1  T
   6   -447.8995575 -0.460705E-06  0.672E-04    1.46      10.0  T
   7   -447.8995575 -0.289448E-07  0.521E-04    1.46      12.9  T
     SCC iter.                  ...        0 min,  0.489 sec
     gradient                   ...        0 min,  0.191 sec
 * total energy  :  -442.5643623 Eh     change       -0.7665218E-04 Eh
   gradient norm :     0.0062465 Eh/α   predicted    -0.1922398E-03 ( 150.79%)
   displ. norm   :     0.4975973 α      lambda       -0.1605529E-03
   maximum displ.:     0.1891194 α      in ANC's #3, #1, #19, ...

........................................................................
.............................. CYCLE   36 ..............................
........................................................................
   1   -447.8929332 -0.447893E+03  0.288E-02    1.46       0.0  T
   2   -447.8929347 -0.155596E-05  0.164E-02    1.46       1.0  T
   3   -447.8929303  0.438276E-05  0.494E-03    1.46       1.4  T
   4   -447.8929351 -0.481529E-05  0.178E-03    1.46       3.8  T
   5   -447.8929354 -0.251882E-06  0.890E-04    1.46       7.5  T
   6   -447.8929355 -0.917572E-07  0.467E-04    1.46      14.4  T
     SCC iter.                  ...        0 min,  0.420 sec
     gradient                   ...        0 min,  0.191 sec
 * total energy  :  -442.5644516 Eh     change       -0.8931015E-04 Eh
   gradient norm :     0.0059621 Eh/α   predicted    -0.1001749E-03 (  12.17%)
   displ. norm   :     0.1837154 α      lambda       -0.1586392E-03
   maximum displ.:     0.0734851 α      in ANC's #3, #1, #19, ...

........................................................................
.............................. CYCLE   37 ..............................
........................................................................
   1   -447.8970169 -0.447897E+03  0.173E-02    1.46       0.0  T
   2   -447.8970179 -0.107615E-05  0.990E-03    1.46       1.0  T
   3   -447.8970132  0.476750E-05  0.528E-03    1.46       1.3  T
   4   -447.8970187 -0.553052E-05  0.156E-03    1.46       4.3  T
   5   -447.8970189 -0.243065E-06  0.894E-04    1.46       7.5  T
   6   -447.8970190 -0.805422E-07  0.537E-04    1.46      12.5  T
     SCC iter.                  ...        0 min,  0.417 sec
     gradient                   ...        0 min,  0.191 sec
 * total energy  :  -442.5645606 Eh     change       -0.1089538E-03 Eh
   gradient norm :     0.0029406 Eh/α   predicted    -0.8199811E-04 ( -24.74%)
   displ. norm   :     0.4802973 α      lambda       -0.1187854E-03
   maximum displ.:     0.2069783 α      in ANC's #3, #1, #19, ...

........................................................................
.............................. CYCLE   38 ..............................
........................................................................
   1   -447.8989186 -0.447899E+03  0.277E-02    1.46       0.0  T
   2   -447.8989196 -0.988949E-06  0.157E-02    1.46       1.0  T
   3   -447.8989161  0.346646E-05  0.440E-03    1.46       1.5  T
   4   -447.8989199 -0.374764E-05  0.175E-03    1.46       3.8  T
   5   -447.8989201 -0.234457E-06  0.883E-04    1.46       7.6  T
   6   -447.8989203 -0.120396E-06  0.420E-04    1.46      16.0  T
     SCC iter.                  ...        0 min,  0.417 sec
     gradient                   ...        0 min,  0.191 sec
 * total energy  :  -442.5646582 Eh     change       -0.9758743E-04 Eh
   gradient norm :     0.0024827 Eh/α   predicted    -0.7309656E-04 ( -25.10%)
   displ. norm   :     0.6114710 α      lambda       -0.1211816E-03
   maximum displ.:     0.2660745 α      in ANC's #3, #1, #19, ...

........................................................................
.............................. CYCLE   39 ..............................
........................................................................
   1   -447.8999279 -0.447900E+03  0.345E-02    1.46       0.0  T
   2   -447.8999291 -0.122726E-05  0.195E-02    1.46       1.0  T
   3   -447.8999251  0.405428E-05  0.480E-03    1.46       1.4  T
   4   -447.8999294 -0.428798E-05  0.207E-03    1.46       3.2  T
   5   -447.8999297 -0.351364E-06  0.954E-04    1.46       7.0  T
   6   -447.8999299 -0.157418E-06  0.383E-04    1.46      17.5  T
     SCC iter.                  ...        0 min,  0.413 sec
     gradient                   ...        0 min,  0.190 sec
 * total energy  :  -442.5647623 Eh     change       -0.1041150E-03 Eh
   gradient norm :     0.0023634 Eh/α   predicted    -0.8325128E-04 ( -20.04%)
   displ. norm   :     0.6624094 α      lambda       -0.1173801E-03
   maximum displ.:     0.2914656 α      in ANC's #3, #1, #19, ...

........................................................................
.............................. CYCLE   40 ..............................
........................................................................
   1   -447.8998029 -0.447900E+03  0.367E-02    1.46       0.0  T
   2   -447.8998042 -0.134544E-05  0.208E-02    1.46       1.0  T
   3   -447.8997992  0.499891E-05  0.528E-03    1.46       1.3  T
   4   -447.8998045 -0.531459E-05  0.219E-03    1.46       3.1  T
   5   -447.8998049 -0.363919E-06  0.101E-03    1.46       6.7  T
   6   -447.8998051 -0.177315E-06  0.403E-04    1.46      16.7  T
   7   -447.8998051 -0.935762E-08  0.316E-04    1.46      21.2  T
     SCC iter.                  ...        0 min,  0.479 sec
     gradient                   ...        0 min,  0.190 sec
 * total energy  :  -442.5648641 Eh     change       -0.1018056E-03 Eh
   gradient norm :     0.0017611 Eh/α   predicted    -0.8444370E-04 ( -17.05%)
   displ. norm   :     0.9508297 α      lambda       -0.1053802E-03
   maximum displ.:     0.4292346 α      in ANC's #3, #1, #19, ...

........................................................................
.............................. CYCLE   41 ..............................
........................................................................
   1   -447.8998342 -0.447900E+03  0.516E-02    1.46       0.0  T
   2   -447.8998369 -0.268417E-05  0.292E-02    1.46       1.0  T
   3   -447.8998260  0.108523E-04  0.778E-03    1.46       1.0  T
   4   -447.8998377 -0.116741E-04  0.304E-03    1.46       2.2  T
   5   -447.8998383 -0.639401E-06  0.135E-03    1.46       5.0  T
   6   -447.8998386 -0.312751E-06  0.533E-04    1.46      12.6  T
   7   -447.8998387 -0.178777E-07  0.410E-04    1.46      16.4  T
     SCC iter.                  ...        0 min,  0.483 sec
     gradient                   ...        0 min,  0.192 sec
 * total energy  :  -442.5649857 Eh     change       -0.1216669E-03 Eh
   gradient norm :     0.0019451 Eh/α   predicted    -0.7386566E-04 ( -39.29%)
   displ. norm   :     0.7462340 α      lambda       -0.6761782E-04
   maximum displ.:     0.3429026 α      in ANC's #3, #1, #19, ...

........................................................................
.............................. CYCLE   42 ..............................
........................................................................
   1   -447.8985028 -0.447899E+03  0.390E-02    1.46       0.0  T
   2   -447.8985043 -0.153289E-05  0.220E-02    1.46       1.0  T
   3   -447.8984990  0.530013E-05  0.558E-03    1.46       1.2  T
   4   -447.8985047 -0.570830E-05  0.230E-03    1.46       2.9  T
   5   -447.8985051 -0.391271E-06  0.996E-04    1.46       6.7  T
   6   -447.8985053 -0.158357E-06  0.445E-04    1.46      15.1  T
     SCC iter.                  ...        0 min,  0.414 sec
     gradient                   ...        0 min,  0.191 sec
 * total energy  :  -442.5650697 Eh     change       -0.8392169E-04 Eh
   gradient norm :     0.0023253 Eh/α   predicted    -0.4217941E-04 ( -49.74%)
   displ. norm   :     0.4768609 α      lambda       -0.9118113E-04
   maximum displ.:     0.2295578 α      in ANC's #3, #1, #19, ...
 * RMSD in coord.:     0.6569489 α      energy gain  -0.2485732E-02 Eh

generating ANC from model Hessian ...
Using Lindh-Hessian (1995)
 Shifting diagonal of input Hessian by   1.003859895307434E-002
 Lowest  eigenvalues of input Hessian
    0.010000    0.000000    0.000000    0.000000    0.000000    0.000000
    0.000000    0.010046    0.010048    0.010063    0.010070    0.010080
    0.010090    0.010122    0.010132    0.010160    0.010170    0.010190
 Highest eigenvalues
    2.057748    2.068405    2.078960    2.082360    2.095397    2.096390
 

........................................................................
.............................. CYCLE   43 ..............................
........................................................................
   1   -447.9020543 -0.447902E+03  0.241E-02    1.46       0.0  T
   2   -447.9020550 -0.736457E-06  0.136E-02    1.46       1.0  T
   3   -447.9020526  0.238438E-05  0.376E-03    1.46       1.8  T
   4   -447.9020552 -0.259704E-05  0.155E-03    1.46       4.3  T
   5   -447.9020554 -0.167182E-06  0.756E-04    1.46       8.9  T
   6   -447.9020555 -0.763239E-07  0.405E-04    1.46      16.6  T
     SCC iter.                  ...        0 min,  0.414 sec
     gradient                   ...        0 min,  0.190 sec
 * total energy  :  -442.5651401 Eh     change       -0.7045136E-04 Eh
   gradient norm :     0.0024750 Eh/α   predicted     0.0000000E+00 (-100.00%)
   displ. norm   :     0.0436036 α      lambda       -0.3441261E-04
   maximum displ.:     0.0146553 α      in ANC's #34, #15, #65, ...

........................................................................
.............................. CYCLE   44 ..............................
........................................................................
   1   -447.9004652 -0.447900E+03  0.532E-03    1.46       0.0  T
   2   -447.9004652 -0.789951E-07  0.303E-03    1.46       2.2  T
   3   -447.9004650  0.225114E-06  0.118E-03    1.46       5.7  T
   4   -447.9004653 -0.254717E-06  0.396E-04    1.46      16.9  T
   5   -447.9004653 -0.121329E-07  0.227E-04    1.46      29.6  T
     SCC iter.                  ...        0 min,  0.348 sec
     gradient                   ...        0 min,  0.190 sec
 * total energy  :  -442.5651688 Eh     change       -0.2865883E-04 Eh
   gradient norm :     0.0013007 Eh/α   predicted    -0.1726302E-04 ( -39.76%)
   displ. norm   :     0.2165786 α      lambda       -0.7346767E-04
   maximum displ.:     0.0732885 α      in ANC's #34, #15, #5, ...

........................................................................
.............................. CYCLE   45 ..............................
........................................................................
   1   -447.8964764 -0.447896E+03  0.230E-02    1.46       0.0  T
   2   -447.8964773 -0.997241E-06  0.130E-02    1.46       1.0  T
   3   -447.8964734  0.396898E-05  0.479E-03    1.46       1.4  T
   4   -447.8964778 -0.443588E-05  0.155E-03    1.46       4.3  T
   5   -447.8964779 -0.133391E-06  0.847E-04    1.46       7.9  T
   6   -447.8964780 -0.901229E-07  0.444E-04    1.46      15.1  T
     SCC iter.                  ...        0 min,  0.415 sec
     gradient                   ...        0 min,  0.199 sec
 * total energy  :  -442.5652239 Eh     change       -0.5513747E-04 Eh
   gradient norm :     0.0030186 Eh/α   predicted    -0.3749999E-04 ( -31.99%)
   displ. norm   :     0.0662756 α      lambda       -0.2629765E-04
   maximum displ.:     0.0205838 α      in ANC's #34, #15, #5, ...

........................................................................
.............................. CYCLE   46 ..............................
........................................................................
   1   -447.8973738 -0.447897E+03  0.577E-03    1.46       0.0  T
   2   -447.8973738 -0.563052E-07  0.324E-03    1.46       2.1  T
   3   -447.8973737  0.122718E-06  0.892E-04    1.46       7.5  T
   4   -447.8973738 -0.132575E-06  0.419E-04    1.46      16.0  T
     SCC iter.                  ...        0 min,  0.278 sec
     gradient                   ...        0 min,  0.191 sec
 * total energy  :  -442.5652491 Eh     change       -0.2521414E-04 Eh
   gradient norm :     0.0025060 Eh/α   predicted    -0.1364910E-04 ( -45.87%)
   displ. norm   :     0.3627273 α      lambda       -0.1314544E-03
   maximum displ.:     0.1083589 α      in ANC's #34, #15, #5, ...

........................................................................
.............................. CYCLE   47 ..............................
........................................................................
   1   -447.9008941 -0.447901E+03  0.296E-02    1.46       0.0  T
   2   -447.9008953 -0.120062E-05  0.166E-02    1.46       1.0  T
   3   -447.9008929  0.240729E-05  0.406E-03    1.46       1.7  T
   4   -447.9008955 -0.263963E-05  0.181E-03    1.46       3.7  T
   5   -447.9008957 -0.224727E-06  0.875E-04    1.46       7.7  T
   6   -447.9008959 -0.128408E-06  0.406E-04    1.46      16.5  T
     SCC iter.                  ...        0 min,  0.420 sec
     gradient                   ...        0 min,  0.191 sec
 * total energy  :  -442.5653388 Eh     change       -0.8971279E-04 Eh
   gradient norm :     0.0017811 Eh/α   predicted    -0.7444442E-04 ( -17.02%)
   displ. norm   :     0.4126409 α      lambda       -0.5132480E-04
   maximum displ.:     0.1236457 α      in ANC's #15, #34, #5, ...

........................................................................
.............................. CYCLE   48 ..............................
........................................................................
   1   -447.9022283 -0.447902E+03  0.308E-02    1.46       0.0  T
   2   -447.9022295 -0.121616E-05  0.174E-02    1.46       1.0  T
   3   -447.9022268  0.268281E-05  0.432E-03    1.46       1.6  T
   4   -447.9022299 -0.304143E-05  0.186E-03    1.46       3.6  T
   5   -447.9022300 -0.173159E-06  0.945E-04    1.46       7.1  T
   6   -447.9022302 -0.142543E-06  0.462E-04    1.46      14.5  T
     SCC iter.                  ...        0 min,  0.414 sec
     gradient                   ...        0 min,  0.189 sec
 * total energy  :  -442.5653899 Eh     change       -0.5102705E-04 Eh
   gradient norm :     0.0022531 Eh/α   predicted    -0.2766174E-04 ( -45.79%)
   displ. norm   :     0.1958506 α      lambda       -0.4084403E-04
   maximum displ.:     0.0615575 α      in ANC's #15, #5, #4, ...

........................................................................
.............................. CYCLE   49 ..............................
........................................................................
   1   -447.9024172 -0.447902E+03  0.129E-02    1.46       0.0  T
   2   -447.9024174 -0.230592E-06  0.732E-03    1.46       1.0  T
   3   -447.9024166  0.803453E-06  0.225E-03    1.46       3.0  T
   4   -447.9024175 -0.910869E-06  0.849E-04    1.46       7.9  T
   5   -447.9024176 -0.328692E-07  0.507E-04    1.46      13.2  T
     SCC iter.                  ...        0 min,  0.345 sec
     gradient                   ...        0 min,  0.189 sec
 * total energy  :  -442.5654269 Eh     change       -0.3705850E-04 Eh
   gradient norm :     0.0017018 Eh/α   predicted    -0.2120625E-04 ( -42.78%)
   displ. norm   :     0.7084679 α      lambda       -0.1149515E-03
   maximum displ.:     0.2237418 α      in ANC's #15, #5, #4, ...

........................................................................
.............................. CYCLE   50 ..............................
........................................................................
   1   -447.9013893 -0.447901E+03  0.442E-02    1.46       0.0  T
   2   -447.9013919 -0.260730E-05  0.252E-02    1.46       1.0  T
   3   -447.9013800  0.118692E-04  0.840E-03    1.46       1.0  T
   4   -447.9013933 -0.132456E-04  0.270E-03    1.46       2.5  T
   5   -447.9013936 -0.343918E-06  0.151E-03    1.46       4.4  T
   6   -447.9013939 -0.330785E-06  0.772E-04    1.46       8.7  T
   7   -447.9013940 -0.306670E-07  0.636E-04    1.46      10.5  T
     SCC iter.                  ...        0 min,  0.478 sec
     gradient                   ...        0 min,  0.190 sec
 * total energy  :  -442.5655446 Eh     change       -0.1177039E-03 Eh
   gradient norm :     0.0030758 Eh/α   predicted    -0.7031006E-04 ( -40.27%)
   displ. norm   :     0.3295368 α      lambda       -0.6243948E-04
   maximum displ.:     0.1037288 α      in ANC's #15, #5, #4, ...

........................................................................
.............................. CYCLE   51 ..............................
........................................................................
   1   -447.9010274 -0.447901E+03  0.185E-02    1.46       0.0  T
   2   -447.9010278 -0.362452E-06  0.105E-02    1.46       1.0  T
   3   -447.9010261  0.168413E-05  0.310E-03    1.46       2.2  T
   4   -447.9010280 -0.188797E-05  0.110E-03    1.46       6.1  T
   5   -447.9010280 -0.619042E-07  0.592E-04    1.46      11.3  T
   6   -447.9010281 -0.416281E-07  0.368E-04    1.46      18.2  T
     SCC iter.                  ...        0 min,  0.413 sec
     gradient                   ...        0 min,  0.189 sec
 * total energy  :  -442.5656007 Eh     change       -0.5603481E-04 Eh
   gradient norm :     0.0033202 Eh/α   predicted    -0.3465080E-04 ( -38.16%)
   displ. norm   :     0.5525123 α      lambda       -0.1366567E-03
   maximum displ.:     0.1687338 α      in ANC's #15, #5, #4, ...

........................................................................
.............................. CYCLE   52 ..............................
........................................................................
   1   -447.9009809 -0.447901E+03  0.301E-02    1.46       0.0  T
   2   -447.9009819 -0.951274E-06  0.172E-02    1.46       1.0  T
   3   -447.9009765  0.533964E-05  0.526E-03    1.46       1.3  T
   4   -447.9009824 -0.582110E-05  0.175E-03    1.46       3.8  T
   5   -447.9009825 -0.188796E-06  0.898E-04    1.46       7.5  T
   6   -447.9009827 -0.121691E-06  0.459E-04    1.46      14.6  T
     SCC iter.                  ...        0 min,  0.420 sec
     gradient                   ...        0 min,  0.190 sec
 * total energy  :  -442.5657147 Eh     change       -0.1139977E-03 Eh
   gradient norm :     0.0028885 Eh/α   predicted    -0.8919514E-04 ( -21.76%)
   displ. norm   :     0.5887266 α      lambda       -0.1403285E-03
   maximum displ.:     0.1749707 α      in ANC's #15, #5, #4, ...

........................................................................
.............................. CYCLE   53 ..............................
........................................................................
   1   -447.9000954 -0.447900E+03  0.314E-02    1.46       0.0  T
   2   -447.9000965 -0.114559E-05  0.179E-02    1.46       1.0  T
   3   -447.9000909  0.557144E-05  0.546E-03    1.46       1.2  T
   4   -447.9000970 -0.604326E-05  0.191E-03    1.46       3.5  T
   5   -447.9000972 -0.255840E-06  0.994E-04    1.46       6.7  T
   6   -447.9000974 -0.141858E-06  0.516E-04    1.46      13.0  T
     SCC iter.                  ...        0 min,  0.414 sec
     gradient                   ...        0 min,  0.191 sec
 * total energy  :  -442.5658290 Eh     change       -0.1143673E-03 Eh
   gradient norm :     0.0023910 Eh/α   predicted    -0.9448878E-04 ( -17.38%)
   displ. norm   :     0.5631664 α      lambda       -0.1270544E-03
   maximum displ.:     0.1637816 α      in ANC's #5, #15, #2, ...

........................................................................
.............................. CYCLE   54 ..............................
........................................................................
   1   -447.8994841 -0.447899E+03  0.298E-02    1.47       0.0  T
   2   -447.8994851 -0.102952E-05  0.169E-02    1.47       1.0  T
   3   -447.8994805  0.465954E-05  0.504E-03    1.47       1.3  T
   4   -447.8994855 -0.502285E-05  0.188E-03    1.47       3.6  T
   5   -447.8994858 -0.264852E-06  0.985E-04    1.47       6.8  T
   6   -447.8994859 -0.134843E-06  0.527E-04    1.47      12.7  T
     SCC iter.                  ...        0 min,  0.416 sec
     gradient                   ...        0 min,  0.191 sec
 * total energy  :  -442.5659327 Eh     change       -0.1036205E-03 Eh
   gradient norm :     0.0025596 Eh/α   predicted    -0.8368014E-04 ( -19.24%)
   displ. norm   :     0.5600818 α      lambda       -0.1217335E-03
   maximum displ.:     0.1631747 α      in ANC's #5, #15, #2, ...

........................................................................
.............................. CYCLE   55 ..............................
........................................................................
   1   -447.8992148 -0.447899E+03  0.297E-02    1.47       0.0  T
   2   -447.8992157 -0.931386E-06  0.169E-02    1.47       1.0  T
   3   -447.8992118  0.394089E-05  0.460E-03    1.47       1.5  T
   4   -447.8992160 -0.420013E-05  0.188E-03    1.47       3.6  T
   5   -447.8992163 -0.277978E-06  0.954E-04    1.47       7.0  T
   6   -447.8992164 -0.134809E-06  0.499E-04    1.47      13.5  T
     SCC iter.                  ...        0 min,  0.419 sec
     gradient                   ...        0 min,  0.191 sec
 * total energy  :  -442.5660339 Eh     change       -0.1012810E-03 Eh
   gradient norm :     0.0029703 Eh/α   predicted    -0.7998581E-04 ( -21.03%)
   displ. norm   :     0.5648332 α      lambda       -0.1281241E-03
   maximum displ.:     0.1639062 α      in ANC's #2, #5, #8, ...

........................................................................
.............................. CYCLE   56 ..............................
........................................................................
   1   -447.8996911 -0.447900E+03  0.308E-02    1.47       0.0  T
   2   -447.8996921 -0.103197E-05  0.174E-02    1.47       1.0  T
   3   -447.8996879  0.415250E-05  0.472E-03    1.47       1.4  T
   4   -447.8996924 -0.443148E-05  0.195E-03    1.47       3.4  T
   5   -447.8996926 -0.266605E-06  0.103E-03    1.47       6.5  T
   6   -447.8996928 -0.179384E-06  0.474E-04    1.47      14.2  T
   7   -447.8996928 -0.115472E-07  0.381E-04    1.47      17.6  T
     SCC iter.                  ...        0 min,  0.479 sec
     gradient                   ...        0 min,  0.189 sec
 * total energy  :  -442.5661399 Eh     change       -0.1059508E-03 Eh
   gradient norm :     0.0028984 Eh/α   predicted    -0.8450325E-04 ( -20.24%)
   displ. norm   :     0.5847614 α      lambda       -0.1256297E-03
   maximum displ.:     0.1738790 α      in ANC's #2, #4, #5, ...

........................................................................
.............................. CYCLE   57 ..............................
........................................................................
   1   -447.8996649 -0.447900E+03  0.318E-02    1.47       0.0  T
   2   -447.8996661 -0.121218E-05  0.180E-02    1.47       1.0  T
   3   -447.8996612  0.493843E-05  0.529E-03    1.47       1.3  T
   4   -447.8996666 -0.539177E-05  0.200E-03    1.47       3.4  T
   5   -447.8996668 -0.208443E-06  0.108E-03    1.47       6.2  T
   6   -447.8996670 -0.201316E-06  0.470E-04    1.47      14.3  T
   7   -447.8996670 -0.133184E-07  0.375E-04    1.47      17.9  T
     SCC iter.                  ...        0 min,  0.485 sec
     gradient                   ...        0 min,  0.191 sec
 * total energy  :  -442.5662431 Eh     change       -0.1031655E-03 Eh
   gradient norm :     0.0025520 Eh/α   predicted    -0.8429694E-04 ( -18.29%)
   displ. norm   :     0.5062971 α      lambda       -0.1181627E-03
   maximum displ.:     0.1605543 α      in ANC's #2, #4, #8, ...

........................................................................
.............................. CYCLE   58 ..............................
........................................................................
   1   -447.9020295 -0.447902E+03  0.293E-02    1.46       0.0  T
   2   -447.9020307 -0.122615E-05  0.165E-02    1.46       1.0  T
   3   -447.9020257  0.503493E-05  0.539E-03    1.46       1.2  T
   4   -447.9020312 -0.550990E-05  0.199E-03    1.46       3.4  T
   5   -447.9020314 -0.223475E-06  0.108E-03    1.46       6.2  T
   6   -447.9020316 -0.182344E-06  0.502E-04    1.46      13.4  T
   7   -447.9020316 -0.163887E-07  0.397E-04    1.46      16.9  T
     SCC iter.                  ...        0 min,  0.481 sec
     gradient                   ...        0 min,  0.192 sec
 * total energy  :  -442.5663305 Eh     change       -0.8742579E-04 Eh
   gradient norm :     0.0025903 Eh/α   predicted    -0.7422796E-04 ( -15.10%)
   displ. norm   :     0.6238225 α      lambda       -0.1095598E-03
   maximum displ.:     0.1956510 α      in ANC's #4, #2, #5, ...

........................................................................
.............................. CYCLE   59 ..............................
........................................................................
   1   -447.8983083 -0.447898E+03  0.326E-02    1.46       0.0  T
   2   -447.8983098 -0.145864E-05  0.185E-02    1.46       1.0  T
   3   -447.8983051  0.468222E-05  0.523E-03    1.46       1.3  T
   4   -447.8983101 -0.499045E-05  0.215E-03    1.46       3.1  T
   5   -447.8983104 -0.366712E-06  0.105E-03    1.46       6.4  T
   6   -447.8983106 -0.165507E-06  0.509E-04    1.46      13.2  T
   7   -447.8983106 -0.193628E-07  0.388E-04    1.46      17.3  T
     SCC iter.                  ...        0 min,  0.481 sec
     gradient                   ...        0 min,  0.190 sec
 * total energy  :  -442.5663992 Eh     change       -0.6873393E-04 Eh
   gradient norm :     0.0040406 Eh/α   predicted    -0.7610040E-04 (  10.72%)
   displ. norm   :     0.3226999 α      lambda       -0.9634883E-04
   maximum displ.:     0.1131937 α      in ANC's #4, #2, #8, ...

........................................................................
.............................. CYCLE   60 ..............................
........................................................................
   1   -447.9010413 -0.447901E+03  0.193E-02    1.46       0.0  T
   2   -447.9010419 -0.576103E-06  0.108E-02    1.46       1.0  T
   3   -447.9010394  0.246095E-05  0.356E-03    1.46       1.9  T
   4   -447.9010420 -0.261544E-05  0.137E-03    1.46       4.9  T
   5   -447.9010422 -0.172902E-06  0.654E-04    1.46      10.3  T
   6   -447.9010423 -0.553591E-07  0.346E-04    1.46      19.4  T
     SCC iter.                  ...        0 min,  0.415 sec
     gradient                   ...        0 min,  0.190 sec
 * total energy  :  -442.5664722 Eh     change       -0.7301703E-04 Eh
   gradient norm :     0.0031077 Eh/α   predicted    -0.5319159E-04 ( -27.15%)
   displ. norm   :     0.4193847 α      lambda       -0.9466612E-04
   maximum displ.:     0.1513180 α      in ANC's #4, #2, #8, ...

........................................................................
.............................. CYCLE   61 ..............................
........................................................................
   1   -447.9025362 -0.447903E+03  0.224E-02    1.46       0.0  T
   2   -447.9025370 -0.776482E-06  0.126E-02    1.46       1.0  T
[...]
 q only:       25.703      22.680     156.862     -22.633     -35.635    -182.566
  q+dip:       21.981      33.371      69.593     -27.684     -18.140     -91.575
   full:       20.693      24.997      69.801     -22.787     -19.038     -90.494

           -------------------------------------------------
          |                Geometry Summary                 |
           -------------------------------------------------

      molecular mass/u    :     2828.1144161
   center of mass at/Å    :       -0.1684998      -0.4753053      -0.1650971
  moments of inertia/u·Å² :        0.9717191E+05   0.1227701E+06   0.1920819E+06
rotational constants/cm⁻¹ :        0.1734826E-03   0.1373106E-03   0.8776273E-04

 * 234 selected distances

     #   Z          #   Z                                           value/Å
     1   6 C        2   6 C                                       1.3483084
     2   6 C        3   6 C                                       1.4248871
     3   6 C        4   6 C                                       1.4005545
     5   6 C        6  16 S                                       1.7356988
     6  16 S        7   6 C                                       1.7312382
     7   6 C        8   6 C                                       1.4899416
     8   6 C        9   6 C                                       1.5245444
     7   6 C       10   6 C                                       1.3627021
    10   6 C       11  17 Cl                                      1.7155774
     5   6 C       12   6 C                                       1.3652562
    10   6 C       12   6 C                                       1.4217686
    12   6 C       13  17 Cl                                      1.7156093
     4   6 C       14   6 C                                       1.3881763
    14   6 C       15   6 C                                       1.4150099
    15   6 C       16   6 C                                       1.4062118
    17   6 C       18  16 S                                       1.7413780
    18  16 S       19   6 C                                       1.7298361
    19   6 C       20   6 C                                       1.4886296
    20   6 C       21   6 C                                       1.5303192
    19   6 C       22   6 C                                       1.3627099
    17   6 C       23   6 C                                       1.3672767
    22   6 C       23   6 C                                       1.4213984
    23   6 C       24  17 Cl                                      1.7133677
    22   6 C       25  17 Cl                                      1.7161376
     3   6 C       26   6 C                                       1.4175222
    16   6 C       26   6 C                                       1.3906051
     1   6 C       27  16 S                                       1.7290847
    26   6 C       27  16 S                                       1.7404785
    15   6 C       28   6 C                                       1.4159445
    28   6 C       29   6 C                                       1.3653678
    14   6 C       30  16 S                                       1.7368503
    29   6 C       30  16 S                                       1.7449948
    29   6 C       31   6 C                                       1.4271841
    31   6 C       32   6 C                                       1.3630547
    32   6 C       33   6 C                                       1.4135693
    33   6 C       34   6 C                                       1.4051467
    35   6 C       36  16 S                                       1.7373000
    36  16 S       37   6 C                                       1.7300921
    37   6 C       38   6 C                                       1.4887665
    38   6 C       39   6 C                                       1.5307597
    37   6 C       40   6 C                                       1.3635007
    40   6 C       41  17 Cl                                      1.7157440
    35   6 C       42   6 C                                       1.3690230
    40   6 C       42   6 C                                       1.4192183
    42   6 C       43  17 Cl                                      1.7185431
    34   6 C       44   6 C                                       1.3858915
    44   6 C       45   6 C                                       1.4168841
    45   6 C       46   6 C                                       1.4110713
    47   6 C       48  16 S                                       1.7465191
    48  16 S       49   6 C                                       1.7265694
    49   6 C       50   6 C                                       1.4875379
    50   6 C       51   6 C                                       1.5308653
    49   6 C       52   6 C                                       1.3626654
    47   6 C       53   6 C                                       1.3687548
    52   6 C       53   6 C                                       1.4221807
    53   6 C       54  17 Cl                                      1.7101372
    52   6 C       55  17 Cl                                      1.7171043
    33   6 C       56   6 C                                       1.4178778
    46   6 C       56   6 C                                       1.3911296
    31   6 C       57  16 S                                       1.7506622
    56   6 C       57  16 S                                       1.7417963
    45   6 C       58   6 C                                       1.4144351
    58   6 C       59   6 C                                       1.3645136
    44   6 C       60  16 S                                       1.7418951
    59   6 C       60  16 S                                       1.7486679
    59   6 C       61   6 C                                       1.4269798
    61   6 C       62   6 C                                       1.3637078
    62   6 C       63   6 C                                       1.4180599
    63   6 C       64   6 C                                       1.4112118
    65   6 C       66  16 S                                       1.7393191
    66  16 S       67   6 C                                       1.7296833
    67   6 C       68   6 C                                       1.4886001
    68   6 C       69   6 C                                       1.5307587
    67   6 C       70   6 C                                       1.3636022
    70   6 C       71  17 Cl                                      1.7161716
    65   6 C       72   6 C                                       1.3713054
    70   6 C       72   6 C                                       1.4189109
    72   6 C       73  17 Cl                                      1.7163053
    64   6 C       74   6 C                                       1.3908943
    74   6 C       75   6 C                                       1.4143730
    75   6 C       76   6 C                                       1.4076079
    77   6 C       78  16 S                                       1.7390511
    78  16 S       79   6 C                                       1.7317705
    79   6 C       80   6 C                                       1.4884191
    80   6 C       81   6 C                                       1.5298285
    79   6 C       82   6 C                                       1.3629767
    77   6 C       83   6 C                                       1.3688955
    82   6 C       83   6 C                                       1.4204193
    83   6 C       84  17 Cl                                      1.7143518
    82   6 C       85  17 Cl                                      1.7156548
    63   6 C       86   6 C                                       1.4151117
    76   6 C       86   6 C                                       1.3877100
    61   6 C       87  16 S                                       1.7524320
    86   6 C       87  16 S                                       1.7392304
    75   6 C       88   6 C                                       1.4151187
    88   6 C       89   6 C                                       1.3660518
    74   6 C       90  16 S                                       1.7458365
    89   6 C       90  16 S                                       1.7577846
    91   6 C       92   6 C                                       1.4040841
    92   6 C       94   6 C                                       1.3753512
    94   6 C       95   6 C                                       1.4000369
    95   6 C       96   6 C                                       1.4009798
    91   6 C       97   6 C                                       1.4041398
    96   6 C       97   6 C                                       1.3739257
    98   6 C       99   6 C                                       1.3599467
    99   6 C      100   6 C                                       1.4229579
   100   6 C      101   6 C                                       1.4034529
   102   6 C      103  16 S                                       1.7369103
   103  16 S      104   6 C                                       1.7305964
   104   6 C      105   6 C                                       1.4884861
   105   6 C      106   6 C                                       1.5307772
   104   6 C      107   6 C                                       1.3630720
   107   6 C      108  17 Cl                                      1.7170886
   102   6 C      109   6 C                                       1.3663292
   107   6 C      109   6 C                                       1.4210103
   109   6 C      110  17 Cl                                      1.7173859
   101   6 C      111   6 C                                       1.3894624
   111   6 C      112   6 C                                       1.4161368
   112   6 C      113   6 C                                       1.4057576
   114   6 C      115  16 S                                       1.7394783
   115  16 S      116   6 C                                       1.7310970
   116   6 C      117   6 C                                       1.4894831
   117   6 C      118   6 C                                       1.5256991
   116   6 C      119   6 C                                       1.3620831
   114   6 C      120   6 C                                       1.3695092
   119   6 C      120   6 C                                       1.4199308
   120   6 C      121  17 Cl                                      1.7179059
   119   6 C      122  17 Cl                                      1.7136907
   100   6 C      123   6 C                                       1.4177847
   113   6 C      123   6 C                                       1.3892272
    98   6 C      124  16 S                                       1.7617482 (max)
   123   6 C      124  16 S                                       1.7334569
   112   6 C      125   6 C                                       1.4166761
   125   6 C      126   6 C                                       1.3632983
   111   6 C      127  16 S                                       1.7415175
   126   6 C      127  16 S                                       1.7515924
   126   6 C      128   6 C                                       1.4254810
   128   6 C      129   6 C                                       1.3628044
   129   6 C      130   6 C                                       1.4166899
   130   6 C      131   6 C                                       1.4051369
   132   6 C      133  16 S                                       1.7384551
   133  16 S      134   6 C                                       1.7300231
   134   6 C      135   6 C                                       1.4885633
   135   6 C      136   6 C                                       1.5306266
   134   6 C      137   6 C                                       1.3631501
   137   6 C      138  17 Cl                                      1.7161507
   132   6 C      139   6 C                                       1.3685911
   137   6 C      139   6 C                                       1.4202927
   139   6 C      140  17 Cl                                      1.7172736
   131   6 C      141   6 C                                       1.3900846
   141   6 C      142   6 C                                       1.4148464
   142   6 C      143   6 C                                       1.4023163
   144   6 C      145  16 S                                       1.7357924
   145  16 S      146   6 C                                       1.7292269
   146   6 C      147   6 C                                       1.4882594
   147   6 C      148   6 C                                       1.5219917
   146   6 C      149   6 C                                       1.3646362
   144   6 C      150   6 C                                       1.3670730
   149   6 C      150   6 C                                       1.4186996
   150   6 C      151  17 Cl                                      1.7141638
   149   6 C      152  17 Cl                                      1.7170450
   130   6 C      153   6 C                                       1.4157505
   143   6 C      153   6 C                                       1.3886156
   128   6 C      154  16 S                                       1.7519818
   153   6 C      154  16 S                                       1.7403365
   142   6 C      155   6 C                                       1.4255322
   155   6 C      156   6 C                                       1.3482200
   141   6 C      157  16 S                                       1.7414038
   156   6 C      157  16 S                                       1.7300402
     1   6 C      158   1 H                                       1.0725122
     2   6 C      159   1 H                                       1.0744238
     8   6 C      160   1 H                                       1.0920697
     8   6 C      161   1 H                                       1.0955350
     9   6 C      162   1 H                                       1.0873724
     9   6 C      163   1 H                                       1.0881300
     9   6 C      164   1 H                                       1.0868767
    20   6 C      165   1 H                                       1.0915210
    20   6 C      166   1 H                                       1.0915463
    21   6 C      167   1 H                                       1.0874633
    21   6 C      168   1 H                                       1.0866186
    21   6 C      169   1 H                                       1.0871409
    28   6 C      170   1 H                                       1.0732500
    32   6 C      171   1 H                                       1.0731992
    38   6 C      172   1 H                                       1.0919041
    38   6 C      173   1 H                                       1.0909399
    39   6 C      174   1 H                                       1.0864553
    39   6 C      175   1 H                                       1.0873344
    39   6 C      176   1 H                                       1.0871356
    50   6 C      177   1 H                                       1.0909939
    50   6 C      178   1 H                                       1.0913349
    51   6 C      179   1 H                                       1.0865859
    51   6 C      180   1 H                                       1.0871310
    51   6 C      181   1 H                                       1.0880846
    58   6 C      182   1 H                                       1.0741011
    62   6 C      183   1 H                                       1.0753061
    68   6 C      184   1 H                                       1.0910554
    68   6 C      185   1 H                                       1.0916952
    69   6 C      186   1 H                                       1.0870095
    69   6 C      187   1 H                                       1.0866076
    69   6 C      188   1 H                                       1.0873258
    80   6 C      189   1 H                                       1.0911195
    80   6 C      190   1 H                                       1.0917839
    81   6 C      191   1 H                                       1.0869609
    81   6 C      192   1 H                                       1.0865815
    81   6 C      193   1 H                                       1.0872662
    88   6 C      194   1 H                                       1.0744347
    94   6 C      195   1 H                                       1.0785607
    96   6 C      196   1 H                                       1.0793516
    97   6 C      197   1 H                                       1.0792077
    99   6 C      198   1 H                                       1.0743092
   105   6 C      199   1 H                                       1.0912385
   105   6 C      200   1 H                                       1.0914965
   106   6 C      201   1 H                                       1.0865110
   106   6 C      202   1 H                                       1.0871511
   106   6 C      203   1 H                                       1.0873683
   117   6 C      204   1 H                                       1.0943393
   117   6 C      205   1 H                                       1.0926954
   118   6 C      206   1 H                                       1.0874254
   118   6 C      207   1 H                                       1.0874734
   118   6 C      208   1 H                                       1.0870276
   125   6 C      209   1 H                                       1.0751579
   129   6 C      210   1 H                                       1.0747854
   135   6 C      211   1 H                                       1.0914857
   135   6 C      212   1 H                                       1.0912877
   136   6 C      213   1 H                                       1.0870545
   136   6 C      214   1 H                                       1.0874205
   136   6 C      215   1 H                                       1.0865646
   147   6 C      216   1 H                                       1.0945743
   147   6 C      217   1 H                                       1.0921138
   148   6 C      218   1 H                                       1.0865273
   148   6 C      219   1 H                                       1.0875574
   148   6 C      220   1 H                                       1.0877663
   155   6 C      221   1 H                                       1.0744275
   156   6 C      222   1 H                                       1.0724264 (min)

 * 4 distinct bonds (by element types)

   Z      Z             #   av. dist./Å        max./Å        min./Å
   1 H    6 C          65     1.0858479     1.0955350     1.0724264
   6 C    6 C         109     1.4149419     1.5308653     1.3482200
   6 C   16 S          40     1.7392956     1.7617482     1.7265694
   6 C   17 Cl         20     1.7157704     1.7185431     1.7101372


optimized geometry written to: xtbopt.mol


           -------------------------------------------------
          | TOTAL ENERGY             -442.571176074468 Eh   |
          | GRADIENT NORM               0.000608400087 Eh/α |
          | HOMO-LUMO GAP               1.456302314710 eV   |
           -------------------------------------------------

------------------------------------------------------------------------
 * finished run on 2022/03/02 at 16:51:27.190     
------------------------------------------------------------------------
 total:
 * wall-time:     0 d,  0 h,  1 min, 47.648 sec
 *  cpu-time:     0 d,  0 h, 14 min, 16.042 sec
 * ratio c/w:     7.952 speedup
 SCF:
 * wall-time:     0 d,  0 h,  0 min,  1.521 sec
 *  cpu-time:     0 d,  0 h,  0 min, 12.152 sec
 * ratio c/w:     7.990 speedup
 ANC optimizer:
 * wall-time:     0 d,  0 h,  1 min, 45.254 sec
 *  cpu-time:     0 d,  0 h, 14 min,  1.869 sec
 * ratio c/w:     7.998 speedup

