      -----------------------------------------------------------      
     |                   =====================                   |     
     |                           x T B                           |     
     |                   =====================                   |     
     |                         S. Grimme                         |     
     |          Mulliken Center for Theoretical Chemistry        |     
     |                    University of Bonn                     |     
      -----------------------------------------------------------      

   * xtb version 6.4.1 (unknown) compiled by 'oda6@login1.crc.pitt.edu' on 2021-06-25

   xtb is free software: you can redistribute it and/or modify it under
   the terms of the GNU Lesser General Public License as published by
   the Free Software Foundation, either version 3 of the License, or
   (at your option) any later version.
   
   xtb is distributed in the hope that it will be useful,
   but WITHOUT ANY WARRANTY; without even the implied warranty of
   MERCHANTABILITY or FITNESS FOR A PARTICULAR PURPOSE.  See the
   GNU Lesser General Public License for more details.
   
   Cite this work as:
   * C. Bannwarth, E. Caldeweyher, S. Ehlert, A. Hansen, P. Pracht,
     J. Seibert, S. Spicher, S. Grimme, WIREs Comput. Mol. Sci., 2020, 11,
     e01493. DOI: 10.1002/wcms.1493
   
   for GFN2-xTB:
   * C. Bannwarth, S. Ehlert and S. Grimme., J. Chem. Theory Comput., 2019,
     15, 1652-1671. DOI: 10.1021/acs.jctc.8b01176
   for GFN1-xTB:
   * S. Grimme, C. Bannwarth, P. Shushkov, J. Chem. Theory Comput., 2017,
     13, 1989-2009. DOI: 10.1021/acs.jctc.7b00118
   for GFN0-xTB:
   * P. Pracht, E. Caldeweyher, S. Ehlert, S. Grimme, ChemRxiv, 2019, preprint.
     DOI: 10.26434/chemrxiv.8326202.v1
   for GFN-FF:
   * S. Spicher and S. Grimme, Angew. Chem. Int. Ed., 2020, 59, 15665-15673.
     DOI: 10.1002/anie.202004239
   
   for DFT-D4:
   * E. Caldeweyher, C. Bannwarth and S. Grimme, J. Chem. Phys., 2017,
     147, 034112. DOI: 10.1063/1.4993215
   * E. Caldeweyher, S. Ehlert, A. Hansen, H. Neugebauer, S. Spicher,
     C. Bannwarth and S. Grimme, J. Chem. Phys., 2019, 150, 154122.
     DOI: 10.1063/1.5090222
   * E. Caldeweyher, J.-M. Mewes, S. Ehlert and S. Grimme, Phys. Chem. Chem. Phys.
     2020, 22, 8499-8512. DOI: 10.1039/D0CP00502A
   
   for sTDA-xTB:
   * S. Grimme and C. Bannwarth, J. Chem. Phys., 2016, 145, 054103.
     DOI: 10.1063/1.4959605
   
   in the mass-spec context:
   * V. Asgeirsson, C. Bauer and S. Grimme, Chem. Sci., 2017, 8, 4879.
     DOI: 10.1039/c7sc00601b
   * J. Koopman and S. Grimme, ACS Omega 2019, 4, 12, 15120-15133.
     DOI: 10.1021/acsomega.9b02011
   
   for metadynamics refer to:
   * S. Grimme, J. Chem. Theory Comput., 2019, 155, 2847-2862
     DOI: 10.1021/acs.jctc.9b00143
   
   for SPH calculations refer to:
   * S. Spicher and S. Grimme, J. Chem. Theory Comput., 2021, 17, 1701-1714
     DOI: 10.1021/acs.jctc.0c01306
   
   with help from (in alphabetical order)
   P. Atkinson, C. Bannwarth, F. Bohle, G. Brandenburg, E. Caldeweyher
   M. Checinski, S. Dohm, S. Ehlert, S. Ehrlich, I. Gerasimov, J. Koopman
   C. Lavigne, S. Lehtola, F. März, M. Müller, F. Musil, H. Neugebauer
   J. Pisarek, C. Plett, P. Pracht, J. Seibert, P. Shushkov, S. Spicher
   M. Stahn, M. Steiner, T. Strunk, J. Stückrath, T. Rose, and J. Unsleber
   
 * started run on 2022/02/28 at 16:23:37.804     

           -------------------------------------------------
          |                Calculation Setup                |
           -------------------------------------------------

          program call               : /ihome/ghutchison/oda6/xtb/xtb-641/bin/xtb ../../FF_optimized/487_471_111100.mol -opt
          hostname                   : smp-n66
          coordinate file            : ../../FF_optimized/487_471_111100.mol
          omp threads                :                     8
          number of atoms            :                    76
          number of electrons        :                   206
          charge                     :                     0
          spin                       :                   0.0
          first test random number   :      0.84482944654790

   ID    Z sym.   atoms
    1    6 C      1-29, 31-36, 38-42
    2    8 O      30, 37
    3    1 H      43-76
########################################################################
[WARNING] Please study the warnings concerning your input carefully
-1- prog_main_parseArguments: the use of '-opt' is discouraged, please use '--opt' next time
########################################################################

           -------------------------------------------------
          |                 G F N 2 - x T B                 |
           -------------------------------------------------

        Reference                      10.1021/acs.jctc.8b01176
      * Hamiltonian:
        H0-scaling (s, p, d)           1.850000    2.230000    2.230000
        zeta-weighting                 0.500000
      * Dispersion:
        s8                             2.700000
        a1                             0.520000
        a2                             5.000000
        s9                             5.000000
      * Repulsion:
        kExp                           1.500000    1.000000
        rExp                           1.000000
      * Coulomb:
        alpha                          2.000000
        third order                    shell-resolved
        anisotropic                    true
        a3                             3.000000
        a5                             4.000000
        cn-shift                       1.200000
        cn-exp                         4.000000
        max-rad                        5.000000


          ...................................................
          :                      SETUP                      :
          :.................................................:
          :  # basis functions                 202          :
          :  # atomic orbitals                 202          :
          :  # shells                          118          :
          :  # electrons                       206          :
          :  max. iterations                   250          :
          :  Hamiltonian                  GFN2-xTB          :
          :  restarted?                      false          :
          :  GBSA solvation                  false          :
          :  PC potential                    false          :
          :  electronic temp.          300.0000000     K    :
          :  accuracy                    1.0000000          :
          :  -> integral cutoff          0.2500000E+02      :
          :  -> integral neglect         0.1000000E-07      :
          :  -> SCF convergence          0.1000000E-05 Eh   :
          :  -> wf. convergence          0.1000000E-03 e    :
          :  Broyden damping             0.4000000          :
          ...................................................

 iter      E             dE          RMSdq      gap      omega  full diag
   1   -112.7393633 -0.112739E+03  0.405E+00    2.62       0.0  T
   2   -112.8000719 -0.607086E-01  0.247E+00    2.68       1.0  T
   3   -112.7561907  0.438812E-01  0.973E-01    2.65       1.0  T
   4   -112.8104866 -0.542959E-01  0.285E-01    2.67       1.0  T
   5   -112.8137928 -0.330621E-02  0.131E-01    2.67       1.0  T
   6   -112.8148067 -0.101390E-02  0.397E-02    2.67       1.0  T
   7   -112.8148303 -0.236414E-04  0.229E-02    2.68       1.0  T
   8   -112.8148394 -0.907106E-05  0.106E-02    2.68       1.1  T
   9   -112.8148441 -0.470046E-05  0.282E-03    2.68       4.1  T
  10   -112.8148444 -0.250975E-06  0.136E-03    2.68       8.4  T
  11   -112.8148444 -0.761669E-07  0.529E-04    2.68      21.7  T
  12   -112.8148444 -0.346711E-08  0.270E-04    2.68      42.5  T

   *** convergence criteria satisfied after 12 iterations ***

         #    Occupation            Energy/Eh            Energy/eV
      -------------------------------------------------------------
         1        2.0000           -0.7451596             -20.2768
       ...           ...                  ...                  ...
        97        2.0000           -0.3797655             -10.3339
        98        2.0000           -0.3722849             -10.1304
        99        2.0000           -0.3685313             -10.0282
       100        2.0000           -0.3658829              -9.9562
       101        2.0000           -0.3576652              -9.7326
       102        2.0000           -0.3550261              -9.6608
       103        2.0000           -0.3535513              -9.6206 (HOMO)
       104                         -0.2550082              -6.9391 (LUMO)
       105                         -0.2450207              -6.6674
       106                         -0.2446532              -6.6574
       107                         -0.2340162              -6.3679
       108                         -0.2289800              -6.2309
       ...                                ...                  ...
       202                          0.7423016              20.1991
      -------------------------------------------------------------
                  HL-Gap            0.0985432 Eh            2.6815 eV
             Fermi-level           -0.3042798 Eh           -8.2799 eV

 SCC (total)                   0 d,  0 h,  0 min,  0.113 sec
 SCC setup                      ...        0 min,  0.000 sec (  0.332%)
 Dispersion                     ...        0 min,  0.002 sec (  1.580%)
 classical contributions        ...        0 min,  0.000 sec (  0.073%)
 integral evaluation            ...        0 min,  0.006 sec (  5.044%)
 iterations                     ...        0 min,  0.089 sec ( 78.600%)
 molecular gradient             ...        0 min,  0.016 sec ( 13.855%)
 printout                       ...        0 min,  0.001 sec (  0.446%)

         :::::::::::::::::::::::::::::::::::::::::::::::::::::
         ::                     SUMMARY                     ::
         :::::::::::::::::::::::::::::::::::::::::::::::::::::
         :: total energy            -110.832452294949 Eh    ::
         :: gradient norm              0.184589877927 Eh/a0 ::
         :: HOMO-LUMO gap              2.681495845275 eV    ::
         ::.................................................::
         :: SCC energy              -112.814844440549 Eh    ::
         :: -> isotropic ES            0.020138704214 Eh    ::
         :: -> anisotropic ES          0.017119852814 Eh    ::
         :: -> anisotropic XC          0.063675013755 Eh    ::
         :: -> dispersion             -0.103277888853 Eh    ::
         :: repulsion energy           1.976858133196 Eh    ::
         :: add. restraining           0.000000000000 Eh    ::
         :: total charge               0.000000000000 e     ::
         :::::::::::::::::::::::::::::::::::::::::::::::::::::

      ----------------------------------------------------------- 
     |                   =====================                   |
     |                        A N C O P T                        |
     |                   =====================                   |
     |               Approximate Normal Coordinate               |
     |                Rational Function Optimizer                |
      ----------------------------------------------------------- 

          ...................................................
          :                      SETUP                      :
          :.................................................:
          :   optimization level            normal          :
          :   max. optcycles                   228          :
          :   ANC micro-cycles                  20          :
          :   degrees of freedom               222          :
          :.................................................:
          :   RF solver                   davidson          :
          :   write xtbopt.log                true          :
          :   linear?                        false          :
          :   energy convergence         0.5000000E-05 Eh   :
          :   grad. convergence          0.1000000E-02 Eh/α :
          :   maximium RF displ.         1.0000000          :
          :   Hlow (freq-cutoff)         0.1000000E-01      :
          :   Hmax (freq-cutoff)         5.0000000          :
          :   S6 in model hess.         20.0000000          :
          ...................................................

generating ANC from model Hessian ...
Using Lindh-Hessian (1995)
 Shifting diagonal of input Hessian by   9.974898317073761E-003
 Lowest  eigenvalues of input Hessian
    0.000000    0.000000    0.000000    0.000000    0.000000    0.000000
    0.010000    0.010032    0.010159    0.010229    0.010271    0.010440
    0.010510    0.010578    0.010902    0.011248    0.011335    0.011650
 Highest eigenvalues
    2.034181    2.047096    2.063143    2.092570    2.130944    2.147883
 

........................................................................
.............................. CYCLE    1 ..............................
........................................................................
   1   -112.8148444 -0.112815E+03  0.119E-04    2.68       0.0  T
   2   -112.8148444  0.881073E-12  0.103E-04    2.68     111.9  T
   3   -112.8148444 -0.590859E-09  0.417E-05    2.68     275.0  T
     SCC iter.                  ...        0 min,  0.019 sec
     gradient                   ...        0 min,  0.015 sec
 * total energy  :  -110.8324523 Eh     change       -0.2032152E-08 Eh
   gradient norm :     0.1845887 Eh/α   predicted     0.0000000E+00 (-100.00%)
   displ. norm   :     0.3625764 α      lambda       -0.3475801E-01
   maximum displ.:     0.1553386 α      in ANC's #46, #49, #108, ...

........................................................................
.............................. CYCLE    2 ..............................
........................................................................
   1   -112.8376519 -0.112838E+03  0.229E-01    2.55       0.0  T
   2   -112.8379161 -0.264178E-03  0.135E-01    2.53       1.0  T
   3   -112.8376776  0.238501E-03  0.757E-02    2.52       1.0  T
   4   -112.8379625 -0.284953E-03  0.217E-02    2.52       1.0  T
   5   -112.8379871 -0.245895E-04  0.640E-03    2.52       1.8  T
   6   -112.8379895 -0.238735E-05  0.241E-03    2.52       4.8  T
   7   -112.8379897 -0.140474E-06  0.121E-03    2.52       9.5  T
   8   -112.8379897 -0.360123E-07  0.523E-04    2.52      21.9  T
   9   -112.8379897 -0.840680E-08  0.181E-04    2.52      63.2  T
     SCC iter.                  ...        0 min,  0.053 sec
     gradient                   ...        0 min,  0.015 sec
 * total energy  :  -110.8567416 Eh     change       -0.2428927E-01 Eh
   gradient norm :     0.0752651 Eh/α   predicted    -0.1967896E-01 ( -18.98%)
   displ. norm   :     0.3477877 α      lambda       -0.1144907E-01
   maximum displ.:     0.1637585 α      in ANC's #46, #49, #27, ...

........................................................................
.............................. CYCLE    3 ..............................
........................................................................
   1   -112.8489751 -0.112849E+03  0.185E-01    2.41       0.0  T
   2   -112.8491408 -0.165745E-03  0.107E-01    2.39       1.0  T
   3   -112.8490273  0.113533E-03  0.532E-02    2.39       1.0  T
   4   -112.8491622 -0.134927E-03  0.166E-02    2.39       1.0  T
   5   -112.8491759 -0.136989E-04  0.507E-03    2.39       2.3  T
   6   -112.8491775 -0.159981E-05  0.151E-03    2.39       7.6  T
   7   -112.8491776 -0.124931E-07  0.916E-04    2.39      12.5  T
   8   -112.8491776 -0.343536E-07  0.341E-04    2.39      33.6  T
     SCC iter.                  ...        0 min,  0.047 sec
     gradient                   ...        0 min,  0.016 sec
 * total energy  :  -110.8637250 Eh     change       -0.6983432E-02 Eh
   gradient norm :     0.0224236 Eh/α   predicted    -0.6420110E-02 (  -8.07%)
   displ. norm   :     0.2966650 α      lambda       -0.2193079E-02
   maximum displ.:     0.1023070 α      in ANC's #16, #46, #15, ...

........................................................................
.............................. CYCLE    4 ..............................
........................................................................
   1   -112.8470774 -0.112847E+03  0.110E-01    2.35       0.0  T
   2   -112.8470960 -0.186794E-04  0.636E-02    2.35       1.0  T
   3   -112.8470695  0.265851E-04  0.221E-02    2.35       1.0  T
   4   -112.8470989 -0.294178E-04  0.553E-03    2.35       2.1  T
   5   -112.8471005 -0.164765E-05  0.197E-03    2.35       5.8  T
   6   -112.8471008 -0.234834E-06  0.654E-04    2.35      17.5  T
   7   -112.8471008 -0.827214E-09  0.373E-04    2.35      30.8  T
     SCC iter.                  ...        0 min,  0.042 sec
     gradient                   ...        0 min,  0.016 sec
 * total energy  :  -110.8653169 Eh     change       -0.1591907E-02 Eh
   gradient norm :     0.0130157 Eh/α   predicted    -0.1193059E-02 ( -25.05%)
   displ. norm   :     0.4046562 α      lambda       -0.1614223E-02
   maximum displ.:     0.1514103 α      in ANC's #16, #8, #20, ...

........................................................................
.............................. CYCLE    5 ..............................
........................................................................
   1   -112.8453123 -0.112845E+03  0.134E-01    2.31       0.0  T
   2   -112.8453224 -0.100801E-04  0.786E-02    2.31       1.0  T
   3   -112.8452788  0.436446E-04  0.258E-02    2.31       1.0  T
   4   -112.8453268 -0.480077E-04  0.412E-03    2.31       2.8  T
   5   -112.8453278 -0.997478E-06  0.170E-03    2.31       6.7  T
   6   -112.8453279 -0.156368E-06  0.697E-04    2.31      16.4  T
   7   -112.8453279 -0.296582E-08  0.403E-04    2.31      28.5  T
     SCC iter.                  ...        0 min,  0.042 sec
     gradient                   ...        0 min,  0.016 sec
 * total energy  :  -110.8664247 Eh     change       -0.1107782E-02 Eh
   gradient norm :     0.0112210 Eh/α   predicted    -0.9392772E-03 ( -15.21%)
   displ. norm   :     0.3935352 α      lambda       -0.9791659E-03
   maximum displ.:     0.1487219 α      in ANC's #8, #16, #20, ...

........................................................................
.............................. CYCLE    6 ..............................
........................................................................
   1   -112.8457915 -0.112846E+03  0.122E-01    2.29       0.0  T
   2   -112.8457947 -0.320355E-05  0.717E-02    2.29       1.0  T
   3   -112.8457558  0.389532E-04  0.236E-02    2.29       1.0  T
   4   -112.8457984 -0.426397E-04  0.236E-03    2.29       4.9  T
   5   -112.8457987 -0.313353E-06  0.110E-03    2.29      10.4  T
   6   -112.8457988 -0.375529E-07  0.586E-04    2.29      19.6  T
   7   -112.8457988 -0.683644E-08  0.202E-04    2.29      56.7  T
     SCC iter.                  ...        0 min,  0.042 sec
     gradient                   ...        0 min,  0.015 sec
 * total energy  :  -110.8671216 Eh     change       -0.6969276E-03 Eh
   gradient norm :     0.0133422 Eh/α   predicted    -0.5654063E-03 ( -18.87%)
   displ. norm   :     0.4092565 α      lambda       -0.8561703E-03
   maximum displ.:     0.1788826 α      in ANC's #8, #16, #6, ...

........................................................................
.............................. CYCLE    7 ..............................
........................................................................
   1   -112.8484639 -0.112848E+03  0.119E-01    2.26       0.0  T
   2   -112.8484672 -0.323745E-05  0.700E-02    2.27       1.0  T
   3   -112.8484307  0.364905E-04  0.227E-02    2.26       1.0  T
   4   -112.8484705 -0.397920E-04  0.226E-03    2.26       5.1  T
   5   -112.8484707 -0.253518E-06  0.114E-03    2.26      10.0  T
   6   -112.8484708 -0.617878E-07  0.511E-04    2.26      22.4  T
   7   -112.8484708 -0.403979E-08  0.210E-04    2.26      54.6  T
     SCC iter.                  ...        0 min,  0.042 sec
     gradient                   ...        0 min,  0.016 sec
 * total energy  :  -110.8677662 Eh     change       -0.6445810E-03 Eh
   gradient norm :     0.0119075 Eh/α   predicted    -0.4997874E-03 ( -22.46%)
   displ. norm   :     0.4134801 α      lambda       -0.7479611E-03
   maximum displ.:     0.2024598 α      in ANC's #8, #6, #16, ...

........................................................................
.............................. CYCLE    8 ..............................
........................................................................
   1   -112.8516600 -0.112852E+03  0.113E-01    2.25       0.0  T
   2   -112.8516644 -0.439393E-05  0.665E-02    2.25       1.0  T
   3   -112.8516346  0.297830E-04  0.206E-02    2.25       1.0  T
   4   -112.8516672 -0.325299E-04  0.258E-03    2.24       4.4  T
   5   -112.8516675 -0.313104E-06  0.132E-03    2.24       8.7  T
   6   -112.8516676 -0.991281E-07  0.494E-04    2.25      23.2  T
   7   -112.8516676 -0.134845E-08  0.263E-04    2.25      43.6  T
     SCC iter.                  ...        0 min,  0.042 sec
     gradient                   ...        0 min,  0.015 sec
 * total energy  :  -110.8683182 Eh     change       -0.5519838E-03 Eh
   gradient norm :     0.0078416 Eh/α   predicted    -0.4379300E-03 ( -20.66%)
   displ. norm   :     0.4152667 α      lambda       -0.5186383E-03
   maximum displ.:     0.2121060 α      in ANC's #8, #6, #5, ...

........................................................................
.............................. CYCLE    9 ..............................
........................................................................
   1   -112.8511731 -0.112851E+03  0.107E-01    2.22       0.0  T
   2   -112.8511755 -0.241411E-05  0.629E-02    2.22       1.0  T
   3   -112.8511502  0.252493E-04  0.188E-02    2.22       1.0  T
   4   -112.8511779 -0.276246E-04  0.192E-03    2.22       6.0  T
   5   -112.8511780 -0.149530E-06  0.109E-03    2.22      10.5  T
   6   -112.8511781 -0.560461E-07  0.469E-04    2.22      24.5  T
   7   -112.8511781 -0.175788E-08  0.224E-04    2.22      51.3  T
     SCC iter.                  ...        0 min,  0.042 sec
     gradient                   ...        0 min,  0.015 sec
 * total energy  :  -110.8687166 Eh     change       -0.3984209E-03 Eh
   gradient norm :     0.0065697 Eh/α   predicted    -0.3040418E-03 ( -23.69%)
   displ. norm   :     0.4203393 α      lambda       -0.4728086E-03
   maximum displ.:     0.2212602 α      in ANC's #8, #6, #5, ...

........................................................................
.............................. CYCLE   10 ..............................
........................................................................
   1   -112.8517421 -0.112852E+03  0.937E-02    2.21       0.0  T
   2   -112.8517438 -0.174278E-05  0.552E-02    2.21       1.0  T
   3   -112.8517196  0.241742E-04  0.184E-02    2.21       1.0  T
   4   -112.8517461 -0.264836E-04  0.172E-03    2.21       6.7  T
   5   -112.8517462 -0.114467E-06  0.923E-04    2.21      12.4  T
   6   -112.8517463 -0.317865E-07  0.475E-04    2.21      24.2  T
     SCC iter.                  ...        0 min,  0.036 sec
     gradient                   ...        0 min,  0.015 sec
 * total energy  :  -110.8690788 Eh     change       -0.3621667E-03 Eh
   gradient norm :     0.0079769 Eh/α   predicted    -0.2781922E-03 ( -23.19%)
   displ. norm   :     0.4938707 α      lambda       -0.4488584E-03
   maximum displ.:     0.2516774 α      in ANC's #8, #6, #7, ...

........................................................................
.............................. CYCLE   11 ..............................
........................................................................
   1   -112.8481546 -0.112848E+03  0.109E-01    2.19       0.0  T
   2   -112.8481564 -0.174704E-05  0.644E-02    2.19       1.0  T
   3   -112.8481178  0.386198E-04  0.231E-02    2.19       1.0  T
   4   -112.8481599 -0.421258E-04  0.203E-03    2.19       5.7  T
   5   -112.8481601 -0.176900E-06  0.106E-03    2.19      10.8  T
   6   -112.8481601 -0.334031E-07  0.539E-04    2.19      21.3  T
   7   -112.8481601 -0.434757E-08  0.203E-04    2.19      56.4  T
     SCC iter.                  ...        0 min,  0.042 sec
     gradient                   ...        0 min,  0.015 sec
 * total energy  :  -110.8694177 Eh     change       -0.3388882E-03 Eh
   gradient norm :     0.0082107 Eh/α   predicted    -0.2791715E-03 ( -17.62%)
   displ. norm   :     0.4855647 α      lambda       -0.4598038E-03
   maximum displ.:     0.2375482 α      in ANC's #8, #6, #2, ...

........................................................................
.............................. CYCLE   12 ..............................
........................................................................
   1   -112.8498435 -0.112850E+03  0.895E-02    2.19       0.0  T
   2   -112.8498451 -0.160158E-05  0.528E-02    2.19       1.0  T
   3   -112.8498090  0.360996E-04  0.231E-02    2.19       1.0  T
   4   -112.8498487 -0.396747E-04  0.207E-03    2.19       5.5  T
   5   -112.8498489 -0.204727E-06  0.992E-04    2.19      11.6  T
   6   -112.8498490 -0.309512E-07  0.499E-04    2.19      23.0  T
     SCC iter.                  ...        0 min,  0.036 sec
     gradient                   ...        0 min,  0.016 sec
 * total energy  :  -110.8697459 Eh     change       -0.3282640E-03 Eh
   gradient norm :     0.0079196 Eh/α   predicted    -0.2841076E-03 ( -13.45%)
   displ. norm   :     0.4867094 α      lambda       -0.3673188E-03
   maximum displ.:     0.2395667 α      in ANC's #8, #6, #2, ...

........................................................................
.............................. CYCLE   13 ..............................
........................................................................
   1   -112.8479413 -0.112848E+03  0.965E-02    2.18       0.0  T
   2   -112.8479427 -0.142073E-05  0.569E-02    2.18       1.0  T
   3   -112.8479132  0.294625E-04  0.204E-02    2.18       1.0  T
   4   -112.8479453 -0.320720E-04  0.197E-03    2.18       5.8  T
   5   -112.8479455 -0.202993E-06  0.918E-04    2.18      12.5  T
   6   -112.8479455 -0.242520E-07  0.462E-04    2.18      24.8  T
     SCC iter.                  ...        0 min,  0.036 sec
     gradient                   ...        0 min,  0.016 sec
 * total energy  :  -110.8700320 Eh     change       -0.2860989E-03 Eh
   gradient norm :     0.0071415 Eh/α   predicted    -0.2271687E-03 ( -20.60%)
   displ. norm   :     0.4626799 α      lambda       -0.4114889E-03
   maximum displ.:     0.2078291 α      in ANC's #8, #2, #9, ...

........................................................................
.............................. CYCLE   14 ..............................
........................................................................
   1   -112.8521061 -0.112852E+03  0.837E-02    2.18       0.0  T
   2   -112.8521076 -0.147123E-05  0.493E-02    2.18       1.0  T
   3   -112.8520900  0.176355E-04  0.164E-02    2.18       1.0  T
   4   -112.8521091 -0.191966E-04  0.190E-03    2.18       6.1  T
   5   -112.8521093 -0.188375E-06  0.891E-04    2.18      12.9  T
   6   -112.8521094 -0.265500E-07  0.428E-04    2.18      26.8  T
     SCC iter.                  ...        0 min,  0.038 sec
     gradient                   ...        0 min,  0.016 sec
 * total energy  :  -110.8703126 Eh     change       -0.2806250E-03 Eh
   gradient norm :     0.0071483 Eh/α   predicted    -0.2497911E-03 ( -10.99%)
   displ. norm   :     0.4899663 α      lambda       -0.3303834E-03
   maximum displ.:     0.2297840 α      in ANC's #8, #2, #9, ...

........................................................................
.............................. CYCLE   15 ..............................
........................................................................
   1   -112.8502095 -0.112850E+03  0.102E-01    2.17       0.0  T
   2   -112.8502107 -0.122720E-05  0.601E-02    2.17       1.0  T
   3   -112.8501935  0.171638E-04  0.158E-02    2.17       1.0  T
   4   -112.8502122 -0.186742E-04  0.181E-03    2.17       6.3  T
   5   -112.8502124 -0.141964E-06  0.917E-04    2.17      12.5  T
   6   -112.8502124 -0.191927E-07  0.460E-04    2.17      24.9  T
     SCC iter.                  ...        0 min,  0.036 sec
     gradient                   ...        0 min,  0.016 sec
 * total energy  :  -110.8705104 Eh     change       -0.1978012E-03 Eh
   gradient norm :     0.0097144 Eh/α   predicted    -0.2048497E-03 (   3.56%)
   displ. norm   :     0.2963240 α      lambda       -0.2469700E-03
   maximum displ.:     0.1291802 α      in ANC's #2, #8, #9, ...

........................................................................
.............................. CYCLE   16 ..............................
........................................................................
   1   -112.8516284 -0.112852E+03  0.565E-02    2.16       0.0  T
   2   -112.8516293 -0.833134E-06  0.333E-02    2.16       1.0  T
   3   -112.8516190  0.102179E-04  0.129E-02    2.16       1.0  T
   4   -112.8516302 -0.111769E-04  0.163E-03    2.16       7.0  T
   5   -112.8516304 -0.135585E-06  0.694E-04    2.16      16.5  T
   6   -112.8516304 -0.183416E-07  0.315E-04    2.16      36.5  T
     SCC iter.                  ...        0 min,  0.036 sec
     gradient                   ...        0 min,  0.015 sec
 * total energy  :  -110.8706995 Eh     change       -0.1890733E-03 Eh
   gradient norm :     0.0068703 Eh/α   predicted    -0.1343322E-03 ( -28.95%)
   displ. norm   :     0.4083492 α      lambda       -0.3125039E-03
   maximum displ.:     0.1925929 α      in ANC's #2, #8, #9, ...

........................................................................
.............................. CYCLE   17 ..............................
........................................................................
   1   -112.8529634 -0.112853E+03  0.820E-02    2.14       0.0  T
   2   -112.8529655 -0.210762E-05  0.483E-02    2.14       1.0  T
   3   -112.8529444  0.210584E-04  0.186E-02    2.15       1.0  T
   4   -112.8529677 -0.233014E-04  0.220E-03    2.15       5.2  T
   5   -112.8529679 -0.240168E-06  0.107E-03    2.15      10.7  T
   6   -112.8529680 -0.441354E-07  0.469E-04    2.15      24.5  T
   7   -112.8529680 -0.323169E-09  0.265E-04    2.15      43.3  T
     SCC iter.                  ...        0 min,  0.042 sec
     gradient                   ...        0 min,  0.015 sec
 * total energy  :  -110.8709111 Eh     change       -0.2115655E-03 Eh
   gradient norm :     0.0066612 Eh/α   predicted    -0.1823112E-03 ( -13.83%)
   displ. norm   :     0.4340248 α      lambda       -0.2629025E-03
   maximum displ.:     0.2110799 α      in ANC's #2, #8, #9, ...

........................................................................
.............................. CYCLE   18 ..............................
........................................................................
   1   -112.8501719 -0.112850E+03  0.855E-02    2.12       0.0  T
   2   -112.8501732 -0.135834E-05  0.504E-02    2.12       1.0  T
   3   -112.8501575  0.157719E-04  0.154E-02    2.12       1.0  T
   4   -112.8501748 -0.173495E-04  0.178E-03    2.12       6.4  T
   5   -112.8501749 -0.133290E-06  0.845E-04    2.12      13.6  T
   6   -112.8501750 -0.162228E-07  0.486E-04    2.12      23.6  T
     SCC iter.                  ...        0 min,  0.036 sec
     gradient                   ...        0 min,  0.016 sec
 * total energy  :  -110.8710724 Eh     change       -0.1613041E-03 Eh
   gradient norm :     0.0081035 Eh/α   predicted    -0.1562145E-03 (  -3.16%)
   displ. norm   :     0.3083690 α      lambda       -0.1960200E-03
   maximum displ.:     0.1676729 α      in ANC's #2, #8, #9, ...

........................................................................
.............................. CYCLE   19 ..............................
........................................................................
   1   -112.8513870 -0.112851E+03  0.615E-02    2.11       0.0  T
   2   -112.8513878 -0.775375E-06  0.363E-02    2.11       1.0  T
   3   -112.8513790  0.880508E-05  0.116E-02    2.11       1.0  T
   4   -112.8513888 -0.977231E-05  0.127E-03    2.11       9.0  T
   5   -112.8513888 -0.456942E-07  0.738E-04    2.11      15.5  T
   6   -112.8513888 -0.148029E-07  0.368E-04    2.11      31.2  T
     SCC iter.                  ...        0 min,  0.036 sec
     gradient                   ...        0 min,  0.015 sec
 * total energy  :  -110.8711923 Eh     change       -0.1198807E-03 Eh
   gradient norm :     0.0074786 Eh/α   predicted    -0.1073316E-03 ( -10.47%)
   displ. norm   :     0.3801792 α      lambda       -0.2209962E-03
   maximum displ.:     0.2047511 α      in ANC's #2, #8, #9, ...

........................................................................
.............................. CYCLE   20 ..............................
........................................................................
   1   -112.8496426 -0.112850E+03  0.758E-02    2.10       0.0  T
   2   -112.8496440 -0.139699E-05  0.448E-02    2.10       1.0  T
   3   -112.8496285  0.155338E-04  0.151E-02    2.10       1.0  T
   4   -112.8496457 -0.172035E-04  0.144E-03    2.10       8.0  T
   5   -112.8496458 -0.713532E-07  0.821E-04    2.10      14.0  T
   6   -112.8496458 -0.243645E-07  0.415E-04    2.10      27.6  T
     SCC iter.                  ...        0 min,  0.035 sec
     gradient                   ...        0 min,  0.015 sec
 * total energy  :  -110.8713270 Eh     change       -0.1347352E-03 Eh
   gradient norm :     0.0060923 Eh/α   predicted    -0.1264730E-03 (  -6.13%)
   displ. norm   :     0.2215814 α      lambda       -0.1719239E-03
   maximum displ.:     0.1318658 α      in ANC's #2, #10, #11, ...
 * RMSD in coord.:     0.7097634 α      energy gain  -0.3887471E-01 Eh

generating ANC from model Hessian ...
Using Lindh-Hessian (1995)
 Shifting diagonal of input Hessian by   9.982262638143039E-003
 Lowest  eigenvalues of input Hessian
    0.000000    0.000000    0.000000    0.000000    0.000000    0.000000
    0.010000    0.010043    0.010169    0.010246    0.010299    0.010463
    0.010653    0.010723    0.011053    0.011319    0.011454    0.011866
 Highest eigenvalues
    2.063240    2.086398    2.087212    2.122243    2.126424    2.133184
 

........................................................................
.............................. CYCLE   21 ..............................
........................................................................
   1   -112.8538158 -0.112854E+03  0.447E-02    2.10       0.0  T
   2   -112.8538171 -0.130537E-05  0.265E-02    2.10       1.0  T
   3   -112.8538048  0.123059E-04  0.144E-02    2.10       1.0  T
   4   -112.8538186 -0.138197E-04  0.205E-03    2.10       5.6  T
   5   -112.8538189 -0.251755E-06  0.812E-04    2.10      14.1  T
   6   -112.8538189 -0.345224E-07  0.296E-04    2.10      38.7  T
     SCC iter.                  ...        0 min,  0.037 sec
     gradient                   ...        0 min,  0.016 sec
 * total energy  :  -110.8714368 Eh     change       -0.1097702E-03 Eh
   gradient norm :     0.0053786 Eh/α   predicted     0.0000000E+00 (-100.00%)
   displ. norm   :     0.0517155 α      lambda       -0.7339504E-04
   maximum displ.:     0.0285501 α      in ANC's #10, #2, #20, ...

........................................................................
.............................. CYCLE   22 ..............................
........................................................................
   1   -112.8526106 -0.112853E+03  0.132E-02    2.10       0.0  T
   2   -112.8526107 -0.140241E-06  0.795E-03    2.10       1.4  T
   3   -112.8526096  0.116423E-05  0.439E-03    2.10       2.6  T
   4   -112.8526109 -0.131594E-05  0.519E-04    2.10      22.1  T
   5   -112.8526109 -0.110075E-07  0.239E-04    2.10      48.0  T
   6   -112.8526109 -0.254140E-08  0.119E-04    2.10      96.6  T
     SCC iter.                  ...        0 min,  0.036 sec
     gradient                   ...        0 min,  0.015 sec
 * total energy  :  -110.8714973 Eh     change       -0.6050146E-04 Eh
   gradient norm :     0.0024703 Eh/α   predicted    -0.3810350E-04 ( -37.02%)
   displ. norm   :     0.1352957 α      lambda       -0.1064621E-03
   maximum displ.:     0.0786567 α      in ANC's #10, #2, #16, ...

........................................................................
.............................. CYCLE   23 ..............................
........................................................................
   1   -112.8512648 -0.112851E+03  0.293E-02    2.10       0.0  T
   2   -112.8512653 -0.468642E-06  0.173E-02    2.10       1.0  T
   3   -112.8512616  0.368829E-05  0.768E-03    2.11       1.5  T
   4   -112.8512657 -0.410220E-05  0.959E-04    2.10      12.0  T
   5   -112.8512657 -0.439822E-07  0.442E-04    2.10      25.9  T
   6   -112.8512657 -0.914048E-08  0.202E-04    2.10      56.9  T
     SCC iter.                  ...        0 min,  0.036 sec
     gradient                   ...        0 min,  0.015 sec
 * total energy  :  -110.8715686 Eh     change       -0.7136502E-04 Eh
   gradient norm :     0.0027696 Eh/α   predicted    -0.5420625E-04 ( -24.04%)
   displ. norm   :     0.1203360 α      lambda       -0.5150882E-04
   maximum displ.:     0.0690734 α      in ANC's #2, #10, #16, ...

........................................................................
.............................. CYCLE   24 ..............................
........................................................................
   1   -112.8512350 -0.112851E+03  0.237E-02    2.11       0.0  T
   2   -112.8512352 -0.150781E-06  0.140E-02    2.11       1.0  T
   3   -112.8512327  0.244770E-05  0.617E-03    2.11       1.9  T
   4   -112.8512354 -0.266769E-05  0.785E-04    2.11      14.6  T
   5   -112.8512354 -0.377319E-07  0.278E-04    2.11      41.2  T
   6   -112.8512354 -0.296180E-08  0.130E-04    2.11      87.9  T
     SCC iter.                  ...        0 min,  0.036 sec
     gradient                   ...        0 min,  0.016 sec
 * total energy  :  -110.8716121 Eh     change       -0.4349674E-04 Eh
   gradient norm :     0.0036726 Eh/α   predicted    -0.2612746E-04 ( -39.93%)
   displ. norm   :     0.1942710 α      lambda       -0.8188907E-04
   maximum displ.:     0.1120191 α      in ANC's #2, #10, #4, ...

........................................................................
.............................. CYCLE   25 ..............................
........................................................................
   1   -112.8517910 -0.112852E+03  0.377E-02    2.11       0.0  T
   2   -112.8517913 -0.259963E-06  0.223E-02    2.11       1.0  T
   3   -112.8517847  0.663449E-05  0.100E-02    2.11       1.1  T
   4   -112.8517919 -0.719537E-05  0.117E-03    2.11       9.8  T
   5   -112.8517920 -0.856621E-07  0.388E-04    2.11      29.6  T
   6   -112.8517920 -0.370540E-08  0.202E-04    2.11      56.9  T
     SCC iter.                  ...        0 min,  0.036 sec
     gradient                   ...        0 min,  0.015 sec
 * total energy  :  -110.8716824 Eh     change       -0.7028276E-04 Eh
   gradient norm :     0.0033559 Eh/α   predicted    -0.4249088E-04 ( -39.54%)
   displ. norm   :     0.3036303 α      lambda       -0.1149001E-03
   maximum displ.:     0.1775908 α      in ANC's #2, #10, #4, ...

........................................................................
.............................. CYCLE   26 ..............................
........................................................................
   1   -112.8522897 -0.112852E+03  0.583E-02    2.11       0.0  T
   2   -112.8522903 -0.542158E-06  0.345E-02    2.11       1.0  T
   3   -112.8522737  0.165777E-04  0.158E-02    2.11       1.0  T
   4   -112.8522917 -0.179394E-04  0.174E-03    2.11       6.6  T
   5   -112.8522918 -0.184987E-06  0.617E-04    2.11      18.6  T
   6   -112.8522918 -0.997176E-08  0.313E-04    2.11      36.7  T
     SCC iter.                  ...        0 min,  0.037 sec
     gradient                   ...        0 min,  0.015 sec
 * total energy  :  -110.8717760 Eh     change       -0.9362797E-04 Eh
   gradient norm :     0.0026892 Eh/α   predicted    -0.6275280E-04 ( -32.98%)
   displ. norm   :     0.3376078 α      lambda       -0.1052422E-03
   maximum displ.:     0.2025685 α      in ANC's #2, #10, #4, ...

........................................................................
.............................. CYCLE   27 ..............................
........................................................................
   1   -112.8523616 -0.112852E+03  0.638E-02    2.11       0.0  T
   2   -112.8523622 -0.591856E-06  0.377E-02    2.11       1.0  T
   3   -112.8523432  0.189603E-04  0.168E-02    2.11       1.0  T
   4   -112.8523637 -0.204817E-04  0.182E-03    2.11       6.3  T
   5   -112.8523639 -0.194370E-06  0.686E-04    2.11      16.7  T
   6   -112.8523639 -0.132015E-07  0.342E-04    2.11      33.6  T
     SCC iter.                  ...        0 min,  0.037 sec
     gradient                   ...        0 min,  0.015 sec
 * total energy  :  -110.8718612 Eh     change       -0.8511937E-04 Eh
   gradient norm :     0.0028503 Eh/α   predicted    -0.5861928E-04 ( -31.13%)
   displ. norm   :     0.2984050 α      lambda       -0.8844413E-04
   maximum displ.:     0.1851727 α      in ANC's #2, #10, #4, ...

........................................................................
.............................. CYCLE   28 ..............................
........................................................................
   1   -112.8526200 -0.112853E+03  0.552E-02    2.11       0.0  T
   2   -112.8526204 -0.413366E-06  0.326E-02    2.11       1.0  T
   3   -112.8526074  0.130298E-04  0.139E-02    2.11       1.0  T
   4   -112.8526215 -0.140829E-04  0.152E-03    2.11       7.5  T
   5   -112.8526216 -0.133057E-06  0.586E-04    2.11      19.6  T
   6   -112.8526216 -0.856021E-08  0.295E-04    2.11      38.8  T
     SCC iter.                  ...        0 min,  0.036 sec
     gradient                   ...        0 min,  0.015 sec
 * total energy  :  -110.8719363 Eh     change       -0.7517814E-04 Eh
   gradient norm :     0.0029132 Eh/α   predicted    -0.4816151E-04 ( -35.94%)
   displ. norm   :     0.2960797 α      lambda       -0.9422176E-04
   maximum displ.:     0.1887518 α      in ANC's #2, #10, #4, ...

........................................................................
.............................. CYCLE   29 ..............................
........................................................................
   1   -112.8529986 -0.112853E+03  0.541E-02    2.11       0.0  T
   2   -112.8529990 -0.420913E-06  0.319E-02    2.11       1.0  T
   3   -112.8529879  0.111170E-04  0.129E-02    2.11       1.0  T
   4   -112.8530000 -0.120676E-04  0.148E-03    2.11       7.7  T
   5   -112.8530001 -0.123578E-06  0.574E-04    2.11      20.0  T
   6   -112.8530001 -0.600430E-08  0.291E-04    2.11      39.5  T
     SCC iter.                  ...        0 min,  0.036 sec
     gradient                   ...        0 min,  0.015 sec
 * total energy  :  -110.8720173 Eh     change       -0.8099747E-04 Eh
   gradient norm :     0.0025569 Eh/α   predicted    -0.5124141E-04 ( -36.74%)
   displ. norm   :     0.3307937 α      lambda       -0.1031457E-03
   maximum displ.:     0.2134269 α      in ANC's #2, #4, #10, ...

........................................................................
.............................. CYCLE   30 ..............................
........................................................................
   1   -112.8528393 -0.112853E+03  0.595E-02    2.10       0.0  T
   2   -112.8528399 -0.552894E-06  0.351E-02    2.10       1.0  T
   3   -112.8528272  0.126314E-04  0.138E-02    2.10       1.0  T
   4   -112.8528410 -0.137728E-04  0.156E-03    2.10       7.3  T
   5   -112.8528411 -0.133418E-06  0.638E-04    2.10      18.0  T
   6   -112.8528411 -0.730984E-08  0.321E-04    2.10      35.7  T
     SCC iter.                  ...        0 min,  0.032 sec
     gradient                   ...        0 min,  0.015 sec
 * total energy  :  -110.8721052 Eh     change       -0.8789524E-04 Eh
   gradient norm :     0.0022538 Eh/α   predicted    -0.5721805E-04 ( -34.90%)
   displ. norm   :     0.3470544 α      lambda       -0.1015815E-03
   maximum displ.:     0.2258058 α      in ANC's #2, #4, #10, ...

........................................................................
.............................. CYCLE   31 ..............................
........................................................................
   1   -112.8523951 -0.112852E+03  0.606E-02    2.10       0.0  T
   2   -112.8523957 -0.634946E-06  0.358E-02    2.10       1.0  T
   3   -112.8523831  0.126650E-04  0.138E-02    2.10       1.0  T
   4   -112.8523969 -0.138494E-04  0.152E-03    2.10       7.5  T
   5   -112.8523970 -0.119437E-06  0.684E-04    2.10      16.8  T
   6   -112.8523970 -0.110022E-07  0.333E-04    2.10      34.4  T
     SCC iter.                  ...        0 min,  0.032 sec
     gradient                   ...        0 min,  0.015 sec
 * total energy  :  -110.8721913 Eh     change       -0.8606712E-04 Eh
   gradient norm :     0.0022930 Eh/α   predicted    -0.5691347E-04 ( -33.87%)
   displ. norm   :     0.3266962 α      lambda       -0.9210914E-04
   maximum displ.:     0.2149252 α      in ANC's #2, #4, #7, ...

........................................................................
.............................. CYCLE   32 ..............................
........................................................................
   1   -112.8523717 -0.112852E+03  0.537E-02    2.09       0.0  T
   2   -112.8523723 -0.533914E-06  0.317E-02    2.09       1.0  T
   3   -112.8523629  0.935286E-05  0.119E-02    2.09       1.0  T
   4   -112.8523732 -0.102516E-04  0.123E-03    2.09       9.3  T
   5   -112.8523732 -0.719026E-07  0.629E-04    2.09      18.2  T
   6   -112.8523733 -0.119069E-07  0.299E-04    2.09      38.4  T
     SCC iter.                  ...        0 min,  0.034 sec
     gradient                   ...        0 min,  0.015 sec
 * total energy  :  -110.8722706 Eh     change       -0.7926835E-04 Eh
   gradient norm :     0.0023359 Eh/α   predicted    -0.5097218E-04 ( -35.70%)
   displ. norm   :     0.3222288 α      lambda       -0.8837349E-04
   maximum displ.:     0.2137406 α      in ANC's #2, #4, #7, ...

........................................................................
.............................. CYCLE   33 ..............................
........................................................................
   1   -112.8523090 -0.112852E+03  0.506E-02    2.09       0.0  T
   2   -112.8523095 -0.462119E-06  0.299E-02    2.09       1.0  T
   3   -112.8523019  0.762298E-05  0.107E-02    2.09       1.1  T
   4   -112.8523102 -0.835458E-05  0.107E-03    2.09      10.7  T
   5   -112.8523103 -0.500823E-07  0.588E-04    2.09      19.5  T
   6   -112.8523103 -0.115023E-07  0.273E-04    2.09      42.1  T
     SCC iter.                  ...        0 min,  0.036 sec
     gradient                   ...        0 min,  0.015 sec
 * total energy  :  -110.8723481 Eh     change       -0.7749081E-04 Eh
   gradient norm :     0.0021829 Eh/α   predicted    -0.4877648E-04 ( -37.06%)
   displ. norm   :     0.3320605 α      lambda       -0.9084718E-04
   maximum displ.:     0.2221828 α      in ANC's #2, #4, #7, ...

........................................................................
.............................. CYCLE   34 ..............................
........................................................................
   1   -112.8524467 -0.112852E+03  0.491E-02    2.09       0.0  T
   2   -112.8524471 -0.420104E-06  0.290E-02    2.09       1.0  T
   3   -112.8524407  0.637751E-05  0.976E-03    2.08       1.2  T
   4   -112.8524477 -0.699124E-05  0.947E-04    2.09      12.1  T
   5   -112.8524478 -0.354194E-07  0.566E-04    2.09      20.3  T
   6   -112.8524478 -0.114157E-07  0.257E-04    2.09      44.7  T
     SCC iter.                  ...        0 min,  0.037 sec
     gradient                   ...        0 min,  0.015 sec
 * total energy  :  -110.8724280 Eh     change       -0.7997808E-04 Eh
   gradient norm :     0.0018478 Eh/α   predicted    -0.5043429E-04 ( -36.94%)
   displ. norm   :     0.5392587 α      lambda       -0.9606012E-04
   maximum displ.:     0.3627760 α      in ANC's #2, #4, #11, ...

........................................................................
.............................. CYCLE   35 ..............................
........................................................................
   1   -112.8519869 -0.112852E+03  0.775E-02    2.08       0.0  T
   2   -112.8519878 -0.924859E-06  0.457E-02    2.08       1.0  T
   3   -112.8519744  0.134171E-04  0.141E-02    2.08       1.0  T
   4   -112.8519891 -0.146795E-04  0.141E-03    2.08       8.1  T
   5   -112.8519892 -0.711583E-07  0.868E-04    2.08      13.2  T
   6   -112.8519892 -0.275654E-07  0.389E-04    2.08      29.5  T
     SCC iter.                  ...        0 min,  0.037 sec
     gradient                   ...        0 min,  0.015 sec
 * total energy  :  -110.8725470 Eh     change       -0.1189327E-03 Eh
   gradient norm :     0.0023027 Eh/α   predicted    -0.5423817E-04 ( -54.40%)
   displ. norm   :     0.3249111 α      lambda       -0.8651955E-04
   maximum displ.:     0.2210931 α      in ANC's #2, #4, #3, ...

........................................................................
.............................. CYCLE   36 ..............................
........................................................................
   1   -112.8527364 -0.112853E+03  0.428E-02    2.08       0.0  T
   2   -112.8527367 -0.256509E-06  0.252E-02    2.08       1.0  T
   3   -112.8527333  0.339776E-05  0.697E-03    2.08       1.6  T
   4   -112.8527370 -0.371384E-05  0.738E-04    2.08      15.5  T
   5   -112.8527370 -0.153429E-07  0.492E-04    2.08      23.3  T
   6   -112.8527370 -0.907443E-08  0.214E-04    2.08      53.5  T
     SCC iter.                  ...        0 min,  0.037 sec
     gradient                   ...        0 min,  0.015 sec
 * total energy  :  -110.8726244 Eh     change       -0.7745687E-04 Eh
   gradient norm :     0.0024233 Eh/α   predicted    -0.4782827E-04 ( -38.25%)
   displ. norm   :     0.4533323 α      lambda       -0.1265506E-03
   maximum displ.:     0.3067605 α      in ANC's #2, #4, #3, ...

........................................................................
.............................. CYCLE   37 ..............................
........................................................................
   1   -112.8520089 -0.112852E+03  0.639E-02    2.08       0.0  T
   2   -112.8520093 -0.458118E-06  0.377E-02    2.08       1.0  T
   3   -112.8520021  0.722750E-05  0.102E-02    2.08       1.1  T
   4   -112.8520100 -0.785779E-05  0.111E-03    2.08      10.4  T
   5   -112.8520100 -0.418539E-07  0.648E-04    2.08      17.7  T
   6   -112.8520100 -0.129935E-07  0.310E-04    2.08      37.1  T
     SCC iter.                  ...        0 min,  0.037 sec
     gradient                   ...        0 min,  0.015 sec
 * total energy  :  -110.8727348 Eh     change       -0.1104112E-03 Eh
   gradient norm :     0.0029595 Eh/α   predicted    -0.7627944E-04 ( -30.91%)
   displ. norm   :     0.5285827 α      lambda       -0.1477599E-03
   maximum displ.:     0.3592354 α      in ANC's #2, #4, #3, ...

........................................................................
.............................. CYCLE   38 ..............................
........................................................................
   1   -112.8520258 -0.112852E+03  0.695E-02    2.08       0.0  T
   2   -112.8520263 -0.570645E-06  0.410E-02    2.07       1.0  T
   3   -112.8520169  0.938699E-05  0.115E-02    2.07       1.0  T
   4   -112.8520271 -0.101942E-04  0.131E-03    2.07       8.8  T
   5   -112.8520272 -0.707110E-07  0.721E-04    2.07      15.9  T
   6   -112.8520272 -0.139599E-07  0.350E-04    2.07      32.8  T
     SCC iter.                  ...        0 min,  0.036 sec
     gradient                   ...        0 min,  0.015 sec
 * total energy  :  -110.8728616 Eh     change       -0.1267845E-03 Eh
   gradient norm :     0.0027599 Eh/α   predicted    -0.9452295E-04 ( -25.45%)
   displ. norm   :     0.5686409 α      lambda       -0.1394668E-03
   maximum displ.:     0.3893632 α      in ANC's #2, #4, #3, ...

........................................................................
.............................. CYCLE   39 ..............................
........................................................................
   1   -112.8515589 -0.112852E+03  0.744E-02    2.07       0.0  T
   2   -112.8515596 -0.651125E-06  0.439E-02    2.07       1.0  T
   3   -112.8515478  0.117477E-04  0.129E-02    2.07       1.0  T
   4   -112.8515605 -0.127321E-04  0.154E-03    2.07       7.4  T
   5   -112.8515607 -0.112004E-06  0.746E-04    2.07      15.4  T
   6   -112.8515607 -0.128289E-07  0.381E-04    2.07      30.1  T
     SCC iter.                  ...        0 min,  0.036 sec
     gradient                   ...        0 min,  0.015 sec
 * total energy  :  -110.8729811 Eh     change       -0.1194668E-03 Eh
   gradient norm :     0.0025776 Eh/α   predicted    -0.9228509E-04 ( -22.75%)
   displ. norm   :     0.5567972 α      lambda       -0.1286484E-03
   maximum displ.:     0.3846701 α      in ANC's #2, #4, #3, ...

........................................................................
.............................. CYCLE   40 ..............................
........................................................................
   1   -112.8513891 -0.112851E+03  0.709E-02    2.07       0.0  T
   2   -112.8513898 -0.673504E-06  0.418E-02    2.07       1.0  T
   3   -112.8513769  0.128624E-04  0.135E-02    2.07       1.0  T
   4   -112.8513909 -0.139170E-04  0.162E-03    2.07       7.1  T
   5   -112.8513910 -0.135272E-06  0.758E-04    2.07      15.1  T
   6   -112.8513910 -0.157805E-07  0.374E-04    2.07      30.7  T
     SCC iter.                  ...        0 min,  0.036 sec
     gradient                   ...        0 min,  0.016 sec
 * total energy  :  -110.8730920 Eh     change       -0.1108800E-03 Eh
   gradient norm :     0.0023266 Eh/α   predicted    -0.8426693E-04 ( -24.00%)
   displ. norm   :     0.5711664 α      lambda       -0.1337145E-03
   maximum displ.:     0.3972437 α      in ANC's #2, #4, #3, ...

........................................................................
.............................. CYCLE   41 ..............................
........................................................................
   1   -112.8522583 -0.112852E+03  0.705E-02    2.06       0.0  T
   2   -112.8522590 -0.715720E-06  0.416E-02    2.06       1.0  T
   3   -112.8522454  0.135608E-04  0.137E-02    2.06       1.0  T
   4   -112.8522601 -0.146558E-04  0.176E-03    2.06       6.5  T
   5   -112.8522602 -0.154453E-06  0.770E-04    2.06      14.9  T
   6   -112.8522602 -0.158925E-07  0.400E-04    2.06      28.7  T
     SCC iter.                  ...        0 min,  0.036 sec
     gradient                   ...        0 min,  0.016 sec
 * total energy  :  -110.8732048 Eh     change       -0.1127988E-03 Eh
   gradient norm :     0.0027340 Eh/α   predicted    -0.8866988E-04 ( -21.39%)
   displ. norm   :     0.6225985 α      lambda       -0.1550040E-03
   maximum displ.:     0.4339205 α      in ANC's #2, #4, #3, ...

........................................................................
.............................. CYCLE   42 ..............................
........................................................................
   1   -112.8505961 -0.112851E+03  0.820E-02    2.06       0.0  T
   2   -112.8505970 -0.863243E-06  0.484E-02    2.06       1.0  T
   3   -112.8505787  0.183177E-04  0.160E-02    2.05       1.0  T
   4   -112.8505985 -0.197866E-04  0.186E-03    2.06       6.2  T
   5   -112.8505986 -0.169526E-06  0.946E-04    2.06      12.1  T
   6   -112.8505986 -0.272679E-07  0.436E-04    2.06      26.3  T
     SCC iter.                  ...        0 min,  0.036 sec
     gradient                   ...        0 min,  0.016 sec
 * total energy  :  -110.8733297 Eh     change       -0.1249299E-03 Eh
   gradient norm :     0.0041181 Eh/α   predicted    -0.1075464E-03 ( -13.91%)
   displ. norm   :     0.6054642 α      lambda       -0.1747962E-03
   maximum displ.:     0.4199675 α      in ANC's #2, #3, #4, ...
 * RMSD in coord.:     0.8633050 α      energy gain  -0.2002700E-02 Eh

generating ANC from model Hessian ...
Using Lindh-Hessian (1995)
 Shifting diagonal of input Hessian by   9.927139813117236E-003
 Lowest  eigenvalues of input Hessian
    0.000000    0.000000    0.000000    0.000000    0.000000    0.000000
    0.010000    0.010017    0.010106    0.010222    0.010323    0.010445
    0.010531    0.010764    0.010900    0.011299    0.011408    0.011509
 Highest eigenvalues
    2.066683    2.085166    2.091141    2.121664    2.126041    2.133117
 

........................................................................
.............................. CYCLE   43 ..............................
........................................................................
   1   -112.8520035 -0.112852E+03  0.756E-02    2.05       0.0  T
   2   -112.8520042 -0.758191E-06  0.446E-02    2.05       1.0  T
   3   -112.8519856  0.186023E-04  0.160E-02    2.05       1.0  T
   4   -112.8520057 -0.200438E-04  0.194E-03    2.05       5.9  T
   5   -112.8520058 -0.190044E-06  0.890E-04    2.05      12.9  T
   6   -112.8520059 -0.225437E-07  0.424E-04    2.05      27.0  T
     SCC iter.                  ...        0 min,  0.036 sec
     gradient                   ...        0 min,  0.016 sec
 * total energy  :  -110.8734806 Eh     change       -0.1509369E-03 Eh
   gradient norm :     0.0042888 Eh/α   predicted     0.0000000E+00 (-100.00%)
   displ. norm   :     0.0555632 α      lambda       -0.5980407E-04
   maximum displ.:     0.0210542 α      in ANC's #5, #2, #10, ...

........................................................................
.............................. CYCLE   44 ..............................
........................................................................
   1   -112.8531750 -0.112853E+03  0.163E-02    2.05       0.0  T
   2   -112.8531751 -0.113926E-06  0.966E-03    2.05       1.2  T
   3   -112.8531740  0.113222E-05  0.434E-03    2.05       2.6  T
   4   -112.8531753 -0.125832E-05  0.484E-04    2.05      23.7  T
   5   -112.8531753 -0.121549E-07  0.245E-04    2.05      46.7  T
   6   -112.8531753 -0.279644E-08  0.113E-04    2.05     101.8  T
     SCC iter.                  ...        0 min,  0.035 sec
     gradient                   ...        0 min,  0.016 sec
 * total energy  :  -110.8735364 Eh     change       -0.5571107E-04 Eh
   gradient norm :     0.0021628 Eh/α   predicted    -0.3384020E-04 ( -39.26%)
   displ. norm   :     0.1846244 α      lambda       -0.1428224E-03
   maximum displ.:     0.0726898 α      in ANC's #5, #2, #10, ...

........................................................................
.............................. CYCLE   45 ..............................
........................................................................
   1   -112.8547278 -0.112855E+03  0.483E-02    2.06       0.0  T
   2   -112.8547285 -0.720945E-06  0.286E-02    2.06       1.0  T
   3   -112.8547173  0.111868E-04  0.135E-02    2.06       1.0  T
   4   -112.8547297 -0.123913E-04  0.137E-03    2.06       8.4  T
   5   -112.8547298 -0.104103E-06  0.617E-04    2.06      18.6  T
   6   -112.8547298 -0.167388E-07  0.278E-04    2.06      41.3  T
     SCC iter.                  ...        0 min,  0.036 sec
     gradient                   ...        0 min,  0.015 sec
 * total energy  :  -110.8736350 Eh     change       -0.9868295E-04 Eh
   gradient norm :     0.0030509 Eh/α   predicted    -0.7384757E-04 ( -25.17%)
   displ. norm   :     0.1903315 α      lambda       -0.8625503E-04
   maximum displ.:     0.0774041 α      in ANC's #5, #2, #10, ...

........................................................................
.............................. CYCLE   46 ..............................
........................................................................
   1   -112.8545538 -0.112855E+03  0.454E-02    2.07       0.0  T
   2   -112.8545542 -0.404484E-06  0.268E-02    2.07       1.0  T
   3   -112.8545447  0.951901E-05  0.121E-02    2.07       1.0  T
   4   -112.8545551 -0.104176E-04  0.126E-03    2.07       9.1  T
   5   -112.8545552 -0.915553E-07  0.513E-04    2.07      22.4  T
   6   -112.8545552 -0.954735E-08  0.247E-04    2.07      46.5  T
     SCC iter.                  ...        0 min,  0.040 sec
     gradient                   ...        0 min,  0.016 sec
 * total energy  :  -110.8737039 Eh     change       -0.6882399E-04 Eh
   gradient norm :     0.0042090 Eh/α   predicted    -0.4469027E-04 ( -35.07%)
   displ. norm   :     0.2873786 α      lambda       -0.1170514E-03
   maximum displ.:     0.1185802 α      in ANC's #2, #5, #10, ...

........................................................................
.............................. CYCLE   47 ..............................
........................................................................
   1   -112.8533796 -0.112853E+03  0.645E-02    2.07       0.0  T
   2   -112.8533801 -0.556913E-06  0.381E-02    2.07       1.0  T
   3   -112.8533630  0.171151E-04  0.158E-02    2.07       1.0  T
   4   -112.8533816 -0.185769E-04  0.162E-03    2.07       7.1  T
   5   -112.8533817 -0.147329E-06  0.678E-04    2.07      16.9  T
   6   -112.8533817 -0.141733E-07  0.327E-04    2.07      35.1  T
     SCC iter.                  ...        0 min,  0.036 sec
     gradient                   ...        0 min,  0.015 sec
 * total energy  :  -110.8737974 Eh     change       -0.9355462E-04 Eh
   gradient norm :     0.0041516 Eh/α   predicted    -0.6336159E-04 ( -32.27%)
   displ. norm   :     0.3588945 α      lambda       -0.1339136E-03
   maximum displ.:     0.1532942 α      in ANC's #2, #5, #3, ...

........................................................................
.............................. CYCLE   48 ..............................
........................................................................
   1   -112.8517736 -0.112852E+03  0.758E-02    2.07       0.0  T
   2   -112.8517741 -0.560543E-06  0.447E-02    2.07       1.0  T
   3   -112.8517536  0.204873E-04  0.170E-02    2.07       1.0  T
   4   -112.8517757 -0.220918E-04  0.175E-03    2.07       6.6  T
   5   -112.8517759 -0.167465E-06  0.759E-04    2.07      15.1  T
   6   -112.8517759 -0.155348E-07  0.358E-04    2.07      32.0  T
     SCC iter.                  ...        0 min,  0.037 sec
     gradient                   ...        0 min,  0.015 sec
 * total energy  :  -110.8739040 Eh     change       -0.1065847E-03 Eh
   gradient norm :     0.0038469 Eh/α   predicted    -0.7559162E-04 ( -29.08%)
   displ. norm   :     0.3913311 α      lambda       -0.1476546E-03
   maximum displ.:     0.1726169 α      in ANC's #2, #5, #3, ...

........................................................................
.............................. CYCLE   49 ..............................
........................................................................
   1   -112.8508002 -0.112851E+03  0.774E-02    2.07       0.0  T
   2   -112.8508007 -0.550388E-06  0.456E-02    2.07       1.0  T
   3   -112.8507825  0.181893E-04  0.159E-02    2.07       1.0  T
   4   -112.8508021 -0.195562E-04  0.173E-03    2.07       6.6  T
   5   -112.8508023 -0.160796E-06  0.746E-04    2.07      15.4  T
   6   -112.8508023 -0.138261E-07  0.355E-04    2.07      32.3  T
     SCC iter.                  ...        0 min,  0.037 sec
     gradient                   ...        0 min,  0.016 sec
 * total energy  :  -110.8740236 Eh     change       -0.1195784E-03 Eh
   gradient norm :     0.0042259 Eh/α   predicted    -0.8514010E-04 ( -28.80%)
   displ. norm   :     0.4268681 α      lambda       -0.1828863E-03
   maximum displ.:     0.1935593 α      in ANC's #2, #5, #3, ...

........................................................................
.............................. CYCLE   50 ..............................
........................................................................
   1   -112.8512287 -0.112851E+03  0.790E-02    2.07       0.0  T
   2   -112.8512295 -0.790247E-06  0.465E-02    2.07       1.0  T
   3   -112.8512126  0.169597E-04  0.154E-02    2.07       1.0  T
   4   -112.8512308 -0.182578E-04  0.198E-03    2.07       5.8  T
   5   -112.8512311 -0.218182E-06  0.761E-04    2.07      15.1  T
   6   -112.8512311 -0.146840E-07  0.388E-04    2.07      29.6  T
     SCC iter.                  ...        0 min,  0.037 sec
     gradient                   ...        0 min,  0.015 sec
 * total energy  :  -110.8741717 Eh     change       -0.1481169E-03 Eh
   gradient norm :     0.0048973 Eh/α   predicted    -0.1081067E-03 ( -27.01%)
   displ. norm   :     0.4638884 α      lambda       -0.2091221E-03
   maximum displ.:     0.2143867 α      in ANC's #2, #3, #1, ...

........................................................................
.............................. CYCLE   51 ..............................
........................................................................
   1   -112.8527505 -0.112853E+03  0.822E-02    2.07       0.0  T
   2   -112.8527516 -0.111720E-05  0.483E-02    2.07       1.0  T
   3   -112.8527348  0.167823E-04  0.154E-02    2.07       1.0  T
   4   -112.8527529 -0.181240E-04  0.215E-03    2.07       5.3  T
   5   -112.8527532 -0.253560E-06  0.827E-04    2.07      13.9  T
   6   -112.8527532 -0.201554E-07  0.432E-04    2.07      26.6  T
     SCC iter.                  ...        0 min,  0.036 sec
     gradient                   ...        0 min,  0.015 sec
 * total energy  :  -110.8743417 Eh     change       -0.1699607E-03 Eh
   gradient norm :     0.0052004 Eh/α   predicted    -0.1270724E-03 ( -25.23%)
   displ. norm   :     0.5280770 α      lambda       -0.2240234E-03
   maximum displ.:     0.2475790 α      in ANC's #2, #1, #3, ...

........................................................................
.............................. CYCLE   52 ..............................
........................................................................
   1   -112.8537983 -0.112854E+03  0.916E-02    2.07       0.0  T
   2   -112.8537995 -0.118358E-05  0.539E-02    2.07       1.0  T
   3   -112.8537806  0.188249E-04  0.161E-02    2.07       1.0  T
   4   -112.8538009 -0.202673E-04  0.213E-03    2.07       5.4  T
   5   -112.8538011 -0.234940E-06  0.895E-04    2.07      12.8  T
   6   -112.8538012 -0.221638E-07  0.479E-04    2.07      23.9  T
     SCC iter.                  ...        0 min,  0.036 sec
     gradient                   ...        0 min,  0.016 sec
 * total energy  :  -110.8745336 Eh     change       -0.1918987E-03 Eh
   gradient norm :     0.0052643 Eh/α   predicted    -0.1432482E-03 ( -25.35%)
   displ. norm   :     0.5724666 α      lambda       -0.2711545E-03
   maximum displ.:     0.2709458 α      in ANC's #2, #1, #3, ...

........................................................................
.............................. CYCLE   53 ..............................
........................................................................
   1   -112.8555793 -0.112856E+03  0.967E-02    2.07       0.0  T
   2   -112.8555805 -0.124986E-05  0.570E-02    2.07       1.0  T
   3   -112.8555602  0.203640E-04  0.167E-02    2.07       1.0  T
   4   -112.8555821 -0.219170E-04  0.213E-03    2.07       5.4  T
   5   -112.8555823 -0.233781E-06  0.944E-04    2.07      12.2  T
   6   -112.8555824 -0.273829E-07  0.477E-04    2.07      24.0  T
     SCC iter.                  ...        0 min,  0.037 sec
     gradient                   ...        0 min,  0.016 sec
 * total energy  :  -110.8747713 Eh     change       -0.2377895E-03 Eh
   gradient norm :     0.0048261 Eh/α   predicted    -0.1800123E-03 ( -24.30%)
   displ. norm   :     0.6628234 α      lambda       -0.3224398E-03
   maximum displ.:     0.3156630 α      in ANC's #2, #1, #3, ...

........................................................................
.............................. CYCLE   54 ..............................
........................................................................
   1   -112.8543552 -0.112854E+03  0.115E-01    2.07       0.0  T
   2   -112.8543568 -0.158876E-05  0.677E-02    2.07       1.0  T
   3   -112.8543224  0.343425E-04  0.218E-02    2.08       1.0  T
   4   -112.8543594 -0.370087E-04  0.253E-03    2.08       4.5  T
   5   -112.8543598 -0.339870E-06  0.110E-03    2.08      10.5  T
   6   -112.8543598 -0.355286E-07  0.531E-04    2.08      21.6  T
   7   -112.8543598 -0.388096E-08  0.273E-04    2.08      42.0  T
     SCC iter.                  ...        0 min,  0.042 sec
     gradient                   ...        0 min,  0.016 sec
 * total energy  :  -110.8750564 Eh     change       -0.2850646E-03 Eh
   gradient norm :     0.0051649 Eh/α   predicted    -0.2320514E-03 ( -18.60%)
   displ. norm   :     0.6198210 α      lambda       -0.4079188E-03
   maximum displ.:     0.2966793 α      in ANC's #6, #2, #1, ...

........................................................................
.............................. CYCLE   55 ..............................
........................................................................
   1   -112.8594917 -0.112859E+03  0.100E-01    2.08       0.0  T
   2   -112.8594938 -0.215213E-05  0.592E-02    2.08       1.0  T
   3   -112.8594654  0.284720E-04  0.213E-02    2.08       1.0  T
   4   -112.8594968 -0.314322E-04  0.214E-03    2.08       5.4  T
   5   -112.8594970 -0.242761E-06  0.102E-03    2.08      11.2  T
   6   -112.8594971 -0.396169E-07  0.453E-04    2.08      25.3  T
   7   -112.8594971 -0.246797E-08  0.257E-04    2.08      44.6  T
     SCC iter.                  ...        0 min,  0.042 sec
     gradient                   ...        0 min,  0.015 sec
 * total energy  :  -110.8753242 Eh     change       -0.2677494E-03 Eh
   gradient norm :     0.0064927 Eh/α   predicted    -0.2823163E-03 (   5.44%)
   displ. norm   :     0.6786087 α      lambda       -0.3680501E-03
   maximum displ.:     0.3247855 α      in ANC's #2, #3, #6, ...

........................................................................
.............................. CYCLE   56 ..............................
........................................................................
   1   -112.8519468 -0.112852E+03  0.125E-01    2.07       0.0  T
   2   -112.8519488 -0.196938E-05  0.734E-02    2.08       1.0  T
   3   -112.8518989  0.499359E-04  0.253E-02    2.08       1.0  T
   4   -112.8519527 -0.538152E-04  0.253E-03    2.08       4.5  T
   5   -112.8519530 -0.284876E-06  0.130E-03    2.08       8.8  T
   6   -112.8519530 -0.593185E-07  0.585E-04    2.08      19.6  T
   7   -112.8519530 -0.372626E-08  0.281E-04    2.08      40.8  T
     SCC iter.                  ...        0 min,  0.042 sec
     gradient                   ...        0 min,  0.016 sec
 * total energy  :  -110.8755664 Eh     change       -0.2422168E-03 Eh
   gradient norm :     0.0073837 Eh/α   predicted    -0.2687706E-03 (  10.96%)
   displ. norm   :     0.4057429 α      lambda       -0.2148080E-03
   maximum displ.:     0.1991583 α      in ANC's #6, #2, #3, ...

........................................................................
.............................. CYCLE   57 ..............................
........................................................................
   1   -112.8515611 -0.112852E+03  0.657E-02    2.07       0.0  T
   2   -112.8515616 -0.558398E-06  0.388E-02    2.08       1.0  T
   3   -112.8515518  0.983795E-05  0.110E-02    2.08       1.0  T
   4   -112.8515624 -0.106419E-04  0.119E-03    2.08       9.7  T
   5   -112.8515625 -0.596596E-07  0.627E-04    2.08      18.3  T
   6   -112.8515625 -0.124242E-07  0.314E-04    2.08      36.5  T
     SCC iter.                  ...        0 min,  0.037 sec
     gradient                   ...        0 min,  0.016 sec
 * total energy  :  -110.8757442 Eh     change       -0.1778605E-03 Eh
   gradient norm :     0.0066348 Eh/α   predicted    -0.1250879E-03 ( -29.67%)
   displ. norm   :     0.3974923 α      lambda       -0.3578884E-03
   maximum displ.:     0.2253939 α      in ANC's #6, #2, #11, ...

........................................................................
.............................. CYCLE   58 ..............................
........................................................................
   1   -112.8568327 -0.112857E+03  0.615E-02    2.08       0.0  T
   2   -112.8568336 -0.877113E-06  0.364E-02    2.08       1.0  T
   3   -112.8568221  0.114992E-04  0.128E-02    2.08       1.0  T
   4   -112.8568345 -0.124245E-04  0.197E-03    2.08       5.8  T
   5   -112.8568348 -0.226980E-06  0.708E-04    2.08      16.2  T
   6   -112.8568348 -0.146991E-07  0.388E-04    2.08      29.6  T
     SCC iter.                  ...        0 min,  0.037 sec
     gradient                   ...        0 min,  0.016 sec
 * total energy  :  -110.8759845 Eh     change       -0.2402372E-03 Eh
   gradient norm :     0.0043006 Eh/α   predicted    -0.2072208E-03 ( -13.74%)
   displ. norm   :     0.5082655 α      lambda       -0.2234492E-03
   maximum displ.:     0.2627023 α      in ANC's #6, #2, #11, ...

........................................................................
.............................. CYCLE   59 ..............................
........................................................................
   1   -112.8544727 -0.112854E+03  0.895E-02    2.07       0.0  T
   2   -112.8544739 -0.114565E-05  0.527E-02    2.08       1.0  T
   3   -112.8544563  0.175972E-04  0.153E-02    2.08       1.0  T
   4   -112.8544754 -0.190897E-04  0.183E-03    2.08       6.3  T
   5   -112.8544756 -0.174607E-06  0.827E-04    2.08      13.9  T
   6   -112.8544756 -0.204760E-07  0.421E-04    2.08      27.3  T
     SCC iter.                  ...        0 min,  0.036 sec
     gradient                   ...        0 min,  0.016 sec
 * total energy  :  -110.8761432 Eh     change       -0.1587209E-03 Eh
   gradient norm :     0.0048353 Eh/α   predicted    -0.1405873E-03 ( -11.42%)
   displ. norm   :     0.3832003 α      lambda       -0.1434409E-03
   maximum displ.:     0.2134331 α      in ANC's #6, #2, #11, ...

........................................................................
.............................. CYCLE   60 ..............................
........................................................................
   1   -112.8536904 -0.112854E+03  0.687E-02    2.07       0.0  T
   2   -112.8536913 -0.974489E-06  0.405E-02    2.08       1.0  T
   3   -112.8536783  0.129871E-04  0.132E-02    2.08       1.0  T
   4   -112.8536925 -0.141115E-04  0.172E-03    2.08       6.7  T
   5   -112.8536926 -0.174887E-06  0.694E-04    2.08      16.5  T
   6   -112.8536926 -0.147444E-07  0.359E-04    2.08      31.9  T
     SCC iter.                  ...        0 min,  0.036 sec
     gradient                   ...        0 min,  0.016 sec
 * total energy  :  -110.8762370 Eh     change       -0.9378661E-04 Eh
   gradient norm :     0.0052254 Eh/α   predicted    -0.8225599E-04 ( -12.29%)
   displ. norm   :     0.2771974 α      lambda       -0.1313044E-03
   maximum displ.:     0.1637432 α      in ANC's #6, #2, #11, ...

........................................................................
.............................. CYCLE   61 ..............................
........................................................................
   1   -112.8549234 -0.112855E+03  0.531E-02    2.08       0.0  T
   2   -112.8549241 -0.670925E-06  0.312E-02    2.08       1.0  T
   3   -112.8549165  0.752941E-05  0.107E-02    2.08       1.1  T
   4   -112.8549248 -0.826689E-05  0.147E-03    2.08       7.8  T
   5   -112.8549249 -0.130708E-06  0.592E-04    2.08      19.4  T
   6   -112.8549250 -0.833820E-08  0.295E-04    2.08      38.9  T
     SCC iter.                  ...        0 min,  0.037 sec
     gradient                   ...        0 min,  0.016 sec
 * total energy  :  -110.8762996 Eh     change       -0.6265410E-04 Eh
   gradient norm :     0.0046093 Eh/α   predicted    -0.7069989E-04 (  12.84%)
   displ. norm   :     0.1969580 α      lambda       -0.1091109E-03
   maximum displ.:     0.1093989 α      in ANC's #6, #2, #16, ...

........................................................................
.............................. CYCLE   62 ..............................
........................................................................
   1   -112.8552709 -0.112855E+03  0.450E-02    2.08       0.0  T
   2   -112.8552713 -0.360283E-06  0.265E-02    2.08       1.0  T
   3   -112.8552628  0.847628E-05  0.109E-02    2.08       1.1  T
   4   -112.8552720 -0.921431E-05  0.124E-03    2.08       9.3  T
   5   -112.8552721 -0.924888E-07  0.505E-04    2.08      22.7  T
   6   -112.8552721 -0.776373E-08  0.230E-04    2.08      49.9  T
     SCC iter.                  ...        0 min,  0.037 sec
     gradient                   ...        0 min,  0.016 sec
 * total energy  :  -110.8763698 Eh     change       -0.7014136E-04 Eh
   gradient norm :     0.0040436 Eh/α   predicted    -0.5667351E-04 ( -19.20%)
   displ. norm   :     0.1596636 α      lambda       -0.9146200E-04
   maximum displ.:     0.0732128 α      in ANC's #6, #16, #2, ...

........................................................................
.............................. CYCLE   63 ..............................
........................................................................
   1   -112.8563979 -0.112856E+03  0.390E-02    2.08       0.0  T
   2   -112.8563981 -0.248965E-06  0.231E-02    2.08       1.0  T
   3   -112.8563918  0.634764E-05  0.959E-03    2.08       1.2  T
   4   -112.8563987 -0.692502E-05  0.951E-04    2.08      12.1  T
   5   -112.8563988 -0.509732E-07  0.396E-04    2.08      29.0  T
   6   -112.8563988 -0.456278E-08  0.211E-04    2.08      54.5  T
     SCC iter.                  ...        0 min,  0.035 sec
     gradient                   ...        0 min,  0.016 sec
 * total energy  :  -110.8764382 Eh     change       -0.6837968E-04 Eh
   gradient norm :     0.0044469 Eh/α   predicted    -0.4689771E-04 ( -31.42%)
   displ. norm   :     0.2727485 α      lambda       -0.1302765E-03
   maximum displ.:     0.1218540 α      in ANC's #16, #6, #2, ...

........................................................................
.............................. CYCLE   64 ..............................
........................................................................
   1   -112.8558924 -0.112856E+03  0.643E-02    2.09       0.0  T
   2   -112.8558929 -0.474469E-06  0.380E-02    2.09       1.0  T
   3   -112.8558782  0.146878E-04  0.143E-02    2.09       1.0  T
   4   -112.8558942 -0.159693E-04  0.137E-03    2.09       8.4  T
   5   -112.8558943 -0.102531E-06  0.573E-04    2.09      20.0  T
   6   -112.8558943 -0.657516E-08  0.302E-04    2.09      38.0  T
[...]
           -------------------------------------------------

    * Orbital Energies and Occupations

         #    Occupation            Energy/Eh            Energy/eV
      -------------------------------------------------------------
         1        2.0000           -0.7349162             -19.9981
       ...           ...                  ...                  ...
        91        2.0000           -0.4118816             -11.2079
        92        2.0000           -0.4085624             -11.1175
        93        2.0000           -0.4057804             -11.0418
        94        2.0000           -0.4000823             -10.8868
        95        2.0000           -0.3921200             -10.6701
        96        2.0000           -0.3878321             -10.5534
        97        2.0000           -0.3791459             -10.3171
        98        2.0000           -0.3712890             -10.1033
        99        2.0000           -0.3666709              -9.9776
       100        2.0000           -0.3600786              -9.7982
       101        2.0000           -0.3579503              -9.7403
       102        2.0000           -0.3469956              -9.4422
       103        2.0000           -0.3454659              -9.4006 (HOMO)
       104                         -0.2653129              -7.2195 (LUMO)
       105                         -0.2503443              -6.8122
       106                         -0.2432630              -6.6195
       107                         -0.2417282              -6.5778
       108                         -0.2390350              -6.5045
       109                         -0.2189790              -5.9587
       110                         -0.2096175              -5.7040
       111                         -0.2026846              -5.5153
       112                         -0.1975022              -5.3743
       113                         -0.1792527              -4.8777
       114                         -0.1765942              -4.8054
       ...                                ...                  ...
       202                          0.7256115              19.7449
      -------------------------------------------------------------
                  HL-Gap            0.0801530 Eh            2.1811 eV
             Fermi-level           -0.3053894 Eh           -8.3101 eV

     #   Z          covCN         q      C6AA      α(0)
     1   6 C        3.001    -0.040    28.988     8.832
     2   6 C        2.992    -0.045    29.097     8.848
     3   6 C        3.887    -0.059    21.584     6.605
     4   6 C        3.001    -0.051    29.251     8.872
     5   6 C        3.048     0.008    27.797     8.647
     6   6 C        2.893    -0.037    28.922     8.817
     7   6 C        2.893    -0.031    28.773     8.795
     8   6 C        3.042     0.008    27.809     8.649
     9   6 C        2.993    -0.057    29.408     8.896
    10   6 C        3.878    -0.057    21.541     6.599
    11   6 C        2.996    -0.057    29.411     8.896
    12   6 C        3.043     0.003    27.909     8.665
    13   6 C        2.895    -0.038    28.952     8.822
    14   6 C        2.901    -0.037    28.914     8.817
    15   6 C        3.043     0.002    27.930     8.668
    16   6 C        3.003    -0.050    29.227     8.868
    17   6 C        3.876    -0.057    21.547     6.600
    18   6 C        3.003    -0.051    29.252     8.872
    19   6 C        3.040     0.005    27.873     8.659
    20   6 C        2.895    -0.034    28.838     8.805
    21   6 C        2.895    -0.037    28.916     8.817
    22   6 C        3.039     0.008    27.808     8.649
    23   6 C        3.003    -0.052    29.266     8.874
    24   6 C        3.877    -0.059    21.590     6.606
    25   6 C        3.000    -0.051    29.251     8.872
    26   6 C        3.048     0.007    27.830     8.652
    27   6 C        2.901    -0.031    28.780     8.796
    28   6 C        2.894    -0.047    29.176     8.856
    29   6 C        3.098     0.109    25.475     8.272
    30   8 O        1.728    -0.192    17.199     5.600
    31   6 C        3.046     0.067    26.454     8.436
    32   6 C        3.001    -0.063    29.552     8.917
    33   6 C        3.067    -0.016    28.346     8.730
    34   6 C        2.894    -0.029    28.724     8.787
    35   6 C        2.892    -0.051    29.276     8.871
    36   6 C        3.093     0.113    25.412     8.262
    37   8 O        1.728    -0.185    17.097     5.583
    38   6 C        3.045     0.069    26.407     8.428
    39   6 C        3.002    -0.070    29.729     8.944
    40   6 C        3.069    -0.023    28.512     8.756
    41   6 C        2.888    -0.028    28.686     8.781
    42   6 C        2.839    -0.094    30.341     9.027
    43   1 H        0.926     0.031     2.570     2.507
    44   1 H        0.926     0.022     2.702     2.570
    45   1 H        0.924     0.059     2.210     2.325
    46   1 H        0.924     0.063     2.169     2.303
    47   1 H        0.926     0.023     2.689     2.564
    48   1 H        0.925     0.025     2.657     2.549
    49   1 H        0.925     0.031     2.567     2.506
    50   1 H        0.926     0.022     2.709     2.574
    51   1 H        0.924     0.057     2.230     2.335
    52   1 H        0.924     0.053     2.281     2.362
    53   1 H        0.926     0.025     2.658     2.549
    54   1 H        0.925     0.032     2.562     2.503
    55   1 H        0.926     0.041     2.439     2.442
    56   1 H        0.926     0.023     2.685     2.562
    57   1 H        0.924     0.068     2.106     2.269
    58   1 H        0.924     0.057     2.240     2.341
    59   1 H        0.926     0.026     2.650     2.546
    60   1 H        0.925     0.027     2.623     2.533
    61   1 H        0.925     0.026     2.639     2.540
    62   1 H        0.926     0.024     2.673     2.557
    63   1 H        0.924     0.060     2.203     2.321
    64   1 H        0.924     0.067     2.123     2.278
    65   1 H        0.926     0.029     2.606     2.524
    66   1 H        0.925     0.039     2.460     2.453
    67   1 H        0.926     0.053     2.286     2.365
    68   1 H        0.926     0.043     2.414     2.430
    69   1 H        0.926     0.036     2.508     2.477
    70   1 H        0.925     0.036     2.496     2.471
    71   1 H        0.925     0.043     2.413     2.429
    72   1 H        0.926     0.043     2.415     2.430
    73   1 H        0.926     0.035     2.514     2.479
    74   1 H        0.925     0.037     2.483     2.464
    75   1 H        0.926     0.036     2.507     2.476
    76   1 H        0.926     0.040     2.453     2.449

 Mol. C6AA /au·bohr⁶  :      74071.436235
 Mol. C8AA /au·bohr⁸  :    1836097.541632
 Mol. α(0) /au        :        436.230950


Wiberg/Mayer (AO) data.
largest (>0.10) Wiberg bond orders for each atom

 ---------------------------------------------------------------------------
     #   Z sym  total        # sym  WBO       # sym  WBO       # sym  WBO
 ---------------------------------------------------------------------------
     1   6 C    3.989 --     2 C    1.821     5 C    1.103    43 H    0.968
     2   6 C    3.988 --     1 C    1.821     3 C    1.038    44 H    0.972
                             4 C    0.109
     3   6 C    3.998 --     4 C    1.045     2 C    1.038    45 H    0.934
                            46 H    0.927
     4   6 C    3.982 --     5 C    1.690     3 C    1.045    47 H    0.973
                             7 C    0.113     2 C    0.109
     5   6 C    3.987 --     4 C    1.690     1 C    1.103     6 C    1.101
     6   6 C    3.990 --     7 C    1.831     5 C    1.101    48 H    0.964
     7   6 C    3.984 --     6 C    1.831     8 C    1.036    49 H    0.951
                             4 C    0.113
     8   6 C    3.984 --     9 C    1.768    12 C    1.060     7 C    1.036
     9   6 C    3.980 --     8 C    1.768    10 C    1.035    50 H    0.973
                            11 C    0.105
    10   6 C    3.997 --    11 C    1.041     9 C    1.035    52 H    0.935
                            51 H    0.933
    11   6 C    3.960 --    12 C    1.704    10 C    1.041    53 H    0.970
                             9 C    0.105
    12   6 C    3.985 --    11 C    1.704    13 C    1.100     8 C    1.060
    13   6 C    3.985 --    14 C    1.776    12 C    1.100    54 H    0.959
    14   6 C    3.985 --    13 C    1.776    15 C    1.107    55 H    0.952
    15   6 C    3.985 --    16 C    1.696    14 C    1.107    19 C    1.067
    16   6 C    3.960 --    15 C    1.696    17 C    1.044    56 H    0.972
    17   6 C    3.997 --    16 C    1.044    18 C    1.043    58 H    0.931
                            57 H    0.925
    18   6 C    3.967 --    19 C    1.713    17 C    1.043    59 H    0.972
    19   6 C    3.985 --    18 C    1.713    20 C    1.090    15 C    1.067
    20   6 C    3.985 --    21 C    1.791    19 C    1.090    60 H    0.960
    21   6 C    3.985 --    20 C    1.791    22 C    1.094    61 H    0.961
    22   6 C    3.983 --    23 C    1.711    21 C    1.094    26 C    1.065
    23   6 C    3.967 --    22 C    1.711    24 C    1.042    62 H    0.972
    24   6 C    3.997 --    25 C    1.043    23 C    1.042    63 H    0.933
                            64 H    0.926
    25   6 C    3.951 --    26 C    1.699    24 C    1.043    65 H    0.970
    26   6 C    3.986 --    25 C    1.699    27 C    1.109    22 C    1.065
    27   6 C    3.984 --    28 C    1.729    26 C    1.109    66 H    0.952
    28   6 C    3.983 --    27 C    1.729    29 C    1.144    67 H    0.959
    29   6 C    3.897 --    33 C    1.424    28 C    1.144    30 O    1.097
                            31 C    0.116
    30   8 O    2.425 --    31 C    1.131    29 C    1.097
    31   6 C    3.898 --    32 C    1.602    30 O    1.131    68 H    0.966
                            29 C    0.116
    32   6 C    3.981 --    31 C    1.602    33 C    1.256    69 H    0.974
    33   6 C    3.963 --    29 C    1.424    32 C    1.256    34 C    1.094
    34   6 C    3.991 --    35 C    1.746    33 C    1.094    70 H    0.955
    35   6 C    3.983 --    34 C    1.746    36 C    1.139    71 H    0.957
    36   6 C    3.910 --    40 C    1.423    35 C    1.139    37 O    1.101
                            38 C    0.116
    37   8 O    2.441 --    38 C    1.134    36 C    1.101
    38   6 C    3.909 --    39 C    1.605    37 O    1.134    72 H    0.966
                            36 C    0.116
    39   6 C    3.982 --    38 C    1.605    40 C    1.258    73 H    0.974
    40   6 C    3.970 --    36 C    1.423    39 C    1.258    41 C    1.103
    41   6 C    3.992 --    42 C    1.894    40 C    1.103    74 H    0.962
    42   6 C    3.985 --    41 C    1.894    75 H    0.979    76 H    0.974
    43   1 H    0.999 --     1 C    0.968
    44   1 H    0.999 --     2 C    0.972
    45   1 H    0.992 --     3 C    0.934
    46   1 H    0.992 --     3 C    0.927
    47   1 H    0.999 --     4 C    0.973
    48   1 H    0.998 --     6 C    0.964
    49   1 H    0.998 --     7 C    0.951
    50   1 H    0.999 --     9 C    0.973
    51   1 H    0.991 --    10 C    0.933
    52   1 H    0.993 --    10 C    0.935
    53   1 H    0.998 --    11 C    0.970
    54   1 H    0.999 --    13 C    0.959
    55   1 H    0.998 --    14 C    0.952
    56   1 H    0.999 --    16 C    0.972
    57   1 H    0.988 --    17 C    0.925
    58   1 H    0.989 --    17 C    0.931
    59   1 H    0.999 --    18 C    0.972
    60   1 H    0.998 --    20 C    0.960
    61   1 H    0.998 --    21 C    0.961
    62   1 H    0.999 --    23 C    0.972
    63   1 H    0.989 --    24 C    0.933
    64   1 H    0.987 --    24 C    0.926
    65   1 H    0.998 --    25 C    0.970
    66   1 H    0.998 --    27 C    0.952
    67   1 H    0.995 --    28 C    0.959
    68   1 H    0.997 --    31 C    0.966
    69   1 H    0.998 --    32 C    0.974
    70   1 H    0.998 --    34 C    0.955
    71   1 H    0.998 --    35 C    0.957
    72   1 H    0.998 --    38 C    0.966
    73   1 H    0.998 --    39 C    0.974
    74   1 H    0.997 --    41 C    0.962
    75   1 H    0.998 --    42 C    0.979
    76   1 H    0.998 --    42 C    0.974
 ---------------------------------------------------------------------------

Topologies differ in bond orders
Writing corrected topology to xtbtopo.mol

molecular dipole:
                 x           y           z       tot (Debye)
 q only:       -0.488      -0.047      -0.034
   full:       -0.441       0.098       0.014       1.149
molecular quadrupole (traceless):
                xx          xy          yy          xz          yz          zz
 q only:       -0.830       6.719       6.359      -0.730       6.117      -5.529
  q+dip:        0.278       5.713      11.812       2.013      10.679     -12.090
   full:       -0.976       7.581       8.308       0.683       8.287      -7.332

           -------------------------------------------------
          |                Geometry Summary                 |
           -------------------------------------------------

      molecular mass/u    :      546.6982313
   center of mass at/Å    :       -0.0177808      -0.2812365      -0.1287966
  moments of inertia/u·Å² :        0.4059909E+04   0.6739334E+04   0.8572135E+04
rotational constants/cm⁻¹ :        0.4152219E-02   0.2501380E-02   0.1966562E-02

 * 68 selected distances

     #   Z          #   Z                                           value/Å
     1   6 C        2   6 C                                       1.3368514
     2   6 C        3   6 C                                       1.4930934 (max)
     3   6 C        4   6 C                                       1.4891724
     4   6 C        5   6 C                                       1.3523084
     6   6 C        7   6 C                                       1.3337774
     8   6 C        9   6 C                                       1.3434131
     9   6 C       10   6 C                                       1.4920946
    10   6 C       11   6 C                                       1.4900152
    11   6 C       12   6 C                                       1.3500796
    13   6 C       14   6 C                                       1.3368562
    15   6 C       16   6 C                                       1.3517315
    16   6 C       17   6 C                                       1.4869380
    17   6 C       18   6 C                                       1.4879527
    18   6 C       19   6 C                                       1.3507063
    20   6 C       21   6 C                                       1.3391078
    22   6 C       23   6 C                                       1.3502945
    23   6 C       24   6 C                                       1.4880431
    24   6 C       25   6 C                                       1.4872292
    25   6 C       26   6 C                                       1.3501561
    27   6 C       28   6 C                                       1.3417006
    28   6 C       29   6 C                                       1.4313273
    29   6 C       30   8 O                                       1.3553069
    30   8 O       31   6 C                                       1.3435241
    31   6 C       32   6 C                                       1.3585027
    29   6 C       33   6 C                                       1.3870626
    32   6 C       33   6 C                                       1.4224243
    34   6 C       35   6 C                                       1.3421472
    35   6 C       36   6 C                                       1.4346445
    36   6 C       37   8 O                                       1.3537643
    37   8 O       38   6 C                                       1.3419350
    38   6 C       39   6 C                                       1.3578327
    36   6 C       40   6 C                                       1.3886827
    39   6 C       40   6 C                                       1.4229858
    41   6 C       42   6 C                                       1.3280618
     1   6 C       43   1 H                                       1.0734642
     2   6 C       44   1 H                                       1.0753285
     3   6 C       45   1 H                                       1.0927041
     3   6 C       46   1 H                                       1.0931479
     4   6 C       47   1 H                                       1.0752783
     6   6 C       48   1 H                                       1.0840635
     7   6 C       49   1 H                                       1.0856219
     9   6 C       50   1 H                                       1.0753555
    10   6 C       51   1 H                                       1.0933327
    10   6 C       52   1 H                                       1.0937724
    11   6 C       53   1 H                                       1.0745627
    13   6 C       54   1 H                                       1.0819918
    14   6 C       55   1 H                                       1.0791645
    16   6 C       56   1 H                                       1.0752087
    17   6 C       57   1 H                                       1.0928413
    17   6 C       58   1 H                                       1.0939759
    18   6 C       59   1 H                                       1.0755354
    20   6 C       60   1 H                                       1.0855861
    21   6 C       61   1 H                                       1.0856292
    23   6 C       62   1 H                                       1.0755942
    24   6 C       63   1 H                                       1.0932885
    24   6 C       64   1 H                                       1.0930408
    25   6 C       65   1 H                                       1.0739226
    27   6 C       66   1 H                                       1.0812914
    28   6 C       67   1 H                                       1.0805054
    31   6 C       68   1 H                                       1.0724091
    32   6 C       69   1 H                                       1.0708776 (min)
    34   6 C       70   1 H                                       1.0837301
    35   6 C       71   1 H                                       1.0813063
    38   6 C       72   1 H                                       1.0723168
    39   6 C       73   1 H                                       1.0711183
    41   6 C       74   1 H                                       1.0834788
    42   6 C       75   1 H                                       1.0767546
    42   6 C       76   1 H                                       1.0763610

 * 3 distinct bonds (by element types)

   Z      Z             #   av. dist./Å        max./Å        min./Å
   1 H    6 C          34     1.0815459     1.0939759     1.0708776
   6 C    6 C          30     1.3975064     1.4930934     1.3280618
   6 C    8 O           4     1.3486326     1.3553069     1.3419350


optimized geometry written to: xtbopt.mol


           -------------------------------------------------
          | TOTAL ENERGY             -110.877977105016 Eh   |
          | GRADIENT NORM               0.000161571396 Eh/α |
          | HOMO-LUMO GAP               2.181073898106 eV   |
           -------------------------------------------------

------------------------------------------------------------------------
 * finished run on 2022/02/28 at 16:23:45.506     
------------------------------------------------------------------------
 total:
 * wall-time:     0 d,  0 h,  0 min,  7.701 sec
 *  cpu-time:     0 d,  0 h,  1 min,  1.499 sec
 * ratio c/w:     7.985 speedup
 SCF:
 * wall-time:     0 d,  0 h,  0 min,  0.114 sec
 *  cpu-time:     0 d,  0 h,  0 min,  0.890 sec
 * ratio c/w:     7.818 speedup
 ANC optimizer:
 * wall-time:     0 d,  0 h,  0 min,  7.541 sec
 *  cpu-time:     0 d,  0 h,  1 min,  0.315 sec
 * ratio c/w:     7.998 speedup

