      -----------------------------------------------------------      
     |                   =====================                   |     
     |                           x T B                           |     
     |                   =====================                   |     
     |                         S. Grimme                         |     
     |          Mulliken Center for Theoretical Chemistry        |     
     |                    University of Bonn                     |     
      -----------------------------------------------------------      

   * xtb version 6.4.1 (unknown) compiled by 'oda6@login1.crc.pitt.edu' on 2021-06-25

   xtb is free software: you can redistribute it and/or modify it under
   the terms of the GNU Lesser General Public License as published by
   the Free Software Foundation, either version 3 of the License, or
   (at your option) any later version.
   
   xtb is distributed in the hope that it will be useful,
   but WITHOUT ANY WARRANTY; without even the implied warranty of
   MERCHANTABILITY or FITNESS FOR A PARTICULAR PURPOSE.  See the
   GNU Lesser General Public License for more details.
   
   Cite this work as:
   * C. Bannwarth, E. Caldeweyher, S. Ehlert, A. Hansen, P. Pracht,
     J. Seibert, S. Spicher, S. Grimme, WIREs Comput. Mol. Sci., 2020, 11,
     e01493. DOI: 10.1002/wcms.1493
   
   for GFN2-xTB:
   * C. Bannwarth, S. Ehlert and S. Grimme., J. Chem. Theory Comput., 2019,
     15, 1652-1671. DOI: 10.1021/acs.jctc.8b01176
   for GFN1-xTB:
   * S. Grimme, C. Bannwarth, P. Shushkov, J. Chem. Theory Comput., 2017,
     13, 1989-2009. DOI: 10.1021/acs.jctc.7b00118
   for GFN0-xTB:
   * P. Pracht, E. Caldeweyher, S. Ehlert, S. Grimme, ChemRxiv, 2019, preprint.
     DOI: 10.26434/chemrxiv.8326202.v1
   for GFN-FF:
   * S. Spicher and S. Grimme, Angew. Chem. Int. Ed., 2020, 59, 15665-15673.
     DOI: 10.1002/anie.202004239
   
   for DFT-D4:
   * E. Caldeweyher, C. Bannwarth and S. Grimme, J. Chem. Phys., 2017,
     147, 034112. DOI: 10.1063/1.4993215
   * E. Caldeweyher, S. Ehlert, A. Hansen, H. Neugebauer, S. Spicher,
     C. Bannwarth and S. Grimme, J. Chem. Phys., 2019, 150, 154122.
     DOI: 10.1063/1.5090222
   * E. Caldeweyher, J.-M. Mewes, S. Ehlert and S. Grimme, Phys. Chem. Chem. Phys.
     2020, 22, 8499-8512. DOI: 10.1039/D0CP00502A
   
   for sTDA-xTB:
   * S. Grimme and C. Bannwarth, J. Chem. Phys., 2016, 145, 054103.
     DOI: 10.1063/1.4959605
   
   in the mass-spec context:
   * V. Asgeirsson, C. Bauer and S. Grimme, Chem. Sci., 2017, 8, 4879.
     DOI: 10.1039/c7sc00601b
   * J. Koopman and S. Grimme, ACS Omega 2019, 4, 12, 15120-15133.
     DOI: 10.1021/acsomega.9b02011
   
   for metadynamics refer to:
   * S. Grimme, J. Chem. Theory Comput., 2019, 155, 2847-2862
     DOI: 10.1021/acs.jctc.9b00143
   
   for SPH calculations refer to:
   * S. Spicher and S. Grimme, J. Chem. Theory Comput., 2021, 17, 1701-1714
     DOI: 10.1021/acs.jctc.0c01306
   
   with help from (in alphabetical order)
   P. Atkinson, C. Bannwarth, F. Bohle, G. Brandenburg, E. Caldeweyher
   M. Checinski, S. Dohm, S. Ehlert, S. Ehrlich, I. Gerasimov, J. Koopman
   C. Lavigne, S. Lehtola, F. März, M. Müller, F. Musil, H. Neugebauer
   J. Pisarek, C. Plett, P. Pracht, J. Seibert, P. Shushkov, S. Spicher
   M. Stahn, M. Steiner, T. Strunk, J. Stückrath, T. Rose, and J. Unsleber
   
 * started run on 2022/03/01 at 01:31:53.233     

           -------------------------------------------------
          |                Calculation Setup                |
           -------------------------------------------------

          program call               : /ihome/ghutchison/oda6/xtb/xtb-641/bin/xtb ../../FF_optimized/49_6_101100.mol -opt
          hostname                   : smp-n90
          coordinate file            : ../../FF_optimized/49_6_101100.mol
          omp threads                :                     8
          number of atoms            :                   101
          number of electrons        :                   302
          charge                     :                     0
          spin                       :                   0.0
          first test random number   :      0.61815797562870

   ID    Z sym.   atoms
    1    6 C      1, 3-5, 7-12, 14-19, 21, 23-25, 27-32, 34, 36-38, 40-45,
                  47-52, 54-59
    2   16 S      2, 13, 22, 33, 35, 46
    3    7 N      6, 26, 39
    4   34 Se     20, 53, 60
    5    1 H      61-101

molecular fragmentation (1/2 indicates fragments):
111111111111111111111111111111111111111111111111111111111111111111111111
11111111111111112111112111111
# atoms in fragment 1/2:    99     2
 fragment masses (1/2) :     1087.11        2.02
CMA distance (Bohr)    :  21.562
constraining FC (au)   :  0.0500
########################################################################
[WARNING] Please study the warnings concerning your input carefully
-1- prog_main_parseArguments: the use of '-opt' is discouraged, please use '--opt' next time
########################################################################

           -------------------------------------------------
          |                 G F N 2 - x T B                 |
           -------------------------------------------------

        Reference                      10.1021/acs.jctc.8b01176
      * Hamiltonian:
        H0-scaling (s, p, d)           1.850000    2.230000    2.230000
        zeta-weighting                 0.500000
      * Dispersion:
        s8                             2.700000
        a1                             0.520000
        a2                             5.000000
        s9                             5.000000
      * Repulsion:
        kExp                           1.500000    1.000000
        rExp                           1.000000
      * Coulomb:
        alpha                          2.000000
        third order                    shell-resolved
        anisotropic                    true
        a3                             3.000000
        a5                             4.000000
        cn-shift                       1.200000
        cn-exp                         4.000000
        max-rad                        5.000000


          ...................................................
          :                      SETUP                      :
          :.................................................:
          :  # basis functions                 335          :
          :  # atomic orbitals                 326          :
          :  # shells                          170          :
          :  # electrons                       302          :
          :  max. iterations                   250          :
          :  Hamiltonian                  GFN2-xTB          :
          :  restarted?                      false          :
          :  GBSA solvation                  false          :
          :  PC potential                    false          :
          :  electronic temp.          300.0000000     K    :
          :  accuracy                    1.0000000          :
          :  -> integral cutoff          0.2500000E+02      :
          :  -> integral neglect         0.1000000E-07      :
          :  -> SCF convergence          0.1000000E-05 Eh   :
          :  -> wf. convergence          0.1000000E-03 e    :
          :  Broyden damping             0.4000000          :
          ...................................................

 iter      E             dE          RMSdq      gap      omega  full diag
   1   -163.4982339 -0.163498E+03  0.449E+00    1.57       0.0  T
   2   -163.7148327 -0.216599E+00  0.247E+00    1.50       1.0  T
   3   -163.6673449  0.474878E-01  0.134E+00    1.72       1.0  T
   4   -163.7271582 -0.598132E-01  0.690E-01    1.65       1.0  T
   5   -163.7563436 -0.291854E-01  0.223E-01    1.67       1.0  T
   6   -163.7564312 -0.875795E-04  0.153E-01    1.68       1.0  T
   7   -163.7576506 -0.121940E-02  0.524E-02    1.67       1.0  T
   8   -163.7577569 -0.106346E-03  0.275E-02    1.67       1.0  T
   9   -163.7577674 -0.104322E-04  0.197E-02    1.67       1.0  T
  10   -163.7577743 -0.691876E-05  0.972E-03    1.67       1.0  T
  11   -163.7577758 -0.147263E-05  0.542E-03    1.67       1.8  T
  12   -163.7577768 -0.108016E-05  0.215E-03    1.67       4.6  T
  13   -163.7577769 -0.972721E-07  0.872E-04    1.67      11.4  T
  14   -163.7577770 -0.217193E-07  0.471E-04    1.67      21.1  T

   *** convergence criteria satisfied after 14 iterations ***

         #    Occupation            Energy/Eh            Energy/eV
      -------------------------------------------------------------
         1        2.0000           -0.7545909             -20.5335
       ...           ...                  ...                  ...
       145        2.0000           -0.3800240             -10.3410
       146        2.0000           -0.3713888             -10.1060
       147        2.0000           -0.3676019             -10.0030
       148        2.0000           -0.3674705              -9.9994
       149        2.0000           -0.3653286              -9.9411
       150        2.0000           -0.3618504              -9.8464
       151        2.0000           -0.3530892              -9.6080 (HOMO)
       152                         -0.2916397              -7.9359 (LUMO)
       153                         -0.2843132              -7.7366
       154                         -0.2663880              -7.2488
       155                         -0.2484959              -6.7619
       156                         -0.2376171              -6.4659
       ...                                ...                  ...
       326                          0.9506082              25.8674
      -------------------------------------------------------------
                  HL-Gap            0.0614495 Eh            1.6721 eV
             Fermi-level           -0.3223644 Eh           -8.7720 eV

 SCC (total)                   0 d,  0 h,  0 min,  0.225 sec
 SCC setup                      ...        0 min,  0.001 sec (  0.448%)
 Dispersion                     ...        0 min,  0.003 sec (  1.171%)
 classical contributions        ...        0 min,  0.000 sec (  0.051%)
 integral evaluation            ...        0 min,  0.012 sec (  5.423%)
 iterations                     ...        0 min,  0.182 sec ( 80.891%)
 molecular gradient             ...        0 min,  0.026 sec ( 11.576%)
 printout                       ...        0 min,  0.001 sec (  0.398%)

         :::::::::::::::::::::::::::::::::::::::::::::::::::::
         ::                     SUMMARY                     ::
         :::::::::::::::::::::::::::::::::::::::::::::::::::::
         :: total energy            -161.261790809002 Eh    ::
         :: gradient norm              0.520249273980 Eh/a0 ::
         :: HOMO-LUMO gap              1.672125265715 eV    ::
         ::.................................................::
         :: SCC energy              -163.757776953324 Eh    ::
         :: -> isotropic ES            0.014005995896 Eh    ::
         :: -> anisotropic ES          0.011408007825 Eh    ::
         :: -> anisotropic XC          0.068788868387 Eh    ::
         :: -> dispersion             -0.144317399492 Eh    ::
         :: repulsion energy           2.498030818255 Eh    ::
         :: add. restraining           0.000000000000 Eh    ::
         :: total charge               0.000000000000 e     ::
         :::::::::::::::::::::::::::::::::::::::::::::::::::::

      ----------------------------------------------------------- 
     |                   =====================                   |
     |                        A N C O P T                        |
     |                   =====================                   |
     |               Approximate Normal Coordinate               |
     |                Rational Function Optimizer                |
      ----------------------------------------------------------- 

          ...................................................
          :                      SETUP                      :
          :.................................................:
          :   optimization level            normal          :
          :   max. optcycles                   303          :
          :   ANC micro-cycles                  20          :
          :   degrees of freedom               297          :
          :.................................................:
          :   RF solver                   davidson          :
          :   write xtbopt.log                true          :
          :   linear?                        false          :
          :   energy convergence         0.5000000E-05 Eh   :
          :   grad. convergence          0.1000000E-02 Eh/α :
          :   maximium RF displ.         1.0000000          :
          :   Hlow (freq-cutoff)         0.1000000E-01      :
          :   Hmax (freq-cutoff)         5.0000000          :
          :   S6 in model hess.         20.0000000          :
          ...................................................

generating ANC from model Hessian ...
Using Lindh-Hessian (1995)
 Shifting diagonal of input Hessian by   9.991778846564965E-003
 Lowest  eigenvalues of input Hessian
    0.000000    0.000000    0.000000    0.000000    0.000000    0.000000
    0.010000    0.010013    0.010020    0.010069    0.010106    0.010137
    0.010254    0.010283    0.010380    0.010462    0.010556    0.010755
 Highest eigenvalues
    2.298434    2.312390    2.324633    2.346210    2.347730    2.371598
 

........................................................................
.............................. CYCLE    1 ..............................
........................................................................
   1   -163.7577770 -0.163758E+03  0.237E-04    1.67       0.0  T
   2   -163.7577770 -0.285212E-09  0.194E-04    1.67      51.4  T
   3   -163.7577770 -0.116998E-08  0.131E-04    1.67      75.7  T
     SCC iter.                  ...        0 min,  0.041 sec
     gradient                   ...        0 min,  0.025 sec
 * total energy  :  -161.2617908 Eh     change       -0.5818350E-08 Eh
   gradient norm :     0.5202508 Eh/α   predicted     0.0000000E+00 (-100.00%)
   displ. norm   :     0.5006630 α      lambda       -0.2250494E+00
   maximum displ.:     0.1152281 α      in ANC's #197, #207, #196, ...

........................................................................
.............................. CYCLE    2 ..............................
........................................................................
   1   -163.7516240 -0.163752E+03  0.630E-01    1.56       0.0  T
   2   -163.7530416 -0.141763E-02  0.374E-01    1.54       1.0  T
   3   -163.7508840  0.215765E-02  0.188E-01    1.54       1.0  T
   4   -163.7534916 -0.260760E-02  0.767E-02    1.53       1.0  T
   5   -163.7537214 -0.229819E-03  0.390E-02    1.53       1.0  T
   6   -163.7537774 -0.560284E-04  0.173E-02    1.53       1.0  T
   7   -163.7537927 -0.152383E-04  0.684E-03    1.53       1.5  T
   8   -163.7537931 -0.400588E-06  0.495E-03    1.53       2.0  T
   9   -163.7537935 -0.418758E-06  0.257E-03    1.53       3.9  T
  10   -163.7537937 -0.202043E-06  0.109E-03    1.53       9.1  T
  11   -163.7537937 -0.576540E-08  0.869E-04    1.53      11.4  T
  12   -163.7537937 -0.292316E-07  0.305E-04    1.53      32.7  T
     SCC iter.                  ...        0 min,  0.151 sec
     gradient                   ...        0 min,  0.025 sec
 * total energy  :  -161.4247177 Eh     change       -0.1629269E+00 Eh
   gradient norm :     0.2368218 Eh/α   predicted    -0.1407433E+00 ( -13.62%)
   displ. norm   :     0.4551303 α      lambda       -0.8362637E-01
   maximum displ.:     0.1217986 α      in ANC's #22, #197, #194, ...

........................................................................
.............................. CYCLE    3 ..............................
........................................................................
   1   -163.7335309 -0.163734E+03  0.464E-01    1.49       0.0  T
   2   -163.7341887 -0.657840E-03  0.278E-01    1.47       1.0  T
   3   -163.7326058  0.158292E-02  0.160E-01    1.48       1.0  T
   4   -163.7346413 -0.203550E-02  0.540E-02    1.47       1.0  T
   5   -163.7347236 -0.823084E-04  0.287E-02    1.47       1.0  T
   6   -163.7347580 -0.343283E-04  0.126E-02    1.47       1.0  T
   7   -163.7347646 -0.660157E-05  0.560E-03    1.47       1.8  T
   8   -163.7347646 -0.705736E-07  0.424E-03    1.47       2.3  T
   9   -163.7347650 -0.408917E-06  0.209E-03    1.47       4.8  T
  10   -163.7347651 -0.101257E-06  0.977E-04    1.47      10.2  T
  11   -163.7347652 -0.212077E-07  0.537E-04    1.47      18.5  T
     SCC iter.                  ...        0 min,  0.139 sec
     gradient                   ...        0 min,  0.025 sec
 * total energy  :  -161.4782687 Eh     change       -0.5355094E-01 Eh
   gradient norm :     0.0694866 Eh/α   predicted    -0.5047915E-01 (  -5.74%)
   displ. norm   :     0.5700382 α      lambda       -0.2100667E-01
   maximum displ.:     0.3265166 α      in ANC's #22, #26, #47, ...

........................................................................
.............................. CYCLE    4 ..............................
........................................................................
   1   -163.7231102 -0.163723E+03  0.254E-01    1.46       0.0  T
   2   -163.7232001 -0.898778E-04  0.142E-01    1.45       1.0  T
   3   -163.7227366  0.463425E-03  0.835E-02    1.46       1.0  T
   4   -163.7232868 -0.550204E-03  0.265E-02    1.45       1.0  T
   5   -163.7232980 -0.111717E-04  0.142E-02    1.45       1.0  T
   6   -163.7233087 -0.106937E-04  0.603E-03    1.45       1.7  T
   7   -163.7233100 -0.124154E-05  0.325E-03    1.45       3.1  T
   8   -163.7233099  0.629304E-07  0.233E-03    1.45       4.3  T
   9   -163.7233101 -0.196717E-06  0.952E-04    1.45      10.4  T
  10   -163.7233101 -0.156870E-07  0.497E-04    1.45      20.0  T
     SCC iter.                  ...        0 min,  0.129 sec
     gradient                   ...        0 min,  0.025 sec
 * total energy  :  -161.4938690 Eh     change       -0.1560032E-01 Eh
   gradient norm :     0.0319364 Eh/α   predicted    -0.1391635E-01 ( -10.79%)
   displ. norm   :     0.6946849 α      lambda       -0.1210067E-01
   maximum displ.:     0.4673704 α      in ANC's #22, #26, #30, ...

........................................................................
.............................. CYCLE    5 ..............................
........................................................................
   1   -163.7333479 -0.163733E+03  0.157E-01    1.45       0.0  T
   2   -163.7333868 -0.389174E-04  0.864E-02    1.45       1.0  T
   3   -163.7332509  0.135984E-03  0.467E-02    1.45       1.0  T
   4   -163.7334108 -0.159964E-03  0.173E-02    1.45       1.0  T
   5   -163.7334162 -0.538742E-05  0.822E-03    1.45       1.2  T
   6   -163.7334201 -0.388123E-05  0.316E-03    1.45       3.2  T
   7   -163.7334205 -0.422374E-06  0.154E-03    1.45       6.5  T
   8   -163.7334205  0.241289E-08  0.101E-03    1.45       9.8  T
   9   -163.7334205 -0.267292E-07  0.487E-04    1.45      20.4  T
  10   -163.7334205 -0.558421E-08  0.215E-04    1.45      46.4  T
     SCC iter.                  ...        0 min,  0.131 sec
     gradient                   ...        0 min,  0.026 sec
 * total energy  :  -161.5038478 Eh     change       -0.9978828E-02 Eh
   gradient norm :     0.0199624 Eh/α   predicted    -0.8970295E-02 ( -10.11%)
   displ. norm   :     0.7783301 α      lambda       -0.9584212E-02
   maximum displ.:     0.5437454 α      in ANC's #22, #26, #30, ...

........................................................................
.............................. CYCLE    6 ..............................
........................................................................
   1   -163.7574911 -0.163757E+03  0.112E-01    1.44       0.0  T
   2   -163.7575133 -0.221598E-04  0.625E-02    1.44       1.0  T
   3   -163.7574560  0.573034E-04  0.289E-02    1.44       1.0  T
   4   -163.7575245 -0.685326E-04  0.122E-02    1.44       1.0  T
   5   -163.7575272 -0.270356E-05  0.537E-03    1.44       1.9  T
   6   -163.7575289 -0.161967E-05  0.223E-03    1.44       4.5  T
   7   -163.7575291 -0.204025E-06  0.107E-03    1.44       9.3  T
   8   -163.7575291  0.468285E-08  0.741E-04    1.44      13.4  T
   9   -163.7575291 -0.142293E-07  0.391E-04    1.44      25.5  T
     SCC iter.                  ...        0 min,  0.112 sec
     gradient                   ...        0 min,  0.025 sec
 * total energy  :  -161.5121695 Eh     change       -0.8321670E-02 Eh
   gradient norm :     0.0199403 Eh/α   predicted    -0.7695153E-02 (  -7.53%)
   displ. norm   :     0.7996460 α      lambda       -0.8029543E-02
   maximum displ.:     0.5458533 α      in ANC's #22, #26, #20, ...

........................................................................
.............................. CYCLE    7 ..............................
........................................................................
   1   -163.7854827 -0.163785E+03  0.929E-02    1.43       0.0  T
   2   -163.7854957 -0.130092E-04  0.545E-02    1.43       1.0  T
   3   -163.7854282  0.675325E-04  0.308E-02    1.42       1.0  T
   4   -163.7855118 -0.836156E-04  0.924E-03    1.43       1.1  T
   5   -163.7855121 -0.331487E-06  0.539E-03    1.43       1.8  T
   6   -163.7855139 -0.172264E-05  0.203E-03    1.43       4.9  T
   7   -163.7855140 -0.118276E-06  0.127E-03    1.43       7.8  T
   8   -163.7855140  0.394814E-08  0.915E-04    1.43      10.9  T
   9   -163.7855140 -0.232289E-07  0.335E-04    1.43      29.7  T
     SCC iter.                  ...        0 min,  0.116 sec
     gradient                   ...        0 min,  0.025 sec
 * total energy  :  -161.5192650 Eh     change       -0.7095476E-02 Eh
   gradient norm :     0.0214532 Eh/α   predicted    -0.6581956E-02 (  -7.24%)
   displ. norm   :     0.8141686 α      lambda       -0.6844110E-02
   maximum displ.:     0.5414939 α      in ANC's #22, #26, #20, ...

........................................................................
.............................. CYCLE    8 ..............................
........................................................................
   1   -163.8100125 -0.163810E+03  0.906E-02    1.41       0.0  T
   2   -163.8100278 -0.152828E-04  0.535E-02    1.41       1.0  T
   3   -163.8099645  0.632806E-04  0.316E-02    1.41       1.0  T
   4   -163.8100449 -0.803913E-04  0.922E-03    1.41       1.1  T
   5   -163.8100456 -0.644657E-06  0.565E-03    1.41       1.8  T
   6   -163.8100471 -0.157821E-05  0.210E-03    1.41       4.7  T
   7   -163.8100473 -0.148505E-06  0.126E-03    1.41       7.9  T
   8   -163.8100473 -0.213163E-08  0.916E-04    1.41      10.9  T
   9   -163.8100473 -0.180304E-07  0.341E-04    1.41      29.2  T
     SCC iter.                  ...        0 min,  0.114 sec
     gradient                   ...        0 min,  0.025 sec
 * total energy  :  -161.5252777 Eh     change       -0.6012707E-02 Eh
   gradient norm :     0.0189316 Eh/α   predicted    -0.5690516E-02 (  -5.36%)
   displ. norm   :     0.8150094 α      lambda       -0.5573290E-02
   maximum displ.:     0.5244837 α      in ANC's #22, #26, #18, ...

........................................................................
.............................. CYCLE    9 ..............................
........................................................................
   1   -163.8279597 -0.163828E+03  0.916E-02    1.38       0.0  T
   2   -163.8279804 -0.207076E-04  0.518E-02    1.38       1.0  T
   3   -163.8279373  0.431786E-04  0.275E-02    1.38       1.0  T
   4   -163.8279913 -0.540184E-04  0.946E-03    1.38       1.1  T
   5   -163.8279930 -0.173163E-05  0.500E-03    1.38       2.0  T
   6   -163.8279940 -0.982816E-06  0.198E-03    1.38       5.0  T
   7   -163.8279942 -0.219212E-06  0.872E-04    1.38      11.4  T
   8   -163.8279942 -0.433113E-08  0.629E-04    1.38      15.8  T
     SCC iter.                  ...        0 min,  0.101 sec
     gradient                   ...        0 min,  0.025 sec
 * total energy  :  -161.5300773 Eh     change       -0.4799660E-02 Eh
   gradient norm :     0.0137044 Eh/α   predicted    -0.4637653E-02 (  -3.38%)
   displ. norm   :     0.7882518 α      lambda       -0.4183429E-02
   maximum displ.:     0.4784594 α      in ANC's #22, #26, #18, ...

........................................................................
.............................. CYCLE   10 ..............................
........................................................................
   1   -163.8409546 -0.163841E+03  0.880E-02    1.36       0.0  T
   2   -163.8409735 -0.188678E-04  0.487E-02    1.36       1.0  T
   3   -163.8409477  0.257486E-04  0.220E-02    1.36       1.0  T
   4   -163.8409787 -0.309745E-04  0.877E-03    1.36       1.1  T
   5   -163.8409808 -0.210322E-05  0.406E-03    1.36       2.5  T
   6   -163.8409813 -0.529777E-06  0.175E-03    1.36       5.7  T
   7   -163.8409815 -0.205178E-06  0.625E-04    1.36      15.9  T
   8   -163.8409815 -0.382636E-08  0.412E-04    1.36      24.1  T
     SCC iter.                  ...        0 min,  0.102 sec
     gradient                   ...        0 min,  0.025 sec
 * total energy  :  -161.5335926 Eh     change       -0.3515216E-02 Eh
   gradient norm :     0.0108962 Eh/α   predicted    -0.3391390E-02 (  -3.52%)
   displ. norm   :     0.7451201 α      lambda       -0.3013732E-02
   maximum displ.:     0.4104769 α      in ANC's #22, #26, #11, ...

........................................................................
.............................. CYCLE   11 ..............................
........................................................................
   1   -163.8522275 -0.163852E+03  0.815E-02    1.35       0.0  T
   2   -163.8522402 -0.127102E-04  0.449E-02    1.35       1.0  T
   3   -163.8522239  0.163108E-04  0.172E-02    1.35       1.0  T
   4   -163.8522430 -0.190945E-04  0.717E-03    1.35       1.4  T
   5   -163.8522445 -0.154737E-05  0.322E-03    1.35       3.1  T
   6   -163.8522449 -0.316704E-06  0.141E-03    1.35       7.1  T
   7   -163.8522450 -0.125531E-06  0.506E-04    1.35      19.6  T
   8   -163.8522450 -0.182897E-08  0.317E-04    1.35      31.4  T
     SCC iter.                  ...        0 min,  0.102 sec
     gradient                   ...        0 min,  0.025 sec
 * total energy  :  -161.5360590 Eh     change       -0.2466481E-02 Eh
   gradient norm :     0.0111814 Eh/α   predicted    -0.2343492E-02 (  -4.99%)
   displ. norm   :     0.7022363 α      lambda       -0.2238800E-02
   maximum displ.:     0.3306368 α      in ANC's #22, #11, #18, ...

........................................................................
.............................. CYCLE   12 ..............................
........................................................................
   1   -163.8618648 -0.163862E+03  0.740E-02    1.34       0.0  T
   2   -163.8618719 -0.707695E-05  0.417E-02    1.34       1.0  T
   3   -163.8618575  0.143629E-04  0.154E-02    1.34       1.0  T
   4   -163.8618741 -0.165585E-04  0.587E-03    1.34       1.7  T
   5   -163.8618748 -0.772446E-06  0.258E-03    1.34       3.9  T
   6   -163.8618752 -0.301930E-06  0.106E-03    1.34       9.4  T
   7   -163.8618752 -0.637376E-07  0.446E-04    1.34      22.3  T
   8   -163.8618752 -0.146730E-08  0.274E-04    1.34      36.3  T
     SCC iter.                  ...        0 min,  0.102 sec
     gradient                   ...        0 min,  0.025 sec
 * total energy  :  -161.5378423 Eh     change       -0.1783286E-02 Eh
   gradient norm :     0.0121758 Eh/α   predicted    -0.1671428E-02 (  -6.27%)
   displ. norm   :     0.6615279 α      lambda       -0.1857831E-02
   maximum displ.:     0.2397819 α      in ANC's #22, #11, #18, ...

........................................................................
.............................. CYCLE   13 ..............................
........................................................................
   1   -163.8730865 -0.163873E+03  0.679E-02    1.33       0.0  T
   2   -163.8730914 -0.497680E-05  0.381E-02    1.33       1.0  T
   3   -163.8730814  0.100361E-04  0.123E-02    1.33       1.0  T
   4   -163.8730928 -0.113671E-04  0.492E-03    1.33       2.0  T
   5   -163.8730934 -0.618045E-06  0.228E-03    1.33       4.4  T
   6   -163.8730936 -0.250275E-06  0.972E-04    1.33      10.2  T
   7   -163.8730937 -0.488332E-07  0.397E-04    1.33      25.1  T
     SCC iter.                  ...        0 min,  0.090 sec
     gradient                   ...        0 min,  0.025 sec
 * total energy  :  -161.5393174 Eh     change       -0.1475071E-02 Eh
   gradient norm :     0.0109863 Eh/α   predicted    -0.1335442E-02 (  -9.47%)
   displ. norm   :     0.6630718 α      lambda       -0.1708525E-02
   maximum displ.:     0.2774634 α      in ANC's #11, #42, #5, ...

........................................................................
.............................. CYCLE   14 ..............................
........................................................................
   1   -163.8763464 -0.163876E+03  0.641E-02    1.33       0.0  T
   2   -163.8763526 -0.617628E-05  0.371E-02    1.33       1.0  T
   3   -163.8763445  0.806697E-05  0.114E-02    1.33       1.0  T
   4   -163.8763534 -0.891374E-05  0.469E-03    1.33       2.1  T
   5   -163.8763542 -0.774447E-06  0.178E-03    1.33       5.6  T
   6   -163.8763542 -0.615547E-07  0.981E-04    1.33      10.1  T
   7   -163.8763543 -0.614434E-07  0.334E-04    1.33      29.8  T
     SCC iter.                  ...        0 min,  0.090 sec
     gradient                   ...        0 min,  0.025 sec
 * total energy  :  -161.5406516 Eh     change       -0.1334252E-02 Eh
   gradient norm :     0.0131612 Eh/α   predicted    -0.1229863E-02 (  -7.82%)
   displ. norm   :     0.6646014 α      lambda       -0.2085264E-02
   maximum displ.:     0.2920762 α      in ANC's #11, #5, #6, ...

........................................................................
.............................. CYCLE   15 ..............................
........................................................................
   1   -163.8884839 -0.163888E+03  0.697E-02    1.34       0.0  T
   2   -163.8884967 -0.128541E-04  0.400E-02    1.34       1.0  T
   3   -163.8884854  0.113782E-04  0.153E-02    1.34       1.0  T
   4   -163.8884976 -0.122499E-04  0.647E-03    1.34       1.5  T
   5   -163.8884996 -0.200081E-05  0.224E-03    1.34       4.5  T
   6   -163.8884996 -0.239210E-07  0.132E-03    1.34       7.6  T
   7   -163.8884997 -0.896887E-07  0.527E-04    1.34      18.9  T
   8   -163.8884997 -0.385231E-08  0.339E-04    1.34      29.3  T
     SCC iter.                  ...        0 min,  0.102 sec
     gradient                   ...        0 min,  0.026 sec
 * total energy  :  -161.5419957 Eh     change       -0.1344046E-02 Eh
   gradient norm :     0.0136480 Eh/α   predicted    -0.1503165E-02 (  11.84%)
   displ. norm   :     0.6340668 α      lambda       -0.1670720E-02
   maximum displ.:     0.2804438 α      in ANC's #11, #6, #5, ...

........................................................................
.............................. CYCLE   16 ..............................
........................................................................
   1   -163.8799507 -0.163880E+03  0.684E-02    1.34       0.0  T
   2   -163.8799645 -0.138125E-04  0.385E-02    1.34       1.0  T
   3   -163.8799589  0.560674E-05  0.117E-02    1.34       1.0  T
   4   -163.8799636 -0.469086E-05  0.654E-03    1.34       1.5  T
   5   -163.8799664 -0.280279E-05  0.216E-03    1.34       4.6  T
   6   -163.8799664 -0.388302E-07  0.128E-03    1.34       7.8  T
   7   -163.8799665 -0.854735E-07  0.505E-04    1.34      19.7  T
   8   -163.8799665 -0.489231E-08  0.283E-04    1.34      35.1  T
     SCC iter.                  ...        0 min,  0.102 sec
     gradient                   ...        0 min,  0.025 sec
 * total energy  :  -161.5430282 Eh     change       -0.1032490E-02 Eh
   gradient norm :     0.0174279 Eh/α   predicted    -0.1171209E-02 (  13.44%)
   displ. norm   :     0.5432923 α      lambda       -0.1880297E-02
   maximum displ.:     0.2331040 α      in ANC's #11, #22, #42, ...

........................................................................
.............................. CYCLE   17 ..............................
........................................................................
   1   -163.8830345 -0.163883E+03  0.798E-02    1.34       0.0  T
   2   -163.8830714 -0.368237E-04  0.441E-02    1.34       1.0  T
   3   -163.8830614  0.998555E-05  0.168E-02    1.34       1.0  T
   4   -163.8830717 -0.103641E-04  0.886E-03    1.34       1.1  T
   5   -163.8830762 -0.448747E-05  0.346E-03    1.34       2.9  T
   6   -163.8830763 -0.279446E-07  0.211E-03    1.34       4.7  T
   7   -163.8830765 -0.251825E-06  0.756E-04    1.34      13.2  T
   8   -163.8830765 -0.627801E-08  0.444E-04    1.34      22.4  T
     SCC iter.                  ...        0 min,  0.102 sec
     gradient                   ...        0 min,  0.025 sec
 * total energy  :  -161.5432182 Eh     change       -0.1900541E-03 Eh
   gradient norm :     0.0255329 Eh/α   predicted    -0.1217651E-02 ( 540.69%)
   displ. norm   :     0.3131881 α      lambda       -0.1998092E-02
   maximum displ.:     0.1169074 α      in ANC's #30, #11, #42, ...

........................................................................
.............................. CYCLE   18 ..............................
........................................................................
   1   -163.8719078 -0.163872E+03  0.600E-02    1.34       0.0  T
   2   -163.8719362 -0.283957E-04  0.329E-02    1.34       1.0  T
   3   -163.8719353  0.867248E-06  0.120E-02    1.34       1.0  T
   4   -163.8719363 -0.962417E-06  0.602E-03    1.34       1.7  T
   5   -163.8719385 -0.219884E-05  0.200E-03    1.34       5.0  T
   6   -163.8719384  0.173216E-07  0.121E-03    1.34       8.3  T
   7   -163.8719385 -0.785266E-07  0.368E-04    1.34      27.0  T
   8   -163.8719385 -0.516050E-08  0.170E-04    1.34      58.6  T
     SCC iter.                  ...        0 min,  0.102 sec
     gradient                   ...        0 min,  0.026 sec
 * total energy  :  -161.5440047 Eh     change       -0.7864821E-03 Eh
   gradient norm :     0.0196241 Eh/α   predicted    -0.1097041E-02 (  39.49%)
   displ. norm   :     0.2942964 α      lambda       -0.2183863E-02
   maximum displ.:     0.1188526 α      in ANC's #42, #28, #34, ...

........................................................................
.............................. CYCLE   19 ..............................
........................................................................
   1   -163.8868484 -0.163887E+03  0.916E-02    1.34       0.0  T
   2   -163.8869200 -0.715597E-04  0.494E-02    1.34       1.0  T
   3   -163.8869199  0.756284E-07  0.190E-02    1.34       1.0  T
   4   -163.8869223 -0.234905E-05  0.856E-03    1.34       1.2  T
   5   -163.8869253 -0.298228E-05  0.487E-03    1.34       2.0  T
   6   -163.8869256 -0.348836E-06  0.240E-03    1.34       4.1  T
   7   -163.8869259 -0.293672E-06  0.110E-03    1.34       9.1  T
   8   -163.8869259 -0.992253E-08  0.710E-04    1.34      14.0  T
   9   -163.8869259 -0.124917E-07  0.294E-04    1.34      33.8  T
     SCC iter.                  ...        0 min,  0.115 sec
     gradient                   ...        0 min,  0.026 sec
 * total energy  :  -161.5432483 Eh     change        0.7563836E-03 Eh
   gradient norm :     0.0329404 Eh/α   predicted    -0.1186507E-02 (-256.87%)
   displ. norm   :     0.2099929 α      lambda       -0.2755147E-02
   maximum displ.:     0.1061158 α      in ANC's #42, #38, #34, ...

........................................................................
.............................. CYCLE   20 ..............................
........................................................................
   1   -163.8789215 -0.163879E+03  0.589E-02    1.34       0.0  T
   2   -163.8789521 -0.305769E-04  0.320E-02    1.34       1.0  T
   3   -163.8789521 -0.444153E-07  0.120E-02    1.34       1.0  T
   4   -163.8789522 -0.970314E-07  0.602E-03    1.34       1.7  T
   5   -163.8789542 -0.200078E-05  0.272E-03    1.34       3.7  T
   6   -163.8789543 -0.106339E-06  0.121E-03    1.34       8.2  T
   7   -163.8789544 -0.619678E-07  0.621E-04    1.34      16.0  T
   8   -163.8789544 -0.703267E-08  0.322E-04    1.34      30.9  T
     SCC iter.                  ...        0 min,  0.102 sec
     gradient                   ...        0 min,  0.025 sec
 * total energy  :  -161.5446613 Eh     change       -0.1412957E-02 Eh
   gradient norm :     0.0106132 Eh/α   predicted    -0.1438323E-02 (   1.80%)
   displ. norm   :     0.3078639 α      lambda       -0.1264500E-02
   maximum displ.:     0.1251120 α      in ANC's #42, #29, #11, ...
 * RMSD in coord.:     0.8734096 α      energy gain  -0.2828705E+00 Eh

generating ANC from model Hessian ...
Using Lindh-Hessian (1995)
 Shifting diagonal of input Hessian by   9.976163454696972E-003
 Lowest  eigenvalues of input Hessian
    0.000000    0.000000    0.000000    0.000000    0.000000    0.000000
    0.010000    0.010019    0.010022    0.010072    0.010100    0.010159
    0.010263    0.010328    0.010402    0.010473    0.010587    0.010757
 Highest eigenvalues
    2.103861    2.103939    2.118509    2.170120    2.177006    2.186438
 

........................................................................
.............................. CYCLE   21 ..............................
........................................................................
   1   -163.8737207 -0.163874E+03  0.830E-02    1.34       0.0  T
   2   -163.8737850 -0.642331E-04  0.447E-02    1.34       1.0  T
   3   -163.8737861 -0.111425E-05  0.169E-02    1.34       1.0  T
   4   -163.8737858  0.242515E-06  0.783E-03    1.34       1.3  T
   5   -163.8737894 -0.356220E-05  0.341E-03    1.34       2.9  T
   6   -163.8737895 -0.147770E-06  0.148E-03    1.34       6.7  T
   7   -163.8737896 -0.793810E-07  0.750E-04    1.34      13.3  T
   8   -163.8737896 -0.171006E-07  0.384E-04    1.34      25.9  T
     SCC iter.                  ...        0 min,  0.103 sec
     gradient                   ...        0 min,  0.026 sec
 * total energy  :  -161.5431186 Eh     change        0.1542685E-02 Eh
   gradient norm :     0.0375714 Eh/α   predicted     0.0000000E+00 (-100.00%)
   displ. norm   :     0.1340671 α      lambda       -0.3199159E-02
   maximum displ.:     0.0325380 α      in ANC's #32, #174, #42, ...

........................................................................
.............................. CYCLE   22 ..............................
........................................................................
   1   -163.8792096 -0.163879E+03  0.609E-02    1.34       0.0  T
   2   -163.8792405 -0.308901E-04  0.333E-02    1.34       1.0  T
   3   -163.8792412 -0.745517E-06  0.116E-02    1.34       1.0  T
   4   -163.8792415 -0.257630E-06  0.478E-03    1.34       2.1  T
   5   -163.8792426 -0.116748E-05  0.241E-03    1.34       4.1  T
   6   -163.8792427 -0.110633E-06  0.936E-04    1.34      10.6  T
   7   -163.8792428 -0.338521E-07  0.456E-04    1.34      21.8  T
     SCC iter.                  ...        0 min,  0.090 sec
     gradient                   ...        0 min,  0.026 sec
 * total energy  :  -161.5450017 Eh     change       -0.1883112E-02 Eh
   gradient norm :     0.0085205 Eh/α   predicted    -0.1628339E-02 ( -13.53%)
   displ. norm   :     0.1143055 α      lambda       -0.3344298E-03
   maximum displ.:     0.0401876 α      in ANC's #32, #41, #6, ...

........................................................................
.............................. CYCLE   23 ..............................
........................................................................
   1   -163.8808225 -0.163881E+03  0.224E-02    1.34       0.0  T
   2   -163.8808247 -0.217063E-05  0.123E-02    1.34       1.0  T
   3   -163.8808240  0.737966E-06  0.460E-03    1.34       2.2  T
   4   -163.8808247 -0.700598E-06  0.235E-03    1.34       4.2  T
   5   -163.8808250 -0.302332E-06  0.960E-04    1.34      10.4  T
   6   -163.8808250 -0.282662E-08  0.491E-04    1.34      20.2  T
     SCC iter.                  ...        0 min,  0.077 sec
     gradient                   ...        0 min,  0.026 sec
 * total energy  :  -161.5452020 Eh     change       -0.2002821E-03 Eh
   gradient norm :     0.0027178 Eh/α   predicted    -0.1697405E-03 ( -15.25%)
   displ. norm   :     0.1461682 α      lambda       -0.1788318E-03
   maximum displ.:     0.0566457 α      in ANC's #32, #6, #41, ...

........................................................................
.............................. CYCLE   24 ..............................
........................................................................
   1   -163.8811057 -0.163881E+03  0.187E-02    1.34       0.0  T
   2   -163.8811062 -0.509102E-06  0.107E-02    1.34       1.0  T
   3   -163.8811051  0.108765E-05  0.385E-03    1.34       2.6  T
   4   -163.8811063 -0.117291E-05  0.147E-03    1.34       6.8  T
   5   -163.8811063 -0.844302E-07  0.579E-04    1.34      17.2  T
   6   -163.8811063 -0.643635E-08  0.272E-04    1.34      36.6  T
     SCC iter.                  ...        0 min,  0.077 sec
     gradient                   ...        0 min,  0.025 sec
 * total energy  :  -161.5453345 Eh     change       -0.1325197E-03 Eh
   gradient norm :     0.0054179 Eh/α   predicted    -0.9132720E-04 ( -31.08%)
   displ. norm   :     0.2779024 α      lambda       -0.2583847E-03
   maximum displ.:     0.1065547 α      in ANC's #32, #6, #41, ...

........................................................................
.............................. CYCLE   25 ..............................
........................................................................
   1   -163.8802643 -0.163880E+03  0.303E-02    1.34       0.0  T
   2   -163.8802650 -0.747601E-06  0.175E-02    1.34       1.0  T
   3   -163.8802623  0.272529E-05  0.605E-03    1.34       1.6  T
   4   -163.8802653 -0.297916E-05  0.209E-03    1.34       4.8  T
   5   -163.8802654 -0.114865E-06  0.987E-04    1.34      10.1  T
   6   -163.8802655 -0.474506E-07  0.344E-04    1.34      28.9  T
     SCC iter.                  ...        0 min,  0.077 sec
     gradient                   ...        0 min,  0.026 sec
 * total energy  :  -161.5455199 Eh     change       -0.1853687E-03 Eh
   gradient norm :     0.0075823 Eh/α   predicted    -0.1391795E-03 ( -24.92%)
   displ. norm   :     0.2514413 α      lambda       -0.2043873E-03
   maximum displ.:     0.1102887 α      in ANC's #6, #32, #41, ...

........................................................................
.............................. CYCLE   26 ..............................
........................................................................
   1   -163.8800237 -0.163880E+03  0.262E-02    1.34       0.0  T
   2   -163.8800242 -0.543652E-06  0.151E-02    1.34       1.0  T
   3   -163.8800225  0.166095E-05  0.489E-03    1.34       2.0  T
   4   -163.8800243 -0.180182E-05  0.180E-03    1.34       5.5  T
   5   -163.8800244 -0.948232E-07  0.808E-04    1.34      12.3  T
   6   -163.8800245 -0.292038E-07  0.285E-04    1.34      35.0  T
     SCC iter.                  ...        0 min,  0.078 sec
     gradient                   ...        0 min,  0.026 sec
 * total energy  :  -161.5456674 Eh     change       -0.1475522E-03 Eh
   gradient norm :     0.0056566 Eh/α   predicted    -0.1086761E-03 ( -26.35%)
   displ. norm   :     0.2053614 α      lambda       -0.1421777E-03
   maximum displ.:     0.1089828 α      in ANC's #6, #32, #5, ...

........................................................................
.............................. CYCLE   27 ..............................
........................................................................
   1   -163.8811304 -0.163881E+03  0.212E-02    1.34       0.0  T
   2   -163.8811309 -0.549287E-06  0.121E-02    1.34       1.0  T
   3   -163.8811300  0.888799E-06  0.383E-03    1.34       2.6  T
   4   -163.8811310 -0.942898E-06  0.153E-03    1.34       6.5  T
   5   -163.8811311 -0.935620E-07  0.608E-04    1.34      16.4  T
   6   -163.8811311 -0.736429E-08  0.285E-04    1.34      34.9  T
     SCC iter.                  ...        0 min,  0.078 sec
     gradient                   ...        0 min,  0.025 sec
 * total energy  :  -161.5457685 Eh     change       -0.1010674E-03 Eh
   gradient norm :     0.0025393 Eh/α   predicted    -0.7408859E-04 ( -26.69%)
   displ. norm   :     0.2211998 α      lambda       -0.9139602E-04
   maximum displ.:     0.1233369 α      in ANC's #6, #32, #5, ...

........................................................................
.............................. CYCLE   28 ..............................
........................................................................
   1   -163.8813494 -0.163881E+03  0.218E-02    1.34       0.0  T
   2   -163.8813497 -0.246578E-06  0.125E-02    1.34       1.0  T
   3   -163.8813487  0.979714E-06  0.383E-03    1.34       2.6  T
   4   -163.8813498 -0.107872E-05  0.132E-03    1.34       7.6  T
   5   -163.8813498 -0.342043E-07  0.611E-04    1.34      16.3  T
   6   -163.8813498 -0.187952E-07  0.189E-04    1.34      52.6  T
     SCC iter.                  ...        0 min,  0.077 sec
     gradient                   ...        0 min,  0.025 sec
 * total energy  :  -161.5458390 Eh     change       -0.7048733E-04 Eh
   gradient norm :     0.0019630 Eh/α   predicted    -0.4794259E-04 ( -31.98%)
   displ. norm   :     0.3262449 α      lambda       -0.8858164E-04
   maximum displ.:     0.1998791 α      in ANC's #6, #5, #10, ...

........................................................................
.............................. CYCLE   29 ..............................
........................................................................
   1   -163.8824845 -0.163882E+03  0.324E-02    1.34       0.0  T
   2   -163.8824854 -0.939355E-06  0.183E-02    1.34       1.0  T
   3   -163.8824834  0.206083E-05  0.558E-03    1.34       1.8  T
   4   -163.8824856 -0.226850E-05  0.217E-03    1.34       4.6  T
   5   -163.8824858 -0.163070E-06  0.885E-04    1.34      11.2  T
   6   -163.8824858 -0.304603E-07  0.376E-04    1.34      26.5  T
     SCC iter.                  ...        0 min,  0.078 sec
     gradient                   ...        0 min,  0.026 sec
 * total energy  :  -161.5459238 Eh     change       -0.8484005E-04 Eh
   gradient norm :     0.0031827 Eh/α   predicted    -0.4638919E-04 ( -45.32%)
   displ. norm   :     0.1592587 α      lambda       -0.4725081E-04
   maximum displ.:     0.0982060 α      in ANC's #6, #5, #10, ...

........................................................................
.............................. CYCLE   30 ..............................
........................................................................
   1   -163.8812517 -0.163881E+03  0.156E-02    1.34       0.0  T
   2   -163.8812519 -0.270361E-06  0.883E-03    1.34       1.1  T
   3   -163.8812517  0.249883E-06  0.213E-03    1.34       4.7  T
   4   -163.8812519 -0.270940E-06  0.107E-03    1.34       9.3  T
   5   -163.8812520 -0.450485E-07  0.416E-04    1.34      23.9  T
   6   -163.8812520 -0.407792E-08  0.210E-04    1.34      47.4  T
     SCC iter.                  ...        0 min,  0.077 sec
     gradient                   ...        0 min,  0.026 sec
 * total energy  :  -161.5459587 Eh     change       -0.3487287E-04 Eh
   gradient norm :     0.0020528 Eh/α   predicted    -0.2422589E-04 ( -30.53%)
   displ. norm   :     0.1754588 α      lambda       -0.6824265E-04
   maximum displ.:     0.1058906 α      in ANC's #6, #16, #10, ...

........................................................................
.............................. CYCLE   31 ..............................
........................................................................
   1   -163.8815843 -0.163882E+03  0.187E-02    1.34       0.0  T
   2   -163.8815847 -0.377575E-06  0.105E-02    1.34       1.0  T
   3   -163.8815840  0.708880E-06  0.322E-03    1.34       3.1  T
   4   -163.8815848 -0.806040E-06  0.126E-03    1.34       7.9  T
   5   -163.8815848 -0.469655E-07  0.561E-04    1.34      17.7  T
   6   -163.8815848 -0.133712E-07  0.256E-04    1.34      38.9  T
     SCC iter.                  ...        0 min,  0.077 sec
     gradient                   ...        0 min,  0.026 sec
 * total energy  :  -161.5460100 Eh     change       -0.5128881E-04 Eh
   gradient norm :     0.0017871 Eh/α   predicted    -0.3517205E-04 ( -31.42%)
   displ. norm   :     0.3024572 α      lambda       -0.5824721E-04
   maximum displ.:     0.1853139 α      in ANC's #6, #16, #10, ...

........................................................................
.............................. CYCLE   32 ..............................
........................................................................
   1   -163.8812236 -0.163881E+03  0.297E-02    1.34       0.0  T
   2   -163.8812242 -0.597918E-06  0.169E-02    1.34       1.0  T
   3   -163.8812227  0.157332E-05  0.474E-03    1.34       2.1  T
   4   -163.8812244 -0.176818E-05  0.182E-03    1.34       5.5  T
   5   -163.8812245 -0.753066E-07  0.831E-04    1.34      12.0  T
   6   -163.8812246 -0.430164E-07  0.284E-04    1.34      35.0  T
     SCC iter.                  ...        0 min,  0.078 sec
     gradient                   ...        0 min,  0.026 sec
 * total energy  :  -161.5460696 Eh     change       -0.5955939E-04 Eh
   gradient norm :     0.0025386 Eh/α   predicted    -0.3030863E-04 ( -49.11%)
   displ. norm   :     0.1460467 α      lambda       -0.4522996E-04
   maximum displ.:     0.0913863 α      in ANC's #6, #16, #10, ...

........................................................................
.............................. CYCLE   33 ..............................
........................................................................
   1   -163.8815337 -0.163882E+03  0.141E-02    1.34       0.0  T
   2   -163.8815338 -0.133701E-06  0.790E-03    1.34       1.3  T
   3   -163.8815337  0.139851E-06  0.169E-03    1.34       5.9  T
   4   -163.8815338 -0.157359E-06  0.861E-04    1.34      11.6  T
   5   -163.8815339 -0.249424E-07  0.349E-04    1.34      28.5  T
     SCC iter.                  ...        0 min,  0.066 sec
     gradient                   ...        0 min,  0.026 sec
 * total energy  :  -161.5461085 Eh     change       -0.3899305E-04 Eh
   gradient norm :     0.0022296 Eh/α   predicted    -0.2309763E-04 ( -40.76%)
   displ. norm   :     0.2500408 α      lambda       -0.8578076E-04
   maximum displ.:     0.1541569 α      in ANC's #6, #16, #10, ...

........................................................................
.............................. CYCLE   34 ..............................
........................................................................
   1   -163.8822724 -0.163882E+03  0.237E-02    1.34       0.0  T
   2   -163.8822728 -0.461468E-06  0.134E-02    1.34       1.0  T
   3   -163.8822723  0.573810E-06  0.315E-03    1.34       3.2  T
   4   -163.8822729 -0.670702E-06  0.140E-03    1.34       7.1  T
   5   -163.8822730 -0.602554E-07  0.506E-04    1.34      19.7  T
   6   -163.8822730 -0.116345E-07  0.242E-04    1.34      41.0  T
     SCC iter.                  ...        0 min,  0.078 sec
     gradient                   ...        0 min,  0.026 sec
 * total energy  :  -161.5461766 Eh     change       -0.6804215E-04 Eh
   gradient norm :     0.0017709 Eh/α   predicted    -0.4557391E-04 ( -33.02%)
   displ. norm   :     0.4165003 α      lambda       -0.7046551E-04
   maximum displ.:     0.2648102 α      in ANC's #6, #5, #10, ...

........................................................................
.............................. CYCLE   35 ..............................
........................................................................
   1   -163.8825752 -0.163883E+03  0.392E-02    1.33       0.0  T
   2   -163.8825763 -0.111363E-05  0.222E-02    1.33       1.0  T
   3   -163.8825751  0.117530E-05  0.482E-03    1.33       2.1  T
   4   -163.8825765 -0.140909E-05  0.222E-03    1.33       4.5  T
   5   -163.8825767 -0.150990E-06  0.717E-04    1.33      13.9  T
   6   -163.8825767 -0.221866E-07  0.352E-04    1.33      28.3  T
     SCC iter.                  ...        0 min,  0.078 sec
     gradient                   ...        0 min,  0.026 sec
 * total energy  :  -161.5462450 Eh     change       -0.6836921E-04 Eh
   gradient norm :     0.0027586 Eh/α   predicted    -0.3794954E-04 ( -44.49%)
   displ. norm   :     0.1417946 α      lambda       -0.3695659E-04
   maximum displ.:     0.0945727 α      in ANC's #6, #5, #1, ...

........................................................................
.............................. CYCLE   36 ..............................
........................................................................
   1   -163.8834131 -0.163883E+03  0.130E-02    1.33       0.0  T
   2   -163.8834132 -0.101564E-06  0.740E-03    1.33       1.3  T
   3   -163.8834130  0.132105E-06  0.166E-03    1.33       6.0  T
   4   -163.8834132 -0.155972E-06  0.722E-04    1.33      13.8  T
   5   -163.8834132 -0.122556E-07  0.270E-04    1.33      36.9  T
     SCC iter.                  ...        0 min,  0.065 sec
     gradient                   ...        0 min,  0.025 sec
 * total energy  :  -161.5462788 Eh     change       -0.3382032E-04 Eh
   gradient norm :     0.0022664 Eh/α   predicted    -0.1885234E-04 ( -44.26%)
   displ. norm   :     0.3059389 α      lambda       -0.9101207E-04
   maximum displ.:     0.2008415 α      in ANC's #6, #5, #1, ...

........................................................................
.............................. CYCLE   37 ..............................
........................................................................
   1   -163.8844299 -0.163884E+03  0.295E-02    1.33       0.0  T
   2   -163.8844304 -0.516822E-06  0.167E-02    1.33       1.0  T
   3   -163.8844297  0.775079E-06  0.393E-03    1.33       2.5  T
   4   -163.8844306 -0.905903E-06  0.162E-03    1.33       6.1  T
   5   -163.8844306 -0.656412E-07  0.530E-04    1.33      18.8  T
   6   -163.8844307 -0.164636E-07  0.251E-04    1.33      39.6  T
     SCC iter.                  ...        0 min,  0.076 sec
     gradient                   ...        0 min,  0.026 sec
 * total energy  :  -161.5463541 Eh     change       -0.7532628E-04 Eh
   gradient norm :     0.0014593 Eh/α   predicted    -0.4976627E-04 ( -33.93%)
   displ. norm   :     0.6181627 α      lambda       -0.8990963E-04
   maximum displ.:     0.4079192 α      in ANC's #6, #5, #1, ...

........................................................................
.............................. CYCLE   38 ..............................
........................................................................
   1   -163.8827927 -0.163883E+03  0.585E-02    1.33       0.0  T
   2   -163.8827946 -0.185123E-05  0.332E-02    1.33       1.0  T
   3   -163.8827926  0.196896E-05  0.673E-03    1.33       1.5  T
   4   -163.8827949 -0.228179E-05  0.323E-03    1.33       3.1  T
   5   -163.8827952 -0.344881E-06  0.926E-04    1.33      10.7  T
   6   -163.8827953 -0.565117E-07  0.398E-04    1.33      25.0  T
     SCC iter.                  ...        0 min,  0.079 sec
     gradient                   ...        0 min,  0.026 sec
 * total energy  :  -161.5464421 Eh     change       -0.8801190E-04 Eh
   gradient norm :     0.0029651 Eh/α   predicted    -0.5259426E-04 ( -40.24%)
   displ. norm   :     0.2124271 α      lambda       -0.3950856E-04
   maximum displ.:     0.1435891 α      in ANC's #6, #1, #5, ...

........................................................................
.............................. CYCLE   39 ..............................
........................................................................
   1   -163.8831711 -0.163883E+03  0.190E-02    1.33       0.0  T
   2   -163.8831714 -0.224352E-06  0.107E-02    1.33       1.0  T
   3   -163.8831713  0.103754E-06  0.190E-03    1.33       5.2  T
   4   -163.8831714 -0.115898E-06  0.110E-03    1.33       9.0  T
   5   -163.8831714 -0.519050E-07  0.340E-04    1.33      29.2  T
   6   -163.8831714 -0.606605E-08  0.138E-04    1.33      72.4  T
     SCC iter.                  ...        0 min,  0.077 sec
     gradient                   ...        0 min,  0.025 sec
 * total energy  :  -161.5464757 Eh     change       -0.3356435E-04 Eh
   gradient norm :     0.0024193 Eh/α   predicted    -0.2064721E-04 ( -38.48%)
   displ. norm   :     0.4144395 α      lambda       -0.7084849E-04
   maximum displ.:     0.2826556 α      in ANC's #6, #1, #5, ...

........................................................................
.............................. CYCLE   40 ..............................
........................................................................
   1   -163.8826678 -0.163883E+03  0.378E-02    1.33       0.0  T
   2   -163.8826687 -0.868324E-06  0.213E-02    1.33       1.0  T
   3   -163.8826682  0.557916E-06  0.387E-03    1.33       2.6  T
   4   -163.8826688 -0.652181E-06  0.213E-03    1.33       4.7  T
   5   -163.8826690 -0.178033E-06  0.614E-04    1.33      16.2  T
   6   -163.8826690 -0.214088E-07  0.260E-04    1.33      38.2  T
     SCC iter.                  ...        0 min,  0.076 sec
     gradient                   ...        0 min,  0.025 sec
 * total energy  :  -161.5465310 Eh     change       -0.5528760E-04 Eh
   gradient norm :     0.0015103 Eh/α   predicted    -0.4150968E-04 ( -24.92%)
   displ. norm   :     0.5049540 α      lambda       -0.4775924E-04
   maximum displ.:     0.3496959 α      in ANC's #6, #1, #5, ...

........................................................................
.............................. CYCLE   41 ..............................
........................................................................
   1   -163.8816288 -0.163882E+03  0.464E-02    1.33       0.0  T
   2   -163.8816302 -0.137153E-05  0.261E-02    1.33       1.0  T
   3   -163.8816288  0.141292E-05  0.547E-03    1.33       1.8  T
   4   -163.8816304 -0.164306E-05  0.277E-03    1.33       3.6  T
   5   -163.8816306 -0.238039E-06  0.900E-04    1.33      11.1  T
   6   -163.8816307 -0.544033E-07  0.352E-04    1.33      28.3  T
     SCC iter.                  ...        0 min,  0.077 sec
     gradient                   ...        0 min,  0.026 sec
 * total energy  :  -161.5465767 Eh     change       -0.4568150E-04 Eh
   gradient norm :     0.0017512 Eh/α   predicted    -0.2659053E-04 ( -41.79%)
   displ. norm   :     0.1782286 α      lambda       -0.1729668E-04
   maximum displ.:     0.1275358 α      in ANC's #6, #1, #5, ...

........................................................................
.............................. CYCLE   42 ..............................
........................................................................
   1   -163.8825990 -0.163883E+03  0.171E-02    1.33       0.0  T
   2   -163.8825992 -0.187298E-06  0.954E-03    1.33       1.0  T
   3   -163.8825991  0.138122E-06  0.192E-03    1.33       5.2  T
   4   -163.8825992 -0.143332E-06  0.112E-03    1.33       8.9  T
   5   -163.8825993 -0.488329E-07  0.366E-04    1.33      27.2  T
   6   -163.8825993 -0.769899E-08  0.118E-04    1.33      84.5  T
     SCC iter.                  ...        0 min,  0.078 sec
     gradient                   ...        0 min,  0.025 sec
 * total energy  :  -161.5465959 Eh     change       -0.1927206E-04 Eh
   gradient norm :     0.0015559 Eh/α   predicted    -0.8774113E-05 ( -54.47%)
   displ. norm   :     0.4773443 α      lambda       -0.3161311E-04
   maximum displ.:     0.3462997 α      in ANC's #6, #1, #5, ...
 * RMSD in coord.:     0.5103963 α      energy gain  -0.1934635E-02 Eh

generating ANC from model Hessian ...
Using Lindh-Hessian (1995)
 Shifting diagonal of input Hessian by   9.980442085930687E-003
 Lowest  eigenvalues of input Hessian
    0.000000    0.000000    0.000000    0.000000    0.000000    0.000000
    0.010000    0.010016    0.010025    0.010061    0.010098    0.010162
    0.010239    0.010332    0.010395    0.010497    0.010570    0.010746
 Highest eigenvalues
    2.104463    2.105533    2.118323    2.171196    2.178234    2.186201
 

........................................................................
.............................. CYCLE   43 ..............................
........................................................................
   1   -163.8807861 -0.163881E+03  0.456E-02    1.33       0.0  T
   2   -163.8807873 -0.119028E-05  0.255E-02    1.33       1.0  T
   3   -163.8807870  0.367673E-06  0.442E-03    1.33       2.2  T
   4   -163.8807873 -0.390651E-06  0.279E-03    1.33       3.6  T
   5   -163.8807877 -0.333432E-06  0.733E-04    1.33      13.6  T
   6   -163.8807877 -0.325857E-07  0.251E-04    1.33      39.6  T
     SCC iter.                  ...        0 min,  0.078 sec
     gradient                   ...        0 min,  0.026 sec
 * total energy  :  -161.5466193 Eh     change       -0.2340613E-04 Eh
   gradient norm :     0.0019525 Eh/α   predicted     0.0000000E+00 (-100.00%)
   displ. norm   :     0.0373523 α      lambda       -0.1748715E-04
   maximum displ.:     0.0152740 α      in ANC's #6, #14, #22, ...

........................................................................
.............................. CYCLE   44 ..............................
........................................................................
   1   -163.8832075 -0.163883E+03  0.766E-03    1.33       0.0  T
   2   -163.8832076 -0.105906E-06  0.434E-03    1.33       2.3  T
   3   -163.8832075  0.101513E-06  0.136E-03    1.33       7.3  T
   4   -163.8832076 -0.111275E-06  0.540E-04    1.33      18.4  T
   5   -163.8832076 -0.144215E-07  0.205E-04    1.33      48.6  T
     SCC iter.                  ...        0 min,  0.065 sec
     gradient                   ...        0 min,  0.026 sec
 * total energy  :  -161.5466357 Eh     change       -0.1641335E-04 Eh
   gradient norm :     0.0006832 Eh/α   predicted    -0.8807058E-05 ( -46.34%)
   displ. norm   :     0.0601818 α      lambda       -0.1090689E-04
   maximum displ.:     0.0267122 α      in ANC's #6, #14, #13, ...

........................................................................
.............................. CYCLE   45 ..............................
........................................................................
   1   -163.8840897 -0.163884E+03  0.716E-03    1.33       0.0  T
   2   -163.8840897 -0.422205E-07  0.405E-03    1.33       2.5  T
   3   -163.8840896  0.157808E-06  0.154E-03    1.33       6.5  T
   4   -163.8840898 -0.182059E-06  0.465E-04    1.33      21.4  T
   5   -163.8840898 -0.248119E-08  0.235E-04    1.33      42.4  T
     SCC iter.                  ...        0 min,  0.065 sec
     gradient                   ...        0 min,  0.026 sec
 * total energy  :  -161.5466488 Eh     change       -0.1306921E-04 Eh
   gradient norm :     0.0009650 Eh/α   predicted    -0.5475176E-05 ( -58.11%)
   displ. norm   :     0.1596573 α      lambda       -0.2233633E-04
   maximum displ.:     0.0710515 α      in ANC's #6, #14, #10, ...

........................................................................
.............................. CYCLE   46 ..............................
........................................................................
   1   -163.8845703 -0.163885E+03  0.177E-02    1.33       0.0  T
   2   -163.8845705 -0.193599E-06  0.991E-03    1.33       1.0  T
   3   -163.8845698  0.695038E-06  0.324E-03    1.33       3.1  T
   4   -163.8845706 -0.799907E-06  0.107E-03    1.33       9.3  T
   5   -163.8845706 -0.101791E-07  0.525E-04    1.33      18.9  T
   6   -163.8845707 -0.167360E-07  0.198E-04    1.33      50.1  T
     SCC iter.                  ...        0 min,  0.078 sec
     gradient                   ...        0 min,  0.026 sec
 * total energy  :  -161.5466701 Eh     change       -0.2130478E-04 Eh
   gradient norm :     0.0014038 Eh/α   predicted    -0.1129552E-04 ( -46.98%)
   displ. norm   :     0.1432477 α      lambda       -0.1545299E-04
   maximum displ.:     0.0673533 α      in ANC's #6, #10, #3, ...

........................................................................
.............................. CYCLE   47 ..............................
........................................................................
   1   -163.8844214 -0.163884E+03  0.151E-02    1.33       0.0  T
   2   -163.8844216 -0.135613E-06  0.853E-03    1.33       1.2  T
   3   -163.8844214  0.131979E-06  0.172E-03    1.33       5.8  T
   4   -163.8844216 -0.150643E-06  0.910E-04    1.33      10.9  T
   5   -163.8844216 -0.244535E-07  0.378E-04    1.33      26.3  T
     SCC iter.                  ...        0 min,  0.065 sec
     gradient                   ...        0 min,  0.025 sec
 * total energy  :  -161.5466852 Eh     change       -0.1511940E-04 Eh
   gradient norm :     0.0012626 Eh/α   predicted    -0.7798990E-05 ( -48.42%)
   displ. norm   :     0.1538143 α      lambda       -0.1580943E-04
   maximum displ.:     0.0746652 α      in ANC's #6, #10, #3, ...

........................................................................
.............................. CYCLE   48 ..............................
........................................................................
   1   -163.8841468 -0.163884E+03  0.168E-02    1.33       0.0  T
   2   -163.8841469 -0.141709E-06  0.930E-03    1.33       1.1  T
   3   -163.8841467  0.203359E-06  0.199E-03    1.33       5.0  T
   4   -163.8841470 -0.232843E-06  0.959E-04    1.33      10.4  T
   5   -163.8841470 -0.228561E-07  0.358E-04    1.33      27.8  T
     SCC iter.                  ...        0 min,  0.064 sec
     gradient                   ...        0 min,  0.025 sec
 * total energy  :  -161.5467043 Eh     change       -0.1902173E-04 Eh
   gradient norm :     0.0009740 Eh/α   predicted    -0.7999717E-05 ( -57.94%)
   displ. norm   :     0.2682450 α      lambda       -0.2849098E-04
   maximum displ.:     0.1314179 α      in ANC's #6, #10, #3, ...

........................................................................
.............................. CYCLE   49 ..............................
........................................................................
   1   -163.8833937 -0.163883E+03  0.309E-02    1.33       0.0  T
   2   -163.8833942 -0.437242E-06  0.172E-02    1.33       1.0  T
   3   -163.8833936  0.555971E-06  0.341E-03    1.33       2.9  T
   4   -163.8833942 -0.628598E-06  0.173E-03    1.33       5.7  T
   5   -163.8833943 -0.884964E-07  0.569E-04    1.33      17.5  T
   6   -163.8833944 -0.201890E-07  0.232E-04    1.33      42.9  T
     SCC iter.                  ...        0 min,  0.077 sec
     gradient                   ...        0 min,  0.026 sec
 * total energy  :  -161.5467337 Eh     change       -0.2948052E-04 Eh
   gradient norm :     0.0013754 Eh/α   predicted    -0.1470196E-04 ( -50.13%)
   displ. norm   :     0.2641238 α      lambda       -0.2392998E-04
   maximum displ.:     0.1312204 α      in ANC's #6, #10, #3, ...

........................................................................
.............................. CYCLE   50 ..............................
........................................................................
   1   -163.8829668 -0.163883E+03  0.309E-02    1.33       0.0  T
   2   -163.8829673 -0.412088E-06  0.171E-02    1.33       1.0  T
   3   -163.8829664  0.879975E-06  0.405E-03    1.33       2.5  T
   4   -163.8829674 -0.100735E-05  0.174E-03    1.33       5.7  T
   5   -163.8829674 -0.598971E-07  0.539E-04    1.33      18.5  T
   6   -163.8829675 -0.205784E-07  0.212E-04    1.33      47.0  T
     SCC iter.                  ...        0 min,  0.078 sec
     gradient                   ...        0 min,  0.025 sec
 * total energy  :  -161.5467548 Eh     change       -0.2108109E-04 Eh
   gradient norm :     0.0017927 Eh/α   predicted    -0.1233634E-04 ( -41.48%)
   displ. norm   :     0.1918420 α      lambda       -0.1692111E-04
   maximum displ.:     0.0972337 α      in ANC's #6, #3, #10, ...

........................................................................
.............................. CYCLE   51 ..............................
........................................................................
   1   -163.8832394 -0.163883E+03  0.225E-02    1.33       0.0  T
   2   -163.8832396 -0.221689E-06  0.125E-02    1.33       1.0  T
   3   -163.8832395  0.107447E-06  0.200E-03    1.33       5.0  T
   4   -163.8832396 -0.124239E-06  0.120E-03    1.33       8.3  T
   5   -163.8832397 -0.529169E-07  0.347E-04    1.33      28.7  T
   6   -163.8832397 -0.726783E-08  0.150E-04    1.33      66.5  T
     SCC iter.                  ...        0 min,  0.078 sec
     gradient                   ...        0 min,  0.026 sec
 * total energy  :  -161.5467731 Eh     change       -0.1825196E-04 Eh
   gradient norm :     0.0014220 Eh/α   predicted    -0.8599221E-05 ( -52.89%)
   displ. norm   :     0.2393139 α      lambda       -0.2129680E-04
   maximum displ.:     0.1231757 α      in ANC's #6, #3, #10, ...

........................................................................
.............................. CYCLE   52 ..............................
........................................................................
   1   -163.8836801 -0.163884E+03  0.277E-02    1.33       0.0  T
   2   -163.8836805 -0.391651E-06  0.155E-02    1.33       1.0  T
   3   -163.8836803  0.193011E-06  0.260E-03    1.33       3.8  T
   4   -163.8836805 -0.223618E-06  0.154E-03    1.33       6.5  T
   5   -163.8836806 -0.833682E-07  0.541E-04    1.33      18.4  T
   6   -163.8836806 -0.148742E-07  0.217E-04    1.33      45.8  T
     SCC iter.                  ...        0 min,  0.078 sec
     gradient                   ...        0 min,  0.026 sec
 * total energy  :  -161.5467955 Eh     change       -0.2244694E-04 Eh
   gradient norm :     0.0009074 Eh/α   predicted    -0.1092277E-04 ( -51.34%)
   displ. norm   :     0.2649642 α      lambda       -0.1983790E-04
   maximum displ.:     0.1389516 α      in ANC's #6, #3, #9, ...

........................................................................
.............................. CYCLE   53 ..............................
........................................................................
   1   -163.8834142 -0.163883E+03  0.294E-02    1.33       0.0  T
   2   -163.8834146 -0.433767E-06  0.163E-02    1.33       1.0  T
   3   -163.8834142  0.450970E-06  0.321E-03    1.33       3.1  T
   4   -163.8834147 -0.483920E-06  0.178E-03    1.33       5.6  T
   5   -163.8834148 -0.106173E-06  0.668E-04    1.33      14.9  T
   6   -163.8834148 -0.263560E-07  0.200E-04    1.33      49.7  T
     SCC iter.                  ...        0 min,  0.078 sec
     gradient                   ...        0 min,  0.026 sec
 * total energy  :  -161.5468159 Eh     change       -0.2034170E-04 Eh
   gradient norm :     0.0011107 Eh/α   predicted    -0.1023029E-04 ( -49.71%)
   displ. norm   :     0.1977461 α      lambda       -0.1257822E-04
   maximum displ.:     0.1060809 α      in ANC's #6, #3, #9, ...

........................................................................
.............................. CYCLE   54 ..............................
........................................................................
   1   -163.8832156 -0.163883E+03  0.207E-02    1.33       0.0  T
   2   -163.8832158 -0.192986E-06  0.115E-02    1.33       1.0  T
   3   -163.8832156  0.255844E-06  0.240E-03    1.33       4.2  T
   4   -163.8832158 -0.257234E-06  0.142E-03    1.33       7.0  T
   5   -163.8832159 -0.726058E-07  0.383E-04    1.33      25.9  T
   6   -163.8832159 -0.992407E-08  0.127E-04    1.33      78.6  T
     SCC iter.                  ...        0 min,  0.076 sec
     gradient                   ...        0 min,  0.025 sec
 * total energy  :  -161.5468302 Eh     change       -0.1435617E-04 Eh
   gradient norm :     0.0011435 Eh/α   predicted    -0.6403464E-05 ( -55.40%)
   displ. norm   :     0.1666899 α      lambda       -0.1132632E-04
   maximum displ.:     0.0904599 α      in ANC's #6, #3, #2, ...

........................................................................
.............................. CYCLE   55 ..............................
........................................................................
   1   -163.8831935 -0.163883E+03  0.166E-02    1.33       0.0  T
   2   -163.8831936 -0.142249E-06  0.926E-03    1.33       1.1  T
   3   -163.8831935  0.105595E-06  0.173E-03    1.33       5.7  T
   4   -163.8831936 -0.104956E-06  0.109E-03    1.33       9.2  T
   5   -163.8831937 -0.445670E-07  0.371E-04    1.33      26.8  T
   6   -163.8831937 -0.786849E-08  0.131E-04    1.33      76.0  T
     SCC iter.                  ...        0 min,  0.077 sec
     gradient                   ...        0 min,  0.025 sec
 * total energy  :  -161.5468432 Eh     change       -0.1299661E-04 Eh
   gradient norm :     0.0008793 Eh/α   predicted    -0.5735951E-05 ( -55.87%)
   displ. norm   :     0.1554117 α      lambda       -0.9899528E-05
   maximum displ.:     0.0851178 α      in ANC's #6, #3, #2, ...

........................................................................
.............................. CYCLE   56 ..............................
........................................................................
   1   -163.8831672 -0.163883E+03  0.148E-02    1.33       0.0  T
   2   -163.8831673 -0.145969E-06  0.824E-03    1.33       1.2  T
   3   -163.8831671  0.223255E-06  0.207E-03    1.33       4.8  T
   4   -163.8831674 -0.240832E-06  0.104E-03    1.33       9.5  T
   5   -163.8831674 -0.340477E-07  0.381E-04    1.33      26.1  T
   6   -163.8831674 -0.728679E-08  0.139E-04    1.33      71.8  T
     SCC iter.                  ...        0 min,  0.077 sec
     gradient                   ...        0 min,  0.026 sec
 * total energy  :  -161.5468541 Eh     change       -0.1089842E-04 Eh
   gradient norm :     0.0006858 Eh/α   predicted    -0.5004806E-05 ( -54.08%)
   displ. norm   :     0.1312378 α      lambda       -0.7370977E-05
   maximum displ.:     0.0726003 α      in ANC's #6, #3, #2, ...

........................................................................
.............................. CYCLE   57 ..............................
........................................................................
   1   -163.8832836 -0.163883E+03  0.120E-02    1.33       0.0  T
   2   -163.8832838 -0.118692E-06  0.668E-03    1.33       1.5  T
   3   -163.8832837  0.697415E-07  0.142E-03    1.33       7.0  T
   4   -163.8832838 -0.857662E-07  0.731E-04    1.33      13.6  T
   5   -163.8832838 -0.160529E-07  0.277E-04    1.33      35.9  T
     SCC iter.                  ...        0 min,  0.066 sec
     gradient                   ...        0 min,  0.026 sec
 * total energy  :  -161.5468626 Eh     change       -0.8530642E-05 Eh
   gradient norm :     0.0007391 Eh/α   predicted    -0.3718629E-05 ( -56.41%)
   displ. norm   :     0.1413161 α      lambda       -0.7845686E-05
   maximum displ.:     0.0785197 α      in ANC's #6, #3, #2, ...

........................................................................
.............................. CYCLE   58 ..............................
........................................................................
   1   -163.8834568 -0.163883E+03  0.128E-02    1.33       0.0  T
   2   -163.8834569 -0.106020E-06  0.710E-03    1.33       1.4  T
   3   -163.8834568  0.334496E-07  0.125E-03    1.33       8.0  T
   4   -163.8834569 -0.400105E-07  0.737E-04    1.33      13.5  T
   5   -163.8834569 -0.229973E-07  0.221E-04    1.33      45.0  T
     SCC iter.                  ...        0 min,  0.065 sec
     gradient                   ...        0 min,  0.026 sec
 * total energy  :  -161.5468724 Eh     change       -0.9727035E-05 Eh
   gradient norm :     0.0008954 Eh/α   predicted    -0.3961919E-05 ( -59.27%)
   displ. norm   :     0.1977447 α      lambda       -0.1129790E-04
   maximum displ.:     0.1097277 α      in ANC's #6, #3, #2, ...

........................................................................
.............................. CYCLE   59 ..............................
........................................................................
   1   -163.8835485 -0.163884E+03  0.177E-02    1.33       0.0  T
   2   -163.8835487 -0.198165E-06  0.978E-03    1.33       1.0  T
   3   -163.8835487  0.256414E-07  0.162E-03    1.33       6.2  T
   4   -163.8835487 -0.282681E-07  0.994E-04    1.33      10.0  T
   5   -163.8835488 -0.540830E-07  0.240E-04    1.33      41.5  T
     SCC iter.                  ...        0 min,  0.066 sec
     gradient                   ...        0 min,  0.025 sec
 * total energy  :  -161.5468865 Eh     change       -0.1409450E-04 Eh
   gradient norm :     0.0009564 Eh/α   predicted    -0.5750136E-05 ( -59.20%)
   displ. norm   :     0.2806823 α      lambda       -0.1543134E-04
   maximum displ.:     0.1557699 α      in ANC's #6, #3, #2, ...

........................................................................
.............................. CYCLE   60 ..............................
........................................................................
   1   -163.8834049 -0.163883E+03  0.256E-02    1.33       0.0  T
   2   -163.8834053 -0.381404E-06  0.142E-02    1.33       1.0  T
   3   -163.8834052  0.651304E-07  0.233E-03    1.33       4.3  T
   4   -163.8834053 -0.496726E-07  0.154E-03    1.33       6.4  T
   5   -163.8834054 -0.124311E-06  0.377E-04    1.33      26.4  T
   6   -163.8834054 -0.936416E-08  0.138E-04    1.33      72.3  T
     SCC iter.                  ...        0 min,  0.078 sec
     gradient                   ...        0 min,  0.026 sec
 * total energy  :  -161.5469052 Eh     change       -0.1877893E-04 Eh
   gradient norm :     0.0008690 Eh/α   predicted    -0.7990609E-05 ( -57.45%)
   displ. norm   :     0.3317557 α      lambda       -0.1690982E-04
   maximum displ.:     0.1836293 α      in ANC's #6, #3, #2, ...

........................................................................
.............................. CYCLE   61 ..............................
........................................................................
   1   -163.8831984 -0.163883E+03  0.299E-02    1.33       0.0  T
   2   -163.8831989 -0.556346E-06  0.165E-02    1.33       1.0  T
   3   -163.8831988  0.177318E-06  0.294E-03    1.33       3.4  T
   4   -163.8831989 -0.140470E-06  0.197E-03    1.33       5.0  T
   5   -163.8831991 -0.196109E-06  0.494E-04    1.33      20.1  T
   6   -163.8831991 -0.164989E-07  0.178E-04    1.33      55.8  T
     SCC iter.                  ...        0 min,  0.078 sec
     gradient                   ...        0 min,  0.026 sec
 * total energy  :  -161.5469253 Eh     change       -0.2005180E-04 Eh
   gradient norm :     0.0007926 Eh/α   predicted    -0.8871245E-05 ( -55.76%)
   displ. norm   :     0.3364535 α      lambda       -0.1644682E-04
   maximum displ.:     0.1853245 α      in ANC's #6, #3, #2, ...

........................................................................
[...]
    61   1 H        0.926     0.044     2.398     2.421
    62   1 H        0.924     0.052     2.296     2.370
    63   1 H        0.924     0.052     2.298     2.371
    64   1 H        0.925     0.047     2.353     2.399
    65   1 H        0.925     0.049     2.329     2.387
    66   1 H        0.925     0.048     2.344     2.394
    67   1 H        0.926     0.035     2.521     2.483
    68   1 H        0.926     0.043     2.415     2.430
    69   1 H        0.926     0.042     2.423     2.434
    70   1 H        0.924     0.042     2.427     2.436
    71   1 H        0.924     0.049     2.329     2.387
    72   1 H        0.925     0.038     2.475     2.460
    73   1 H        0.925     0.039     2.461     2.453
    74   1 H        0.925     0.041     2.436     2.441
    75   1 H        0.924     0.052     2.295     2.369
    76   1 H        0.924     0.054     2.275     2.359
    77   1 H        0.925     0.049     2.335     2.390
    78   1 H        0.925     0.049     2.336     2.390
    79   1 H        0.925     0.048     2.346     2.395
    80   1 H        0.926     0.046     2.373     2.409
    81   1 H        0.926     0.042     2.417     2.431
    82   1 H        0.924     0.051     2.304     2.374
    83   1 H        0.924     0.054     2.273     2.358
    84   1 H        0.925     0.050     2.325     2.384
    85   1 H        0.925     0.048     2.344     2.394
    86   1 H        0.925     0.048     2.342     2.393
    87   1 H        0.926     0.043     2.415     2.430
    88   1 H        0.926     0.035     2.522     2.484
    89   1 H        0.926     0.031     2.566     2.505
    90   1 H        0.924     0.042     2.427     2.436
    91   1 H        0.924     0.056     2.251     2.347
    92   1 H        0.925     0.048     2.346     2.395
    93   1 H        0.925     0.040     2.452     2.449
    94   1 H        0.925     0.041     2.438     2.442
    95   1 H        0.925     0.048     2.350     2.397
    96   1 H        0.924     0.034     2.536     2.490
    97   1 H        0.924     0.040     2.444     2.445
    98   1 H        0.925     0.036     2.500     2.473
    99   1 H        0.925     0.040     2.451     2.448
   100   1 H        0.925     0.036     2.505     2.475
   101   1 H        0.926     0.041     2.430     2.438

 Mol. C6AA /au·bohr⁶  :     194619.599351
 Mol. C8AA /au·bohr⁸  :    6250144.386586
 Mol. α(0) /au        :        712.314826


Wiberg/Mayer (AO) data.
largest (>0.10) Wiberg bond orders for each atom

 ---------------------------------------------------------------------------
     #   Z sym  total        # sym  WBO       # sym  WBO       # sym  WBO
 ---------------------------------------------------------------------------
     1   6 C    3.908 --    10 C    1.624     2 S    1.164    61 H    0.972
     2  16 S    2.548 --     1 C    1.164     3 C    1.113    10 C    0.102
     3   6 C    3.935 --     9 C    1.311     4 C    1.289     2 S    1.113
     4   6 C    3.913 --     5 C    1.292     3 C    1.289    13 S    1.113
     5   6 C    3.951 --     4 C    1.292    11 C    1.274     6 N    1.155
     6   7 N    3.567 --     9 C    1.157     5 C    1.155     7 C    0.991
     7   6 C    3.973 --     8 C    1.005     6 N    0.991    63 H    0.971
                            62 H    0.970
     8   6 C    3.991 --     7 C    1.005    66 H    0.987    65 H    0.987
                            64 H    0.984
     9   6 C    3.931 --     3 C    1.311    10 C    1.239     6 N    1.157
    10   6 C    3.983 --     1 C    1.624     9 C    1.239    67 H    0.963
                             2 S    0.102
    11   6 C    3.960 --    12 C    1.487     5 C    1.274    68 H    0.947
    12   6 C    3.925 --    11 C    1.487    14 C    1.182    13 S    1.084
    13  16 S    2.507 --     4 C    1.113    12 C    1.084
    14   6 C    3.933 --    15 C    1.493    12 C    1.182    20 Se   1.105
    15   6 C    3.966 --    14 C    1.493    16 C    1.288    69 H    0.957
    16   6 C    3.961 --    19 C    1.457    15 C    1.288    17 C    1.009
    17   6 C    3.996 --    16 C    1.009    18 C    0.998    70 H    0.971
                            71 H    0.959
    18   6 C    3.993 --    17 C    0.998    72 H    0.988    74 H    0.986
                            73 H    0.986
    19   6 C    3.934 --    16 C    1.457    21 C    1.189    20 Se   1.093
    20  34 Se   2.619 --    14 C    1.105    19 C    1.093
    21   6 C    3.914 --    30 C    1.471    19 C    1.189    22 S    1.086
    22  16 S    2.518 --    23 C    1.108    21 C    1.086
    23   6 C    3.920 --    24 C    1.304    29 C    1.277    22 S    1.108
    24   6 C    3.919 --    23 C    1.304    25 C    1.282    33 S    1.108
    25   6 C    3.932 --    24 C    1.282    31 C    1.281    26 N    1.154
    26   7 N    3.560 --    29 C    1.154    25 C    1.154    27 C    0.990
    27   6 C    3.972 --    28 C    1.005    26 N    0.990    76 H    0.971
                            75 H    0.970
    28   6 C    3.991 --    27 C    1.005    77 H    0.987    78 H    0.987
                            79 H    0.984
    29   6 C    3.933 --    30 C    1.287    23 C    1.277    26 N    1.154
    30   6 C    3.958 --    21 C    1.471    29 C    1.287    80 H    0.938
    31   6 C    3.956 --    32 C    1.483    25 C    1.281    81 H    0.958
    32   6 C    3.913 --    31 C    1.483    34 C    1.186    33 S    1.084
    33  16 S    2.493 --    24 C    1.108    32 C    1.084
    34   6 C    3.914 --    43 C    1.484    32 C    1.186    35 S    1.085
    35  16 S    2.494 --    36 C    1.108    34 C    1.085
    36   6 C    3.919 --    37 C    1.305    42 C    1.282    35 S    1.108
    37   6 C    3.921 --    36 C    1.305    38 C    1.279    46 S    1.106
    38   6 C    3.934 --    44 C    1.282    37 C    1.279    39 N    1.154
    39   7 N    3.561 --    42 C    1.155    38 C    1.154    40 C    0.990
    40   6 C    3.972 --    41 C    1.005    39 N    0.990    83 H    0.971
                            82 H    0.971
    41   6 C    3.991 --    40 C    1.005    84 H    0.987    86 H    0.987
                            85 H    0.984
    42   6 C    3.933 --    36 C    1.282    43 C    1.279    39 N    1.155
    43   6 C    3.955 --    34 C    1.484    42 C    1.279    87 H    0.958
    44   6 C    3.963 --    45 C    1.476    38 C    1.282    88 H    0.961
    45   6 C    3.915 --    44 C    1.476    47 C    1.179    46 S    1.098
    46  16 S    2.518 --    37 C    1.106    45 C    1.098
    47   6 C    3.943 --    48 C    1.478    45 C    1.179    53 Se   1.130
    48   6 C    3.962 --    47 C    1.478    49 C    1.291    89 H    0.961
    49   6 C    3.984 --    52 C    1.457    48 C    1.291    50 C    1.010
    50   6 C    3.996 --    49 C    1.010    51 C    1.000    90 H    0.971
                            91 H    0.940
    51   6 C    3.994 --    50 C    1.000    93 H    0.987    94 H    0.985
                            92 H    0.973
    52   6 C    3.934 --    49 C    1.457    54 C    1.168    53 Se   1.110
    53  34 Se   2.684 --    47 C    1.130    52 C    1.110
    54   6 C    3.960 --    55 C    1.502    52 C    1.168    60 Se   1.127
    55   6 C    3.966 --    54 C    1.502    56 C    1.266    95 H    0.934
    56   6 C    3.984 --    59 C    1.577    55 C    1.266    57 C    1.006
    57   6 C    3.997 --    56 C    1.006    58 C    1.002    96 H    0.977
                            97 H    0.969
    58   6 C    3.996 --    57 C    1.002   100 H    0.989    99 H    0.988
                            98 H    0.986
    59   6 C    3.930 --    56 C    1.577    60 Se   1.202   101 H    0.959
    60  34 Se   2.755 --    59 C    1.202    54 C    1.127
    61   1 H    0.997 --     1 C    0.972
    62   1 H    0.996 --     7 C    0.970
    63   1 H    0.996 --     7 C    0.971
    64   1 H    0.997 --     8 C    0.984
    65   1 H    0.998 --     8 C    0.987
    66   1 H    0.998 --     8 C    0.987
    67   1 H    0.998 --    10 C    0.963
    68   1 H    0.998 --    11 C    0.947
    69   1 H    0.998 --    15 C    0.957
    70   1 H    0.997 --    17 C    0.971
    71   1 H    0.997 --    17 C    0.959
    72   1 H    0.998 --    18 C    0.988
    73   1 H    0.997 --    18 C    0.986
    74   1 H    0.998 --    18 C    0.986
    75   1 H    0.996 --    27 C    0.970
    76   1 H    0.996 --    27 C    0.971
    77   1 H    0.998 --    28 C    0.987
    78   1 H    0.998 --    28 C    0.987
    79   1 H    0.997 --    28 C    0.984
    80   1 H    0.997 --    30 C    0.938
    81   1 H    0.998 --    31 C    0.958
    82   1 H    0.996 --    40 C    0.971
    83   1 H    0.996 --    40 C    0.971
    84   1 H    0.998 --    41 C    0.987
    85   1 H    0.997 --    41 C    0.984
    86   1 H    0.998 --    41 C    0.987
    87   1 H    0.998 --    43 C    0.958
    88   1 H    0.998 --    44 C    0.961
    89   1 H    0.998 --    48 C    0.961
    90   1 H    0.997 --    50 C    0.971
    91   1 H    0.996 --    50 C    0.940
    92   1 H    0.998 --    51 C    0.973
    93   1 H    0.998 --    51 C    0.987
    94   1 H    0.997 --    51 C    0.985
    95   1 H    0.998 --    55 C    0.934
    96   1 H    0.999 --    57 C    0.977
    97   1 H    0.998 --    57 C    0.969
    98   1 H    0.998 --    58 C    0.986
    99   1 H    0.998 --    58 C    0.988
   100   1 H    0.999 --    58 C    0.989
   101   1 H    0.998 --    59 C    0.959
 ---------------------------------------------------------------------------

Topologies differ in bond orders
Writing corrected topology to xtbtopo.mol

molecular dipole:
                 x           y           z       tot (Debye)
 q only:        0.513      -0.495       0.017
   full:        0.796      -0.703       0.053       2.703
molecular quadrupole (traceless):
                xx          xy          yy          xz          yz          zz
 q only:       72.873     -22.192     -57.590      11.238      -6.819     -15.283
  q+dip:       97.131     -20.944     -73.764      10.411      -7.647     -23.367
   full:       94.237     -21.135     -76.565      10.276     -10.684     -17.672

           -------------------------------------------------
          |                Geometry Summary                 |
           -------------------------------------------------

      molecular mass/u    :     1089.1278937
   center of mass at/Å    :       -0.3985469      -0.6569830      -0.1955393
  moments of inertia/u·Å² :        0.4689019E+04   0.1136703E+06   0.1175268E+06
rotational constants/cm⁻¹ :        0.3595130E-02   0.1483029E-03   0.1434365E-03

 * 103 selected distances

     #   Z          #   Z                                           value/Å
     1   6 C        2  16 S                                       1.7355398
     2  16 S        3   6 C                                       1.7263541
     3   6 C        4   6 C                                       1.3982509
     4   6 C        5   6 C                                       1.4082233
     5   6 C        6   7 N                                       1.3706044
     6   7 N        7   6 C                                       1.4387496
     7   6 C        8   6 C                                       1.5279519
     3   6 C        9   6 C                                       1.4060095
     6   7 N        9   6 C                                       1.3707098
     1   6 C       10   6 C                                       1.3596384
     9   6 C       10   6 C                                       1.4089661
     5   6 C       11   6 C                                       1.3999364
    11   6 C       12   6 C                                       1.3758118
     4   6 C       13  16 S                                       1.7250864
    12   6 C       14   6 C                                       1.4198024
    14   6 C       15   6 C                                       1.3704203
    15   6 C       16   6 C                                       1.4094244
    17   6 C       18   6 C                                       1.5298786
    16   6 C       19   6 C                                       1.3808435
    14   6 C       20  34 Se                                      1.8805784
    19   6 C       21   6 C                                       1.4237112
    22  16 S       23   6 C                                       1.7245799
    23   6 C       24   6 C                                       1.3949853
    24   6 C       25   6 C                                       1.4101879
    25   6 C       26   7 N                                       1.3708674
    26   7 N       27   6 C                                       1.4388582
    27   6 C       28   6 C                                       1.5278270
    23   6 C       29   6 C                                       1.4095784
    26   7 N       29   6 C                                       1.3703726
    21   6 C       30   6 C                                       1.3803212
    29   6 C       30   6 C                                       1.3961331
    25   6 C       31   6 C                                       1.3985944
    31   6 C       32   6 C                                       1.3766767
    24   6 C       33  16 S                                       1.7258164
    32   6 C       34   6 C                                       1.4193144
    35  16 S       36   6 C                                       1.7259566
    36   6 C       37   6 C                                       1.3949794
    37   6 C       38   6 C                                       1.4104901
    38   6 C       39   7 N                                       1.3708892
    39   7 N       40   6 C                                       1.4389001
    40   6 C       41   6 C                                       1.5277898
    36   6 C       42   6 C                                       1.4099977
    39   7 N       42   6 C                                       1.3702587
    34   6 C       43   6 C                                       1.3765677
    42   6 C       43   6 C                                       1.3988055
    38   6 C       44   6 C                                       1.3987043
    44   6 C       45   6 C                                       1.3781148
    37   6 C       46  16 S                                       1.7251609
    45   6 C       46  16 S                                       1.7597875
    45   6 C       47   6 C                                       1.4223042
    47   6 C       48   6 C                                       1.3734213
    48   6 C       49   6 C                                       1.4090218
    50   6 C       51   6 C                                       1.5288888
    49   6 C       52   6 C                                       1.3810401
    47   6 C       53  34 Se                                      1.8751442
    52   6 C       54   6 C                                       1.4297876
    54   6 C       55   6 C                                       1.3738478
    55   6 C       56   6 C                                       1.4123609
    57   6 C       58   6 C                                       1.5293106
    56   6 C       59   6 C                                       1.3613430
    54   6 C       60  34 Se                                      1.8882210 (max)
    59   6 C       60  34 Se                                      1.8504272
     1   6 C       61   1 H                                       1.0717540 (min)
     7   6 C       62   1 H                                       1.0937560
     7   6 C       63   1 H                                       1.0933419
     8   6 C       64   1 H                                       1.0865390
     8   6 C       65   1 H                                       1.0874762
     8   6 C       66   1 H                                       1.0875376
    10   6 C       67   1 H                                       1.0749408
    11   6 C       68   1 H                                       1.0781455
    15   6 C       69   1 H                                       1.0782675
    17   6 C       70   1 H                                       1.0921832
    17   6 C       71   1 H                                       1.0907736
    18   6 C       72   1 H                                       1.0879492
    18   6 C       73   1 H                                       1.0869918
    18   6 C       74   1 H                                       1.0870597
    27   6 C       75   1 H                                       1.0937446
    27   6 C       76   1 H                                       1.0931187
    28   6 C       77   1 H                                       1.0875412
    28   6 C       78   1 H                                       1.0876239
    28   6 C       79   1 H                                       1.0864528
    30   6 C       80   1 H                                       1.0789779
    31   6 C       81   1 H                                       1.0750337
    40   6 C       82   1 H                                       1.0937442
    40   6 C       83   1 H                                       1.0932014
    41   6 C       84   1 H                                       1.0874067
    41   6 C       85   1 H                                       1.0865108
    41   6 C       86   1 H                                       1.0876213
    43   6 C       87   1 H                                       1.0750508
    44   6 C       88   1 H                                       1.0742505
    48   6 C       89   1 H                                       1.0773449
    50   6 C       90   1 H                                       1.0922060
    50   6 C       91   1 H                                       1.0955113
    51   6 C       92   1 H                                       1.0892301
    51   6 C       93   1 H                                       1.0878611
    51   6 C       94   1 H                                       1.0872046
    55   6 C       95   1 H                                       1.0824442
    57   6 C       96   1 H                                       1.0917110
    57   6 C       97   1 H                                       1.0926370
    58   6 C       98   1 H                                       1.0874951
    58   6 C       99   1 H                                       1.0875143
    58   6 C      100   1 H                                       1.0879226
    59   6 C      101   1 H                                       1.0750814

 * 5 distinct bonds (by element types)

   Z      Z             #   av. dist./Å        max./Å        min./Å
   1 H    6 C          41     1.0861258     1.0955113     1.0717540
   6 C    6 C          41     1.4158357     1.5298786     1.3596384
   6 C    7 N           9     1.3933567     1.4389001     1.3702587
   6 C   16 S           8     1.7310352     1.7597875     1.7245799
   6 C   34 Se          4     1.8735927     1.8882210     1.8504272


optimized geometry written to: xtbopt.mol


           -------------------------------------------------
          | TOTAL ENERGY             -161.547024042066 Eh   |
          | GRADIENT NORM               0.000354754774 Eh/α |
          | HOMO-LUMO GAP               1.333016487346 eV   |
           -------------------------------------------------

------------------------------------------------------------------------
 * finished run on 2022/03/01 at 01:32:02.719     
------------------------------------------------------------------------
 total:
 * wall-time:     0 d,  0 h,  0 min,  9.486 sec
 *  cpu-time:     0 d,  0 h,  1 min, 15.150 sec
 * ratio c/w:     7.922 speedup
 SCF:
 * wall-time:     0 d,  0 h,  0 min,  0.227 sec
 *  cpu-time:     0 d,  0 h,  0 min,  1.800 sec
 * ratio c/w:     7.943 speedup
 ANC optimizer:
 * wall-time:     0 d,  0 h,  0 min,  8.988 sec
 *  cpu-time:     0 d,  0 h,  1 min, 11.847 sec
 * ratio c/w:     7.994 speedup

