      -----------------------------------------------------------      
     |                   =====================                   |     
     |                           x T B                           |     
     |                   =====================                   |     
     |                         S. Grimme                         |     
     |          Mulliken Center for Theoretical Chemistry        |     
     |                    University of Bonn                     |     
      -----------------------------------------------------------      

   * xtb version 6.4.1 (unknown) compiled by 'oda6@login1.crc.pitt.edu' on 2021-06-25

   xtb is free software: you can redistribute it and/or modify it under
   the terms of the GNU Lesser General Public License as published by
   the Free Software Foundation, either version 3 of the License, or
   (at your option) any later version.
   
   xtb is distributed in the hope that it will be useful,
   but WITHOUT ANY WARRANTY; without even the implied warranty of
   MERCHANTABILITY or FITNESS FOR A PARTICULAR PURPOSE.  See the
   GNU Lesser General Public License for more details.
   
   Cite this work as:
   * C. Bannwarth, E. Caldeweyher, S. Ehlert, A. Hansen, P. Pracht,
     J. Seibert, S. Spicher, S. Grimme, WIREs Comput. Mol. Sci., 2020, 11,
     e01493. DOI: 10.1002/wcms.1493
   
   for GFN2-xTB:
   * C. Bannwarth, S. Ehlert and S. Grimme., J. Chem. Theory Comput., 2019,
     15, 1652-1671. DOI: 10.1021/acs.jctc.8b01176
   for GFN1-xTB:
   * S. Grimme, C. Bannwarth, P. Shushkov, J. Chem. Theory Comput., 2017,
     13, 1989-2009. DOI: 10.1021/acs.jctc.7b00118
   for GFN0-xTB:
   * P. Pracht, E. Caldeweyher, S. Ehlert, S. Grimme, ChemRxiv, 2019, preprint.
     DOI: 10.26434/chemrxiv.8326202.v1
   for GFN-FF:
   * S. Spicher and S. Grimme, Angew. Chem. Int. Ed., 2020, 59, 15665-15673.
     DOI: 10.1002/anie.202004239
   
   for DFT-D4:
   * E. Caldeweyher, C. Bannwarth and S. Grimme, J. Chem. Phys., 2017,
     147, 034112. DOI: 10.1063/1.4993215
   * E. Caldeweyher, S. Ehlert, A. Hansen, H. Neugebauer, S. Spicher,
     C. Bannwarth and S. Grimme, J. Chem. Phys., 2019, 150, 154122.
     DOI: 10.1063/1.5090222
   * E. Caldeweyher, J.-M. Mewes, S. Ehlert and S. Grimme, Phys. Chem. Chem. Phys.
     2020, 22, 8499-8512. DOI: 10.1039/D0CP00502A
   
   for sTDA-xTB:
   * S. Grimme and C. Bannwarth, J. Chem. Phys., 2016, 145, 054103.
     DOI: 10.1063/1.4959605
   
   in the mass-spec context:
   * V. Asgeirsson, C. Bauer and S. Grimme, Chem. Sci., 2017, 8, 4879.
     DOI: 10.1039/c7sc00601b
   * J. Koopman and S. Grimme, ACS Omega 2019, 4, 12, 15120-15133.
     DOI: 10.1021/acsomega.9b02011
   
   for metadynamics refer to:
   * S. Grimme, J. Chem. Theory Comput., 2019, 155, 2847-2862
     DOI: 10.1021/acs.jctc.9b00143
   
   for SPH calculations refer to:
   * S. Spicher and S. Grimme, J. Chem. Theory Comput., 2021, 17, 1701-1714
     DOI: 10.1021/acs.jctc.0c01306
   
   with help from (in alphabetical order)
   P. Atkinson, C. Bannwarth, F. Bohle, G. Brandenburg, E. Caldeweyher
   M. Checinski, S. Dohm, S. Ehlert, S. Ehrlich, I. Gerasimov, J. Koopman
   C. Lavigne, S. Lehtola, F. März, M. Müller, F. Musil, H. Neugebauer
   J. Pisarek, C. Plett, P. Pracht, J. Seibert, P. Shushkov, S. Spicher
   M. Stahn, M. Steiner, T. Strunk, J. Stückrath, T. Rose, and J. Unsleber
   
 * started run on 2022/02/28 at 23:18:33.721     

           -------------------------------------------------
          |                Calculation Setup                |
           -------------------------------------------------

          program call               : /ihome/ghutchison/oda6/xtb/xtb-641/bin/xtb ../../FF_optimized/49_61_110100.mol -opt
          hostname                   : smp-n90
          coordinate file            : ../../FF_optimized/49_61_110100.mol
          omp threads                :                     8
          number of atoms            :                   167
          number of electrons        :                   566
          charge                     :                     0
          spin                       :                   0.0
          first test random number   :      0.87897788207657

   ID    Z sym.   atoms
    1    6 C      1-5, 7-10, 12, 14-17, 19-23, 26, 28, 29, 31-35, 37-40, 42,
                  44-47, 49-53, 56, 58, 59, 61-66, 68-72, 74-77, 79, 81-84,
                  86-90, 93, 95, 96, 98-103, 105-110
    2   16 S      6, 18, 27, 30, 36, 48, 57, 60, 73, 85, 94, 97
    3   17 Cl     11, 13, 24, 25, 41, 43, 54, 55, 78, 80, 91, 92
    4   34 Se     67, 104, 111
    5    1 H      112-167

molecular fragmentation (1/2 indicates fragments):
111111111111111111111111111111111111111111111111111111111111111111111111
111111111111111111111111111111111111111111111111111111111111111111111111
11111111112111112111111
# atoms in fragment 1/2:   165     2
 fragment masses (1/2) :     2110.42        2.02
CMA distance (Bohr)    :  19.105
constraining FC (au)   :  0.0500
########################################################################
[WARNING] Please study the warnings concerning your input carefully
-1- prog_main_parseArguments: the use of '-opt' is discouraged, please use '--opt' next time
########################################################################

           -------------------------------------------------
          |                 G F N 2 - x T B                 |
           -------------------------------------------------

        Reference                      10.1021/acs.jctc.8b01176
      * Hamiltonian:
        H0-scaling (s, p, d)           1.850000    2.230000    2.230000
        zeta-weighting                 0.500000
      * Dispersion:
        s8                             2.700000
        a1                             0.520000
        a2                             5.000000
        s9                             5.000000
      * Repulsion:
        kExp                           1.500000    1.000000
        rExp                           1.000000
      * Coulomb:
        alpha                          2.000000
        third order                    shell-resolved
        anisotropic                    true
        a3                             3.000000
        a5                             4.000000
        cn-shift                       1.200000
        cn-exp                         4.000000
        max-rad                        5.000000


          ...................................................
          :                      SETUP                      :
          :.................................................:
          :  # basis functions                 662          :
          :  # atomic orbitals                 635          :
          :  # shells                          305          :
          :  # electrons                       566          :
          :  max. iterations                   250          :
          :  Hamiltonian                  GFN2-xTB          :
          :  restarted?                      false          :
          :  GBSA solvation                  false          :
          :  PC potential                    false          :
          :  electronic temp.          300.0000000     K    :
          :  accuracy                    1.0000000          :
          :  -> integral cutoff          0.2500000E+02      :
          :  -> integral neglect         0.1000000E-07      :
          :  -> SCF convergence          0.1000000E-05 Eh   :
          :  -> wf. convergence          0.1000000E-03 e    :
          :  Broyden damping             0.4000000          :
          ...................................................

 iter      E             dE          RMSdq      gap      omega  full diag
   1   -314.9019419 -0.314902E+03  0.442E+00    1.43       0.0  T
   2   -315.2131601 -0.311218E+00  0.238E+00    1.31       1.0  T
   3   -315.1257771  0.873831E-01  0.121E+00    1.38       1.0  T
   4   -315.1797585 -0.539814E-01  0.742E-01    1.32       1.0  T
   5   -315.2584648 -0.787063E-01  0.215E-01    1.33       1.0  T
   6   -315.2594932 -0.102837E-02  0.133E-01    1.33       1.0  T
   7   -315.2603966 -0.903405E-03  0.887E-02    1.33       1.0  T
   8   -315.2607598 -0.363197E-03  0.657E-02    1.33       1.0  T
   9   -315.2609343 -0.174522E-03  0.438E-02    1.34       1.0  T
  10   -315.2610485 -0.114157E-03  0.253E-02    1.33       1.0  T
  11   -315.2610881 -0.395796E-04  0.133E-02    1.33       1.0  T
  12   -315.2610975 -0.946025E-05  0.739E-03    1.33       1.0  T
  13   -315.2611003 -0.275584E-05  0.454E-03    1.33       1.7  T
  14   -315.2611018 -0.152316E-05  0.238E-03    1.33       3.2  T
  15   -315.2611020 -0.243595E-06  0.144E-03    1.33       5.4  T
  16   -315.2611021 -0.858650E-07  0.979E-04    1.33       7.9  T
  17   -315.2611022 -0.438679E-07  0.702E-04    1.33      11.0  T

   *** convergence criteria satisfied after 17 iterations ***

         #    Occupation            Energy/Eh            Energy/eV
      -------------------------------------------------------------
         1        2.0000           -1.0641731             -28.9576
       ...           ...                  ...                  ...
       277        2.0000           -0.3903759             -10.6227
       278        2.0000           -0.3862960             -10.5116
       279        2.0000           -0.3840442             -10.4504
       280        2.0000           -0.3766054             -10.2480
       281        2.0000           -0.3697443             -10.0613
       282        2.0000           -0.3664060              -9.9704
       283        2.0000           -0.3643117              -9.9134 (HOMO)
       284                         -0.3153020              -8.5798 (LUMO)
       285                         -0.3102058              -8.4411
       286                         -0.3016564              -8.2085
       287                         -0.2892172              -7.8700
       288                         -0.2803032              -7.6274
       ...                                ...                  ...
       635                          0.9474093              25.7803
      -------------------------------------------------------------
                  HL-Gap            0.0490097 Eh            1.3336 eV
             Fermi-level           -0.3397582 Eh           -9.2453 eV

 SCC (total)                   0 d,  0 h,  0 min,  0.786 sec
 SCC setup                      ...        0 min,  0.003 sec (  0.382%)
 Dispersion                     ...        0 min,  0.006 sec (  0.724%)
 classical contributions        ...        0 min,  0.000 sec (  0.033%)
 integral evaluation            ...        0 min,  0.037 sec (  4.730%)
 iterations                     ...        0 min,  0.637 sec ( 81.027%)
 molecular gradient             ...        0 min,  0.100 sec ( 12.674%)
 printout                       ...        0 min,  0.003 sec (  0.419%)

         :::::::::::::::::::::::::::::::::::::::::::::::::::::
         ::                     SUMMARY                     ::
         :::::::::::::::::::::::::::::::::::::::::::::::::::::
         :: total energy            -311.237795289636 Eh    ::
         :: gradient norm              0.633893640634 Eh/a0 ::
         :: HOMO-LUMO gap              1.333621468910 eV    ::
         ::.................................................::
         :: SCC energy              -315.261102168637 Eh    ::
         :: -> isotropic ES            0.061755581727 Eh    ::
         :: -> anisotropic ES         -0.012396691140 Eh    ::
         :: -> anisotropic XC          0.096625953111 Eh    ::
         :: -> dispersion             -0.299917990343 Eh    ::
         :: repulsion energy           4.022774084166 Eh    ::
         :: add. restraining           0.000000000000 Eh    ::
         :: total charge               0.000000000001 e     ::
         :::::::::::::::::::::::::::::::::::::::::::::::::::::

      ----------------------------------------------------------- 
     |                   =====================                   |
     |                        A N C O P T                        |
     |                   =====================                   |
     |               Approximate Normal Coordinate               |
     |                Rational Function Optimizer                |
      ----------------------------------------------------------- 

          ...................................................
          :                      SETUP                      :
          :.................................................:
          :   optimization level            normal          :
          :   max. optcycles                   501          :
          :   ANC micro-cycles                  20          :
          :   degrees of freedom               495          :
          :.................................................:
          :   RF solver                   davidson          :
          :   write xtbopt.log                true          :
          :   linear?                        false          :
          :   energy convergence         0.5000000E-05 Eh   :
          :   grad. convergence          0.1000000E-02 Eh/α :
          :   maximium RF displ.         1.0000000          :
          :   Hlow (freq-cutoff)         0.1000000E-01      :
          :   Hmax (freq-cutoff)         5.0000000          :
          :   S6 in model hess.         20.0000000          :
          ...................................................

generating ANC from model Hessian ...
Using Lindh-Hessian (1995)
 Shifting diagonal of input Hessian by   9.996645278907911E-003
 Lowest  eigenvalues of input Hessian
    0.000000    0.000000    0.000000    0.000000    0.000000    0.000000
    0.010000    0.010006    0.010009    0.010011    0.010024    0.010043
    0.010068    0.010074    0.010092    0.010115    0.010125    0.010171
 Highest eigenvalues
    2.193722    2.207393    2.230906    2.286211    2.294168    2.309668
 

........................................................................
.............................. CYCLE    1 ..............................
........................................................................
   1   -315.2611022 -0.315261E+03  0.435E-04    1.33       0.0  T
   2   -315.2611022 -0.955310E-09  0.391E-04    1.33      19.8  T
   3   -315.2611022 -0.114363E-07  0.293E-04    1.33      26.4  T
     SCC iter.                  ...        0 min,  0.121 sec
     gradient                   ...        0 min,  0.098 sec
 * total energy  :  -311.2377953 Eh     change       -0.3917745E-07 Eh
   gradient norm :     0.6338943 Eh/α   predicted     0.0000000E+00 (-100.00%)
   displ. norm   :     0.5614494 α      lambda       -0.3037560E+00
   maximum displ.:     0.1551324 α      in ANC's #430, #301, #302, ...

........................................................................
.............................. CYCLE    2 ..............................
........................................................................
   1   -315.3074376 -0.315307E+03  0.513E-01    1.36       0.0  T
   2   -315.3091317 -0.169418E-02  0.289E-01    1.36       1.0  T
   3   -315.3076439  0.148780E-02  0.128E-01    1.35       1.0  T
   4   -315.3094416 -0.179768E-02  0.620E-02    1.36       1.0  T
   5   -315.3096977 -0.256087E-03  0.329E-02    1.36       1.0  T
   6   -315.3097528 -0.551379E-04  0.171E-02    1.36       1.0  T
   7   -315.3097707 -0.178558E-04  0.108E-02    1.36       1.0  T
   8   -315.3097746 -0.388980E-05  0.817E-03    1.36       1.0  T
   9   -315.3097774 -0.281706E-05  0.508E-03    1.36       1.5  T
  10   -315.3097795 -0.212714E-05  0.272E-03    1.36       2.8  T
  11   -315.3097800 -0.455990E-06  0.157E-03    1.36       4.9  T
  12   -315.3097801 -0.109396E-06  0.995E-04    1.36       7.8  T
  13   -315.3097801 -0.453090E-07  0.546E-04    1.36      14.2  T
     SCC iter.                  ...        0 min,  0.473 sec
     gradient                   ...        0 min,  0.097 sec
 * total energy  :  -311.4710607 Eh     change       -0.2332654E+00 Eh
   gradient norm :     0.3342108 Eh/α   predicted    -0.1997739E+00 ( -14.36%)
   displ. norm   :     0.5705157 α      lambda       -0.1586422E+00
   maximum displ.:     0.1249602 α      in ANC's #430, #301, #328, ...

........................................................................
.............................. CYCLE    3 ..............................
........................................................................
   1   -315.3341687 -0.315334E+03  0.444E-01    1.39       0.0  T
   2   -315.3355947 -0.142609E-02  0.258E-01    1.39       1.0  T
   3   -315.3336119  0.198289E-02  0.143E-01    1.38       1.0  T
   4   -315.3364324 -0.282052E-02  0.570E-02    1.39       1.0  T
   5   -315.3365802 -0.147800E-03  0.351E-02    1.39       1.0  T
   6   -315.3366503 -0.701529E-04  0.204E-02    1.39       1.0  T
   7   -315.3366698 -0.194242E-04  0.144E-02    1.39       1.0  T
   8   -315.3366768 -0.701498E-05  0.104E-02    1.39       1.0  T
   9   -315.3366829 -0.609197E-05  0.583E-03    1.39       1.3  T
  10   -315.3366859 -0.303342E-05  0.264E-03    1.39       2.9  T
  11   -315.3366863 -0.431696E-06  0.149E-03    1.39       5.2  T
  12   -315.3366864 -0.104458E-06  0.906E-04    1.39       8.5  T
  13   -315.3366865 -0.305808E-07  0.517E-04    1.39      15.0  T
     SCC iter.                  ...        0 min,  0.483 sec
     gradient                   ...        0 min,  0.098 sec
 * total energy  :  -311.5797882 Eh     change       -0.1087275E+00 Eh
   gradient norm :     0.1172577 Eh/α   predicted    -0.1051392E+00 (  -3.30%)
   displ. norm   :     0.6273196 α      lambda       -0.5208826E-01
   maximum displ.:     0.1463233 α      in ANC's #93, #91, #96, ...

........................................................................
.............................. CYCLE    4 ..............................
........................................................................
   1   -315.3413009 -0.315341E+03  0.285E-01    1.40       0.0  T
   2   -315.3416055 -0.304600E-03  0.162E-01    1.40       1.0  T
   3   -315.3405425  0.106299E-02  0.921E-02    1.40       1.0  T
   4   -315.3418939 -0.135140E-02  0.326E-02    1.40       1.0  T
   5   -315.3419288 -0.349580E-04  0.208E-02    1.40       1.0  T
   6   -315.3419598 -0.309279E-04  0.117E-02    1.39       1.0  T
   7   -315.3419653 -0.550248E-05  0.874E-03    1.40       1.0  T
   8   -315.3419685 -0.322081E-05  0.534E-03    1.40       1.4  T
   9   -315.3419704 -0.194221E-05  0.279E-03    1.40       2.8  T
  10   -315.3419710 -0.599528E-06  0.149E-03    1.40       5.2  T
  11   -315.3419711 -0.107235E-06  0.103E-03    1.40       7.5  T
  12   -315.3419712 -0.469392E-07  0.591E-04    1.40      13.1  T
  13   -315.3419712 -0.134933E-07  0.348E-04    1.40      22.2  T
     SCC iter.                  ...        0 min,  0.485 sec
     gradient                   ...        0 min,  0.097 sec
 * total energy  :  -311.6174473 Eh     change       -0.3765909E-01 Eh
   gradient norm :     0.0463125 Eh/α   predicted    -0.3629329E-01 (  -3.63%)
   displ. norm   :     0.6748381 α      lambda       -0.2336915E-01
   maximum displ.:     0.1826424 α      in ANC's #93, #89, #46, ...

........................................................................
.............................. CYCLE    5 ..............................
........................................................................
   1   -315.3621549 -0.315362E+03  0.176E-01    1.41       0.0  T
   2   -315.3622211 -0.661542E-04  0.960E-02    1.40       1.0  T
   3   -315.3619987  0.222376E-03  0.416E-02    1.40       1.0  T
   4   -315.3622588 -0.260107E-03  0.168E-02    1.40       1.0  T
   5   -315.3622683 -0.950994E-05  0.968E-03    1.40       1.0  T
   6   -315.3622767 -0.838616E-05  0.538E-03    1.40       1.4  T
   7   -315.3622777 -0.101756E-05  0.425E-03    1.40       1.8  T
   8   -315.3622785 -0.793537E-06  0.252E-03    1.40       3.1  T
   9   -315.3622790 -0.441933E-06  0.137E-03    1.40       5.7  T
  10   -315.3622791 -0.124040E-06  0.848E-04    1.40       9.1  T
  11   -315.3622791 -0.363636E-07  0.475E-04    1.40      16.3  T
     SCC iter.                  ...        0 min,  0.403 sec
     gradient                   ...        0 min,  0.097 sec
 * total energy  :  -311.6358078 Eh     change       -0.1836048E-01 Eh
   gradient norm :     0.0252191 Eh/α   predicted    -0.1700581E-01 (  -7.38%)
   displ. norm   :     0.7227834 α      lambda       -0.1471006E-01
   maximum displ.:     0.2061898 α      in ANC's #46, #89, #93, ...

........................................................................
.............................. CYCLE    6 ..............................
........................................................................
   1   -315.3974459 -0.315397E+03  0.130E-01    1.41       0.0  T
   2   -315.3974842 -0.383584E-04  0.716E-02    1.41       1.0  T
   3   -315.3973925  0.916824E-04  0.291E-02    1.41       1.0  T
   4   -315.3975052 -0.112705E-03  0.116E-02    1.41       1.0  T
   5   -315.3975076 -0.231101E-05  0.677E-03    1.41       1.1  T
   6   -315.3975111 -0.356781E-05  0.400E-03    1.41       1.9  T
   7   -315.3975117 -0.525355E-06  0.311E-03    1.41       2.5  T
   8   -315.3975121 -0.429531E-06  0.183E-03    1.41       4.2  T
   9   -315.3975123 -0.225168E-06  0.103E-03    1.41       7.5  T
  10   -315.3975124 -0.756328E-07  0.568E-04    1.41      13.6  T
  11   -315.3975124 -0.167271E-07  0.330E-04    1.41      23.4  T
     SCC iter.                  ...        0 min,  0.401 sec
     gradient                   ...        0 min,  0.097 sec
 * total energy  :  -311.6477948 Eh     change       -0.1198698E-01 Eh
   gradient norm :     0.0190717 Eh/α   predicted    -0.1119743E-01 (  -6.59%)
   displ. norm   :     0.7405161 α      lambda       -0.1007853E-01
   maximum displ.:     0.2391367 α      in ANC's #46, #89, #69, ...

........................................................................
.............................. CYCLE    7 ..............................
........................................................................
   1   -315.4351431 -0.315435E+03  0.109E-01    1.42       0.0  T
   2   -315.4351691 -0.259961E-04  0.607E-02    1.41       1.0  T
   3   -315.4350772  0.919435E-04  0.282E-02    1.42       1.0  T
   4   -315.4351869 -0.109685E-03  0.974E-03    1.42       1.0  T
   5   -315.4351877 -0.835195E-06  0.578E-03    1.42       1.3  T
   6   -315.4351908 -0.306843E-05  0.301E-03    1.42       2.6  T
   7   -315.4351910 -0.278578E-06  0.232E-03    1.42       3.3  T
   8   -315.4351912 -0.192824E-06  0.155E-03    1.42       5.0  T
   9   -315.4351914 -0.143693E-06  0.869E-04    1.42       8.9  T
  10   -315.4351914 -0.536077E-07  0.415E-04    1.42      18.6  T
     SCC iter.                  ...        0 min,  0.360 sec
     gradient                   ...        0 min,  0.098 sec
 * total energy  :  -311.6560820 Eh     change       -0.8287251E-02 Eh
   gradient norm :     0.0157217 Eh/α   predicted    -0.7802637E-02 (  -5.85%)
   displ. norm   :     0.7371195 α      lambda       -0.6973418E-02
   maximum displ.:     0.2528837 α      in ANC's #46, #89, #69, ...

........................................................................
.............................. CYCLE    8 ..............................
........................................................................
   1   -315.4674069 -0.315467E+03  0.975E-02    1.42       0.0  T
   2   -315.4674246 -0.177082E-04  0.547E-02    1.41       1.0  T
   3   -315.4673432  0.814287E-04  0.260E-02    1.42       1.0  T
   4   -315.4674373 -0.941378E-04  0.823E-03    1.42       1.0  T
   5   -315.4674382 -0.894824E-06  0.461E-03    1.42       1.7  T
   6   -315.4674404 -0.212450E-05  0.211E-03    1.42       3.7  T
   7   -315.4674405 -0.158990E-06  0.163E-03    1.42       4.8  T
   8   -315.4674406 -0.791798E-07  0.117E-03    1.42       6.6  T
   9   -315.4674407 -0.722953E-07  0.666E-04    1.42      11.6  T
  10   -315.4674407 -0.308777E-07  0.336E-04    1.42      23.0  T
     SCC iter.                  ...        0 min,  0.365 sec
     gradient                   ...        0 min,  0.097 sec
 * total energy  :  -311.6618114 Eh     change       -0.5729387E-02 Eh
   gradient norm :     0.0127129 Eh/α   predicted    -0.5381199E-02 (  -6.08%)
   displ. norm   :     0.7235929 α      lambda       -0.4886532E-02
   maximum displ.:     0.2478779 α      in ANC's #46, #23, #69, ...

........................................................................
.............................. CYCLE    9 ..............................
........................................................................
   1   -315.4916770 -0.315492E+03  0.904E-02    1.41       0.0  T
   2   -315.4916894 -0.123355E-04  0.509E-02    1.41       1.0  T
   3   -315.4916225  0.668528E-04  0.232E-02    1.41       1.0  T
   4   -315.4916982 -0.756769E-04  0.689E-03    1.41       1.1  T
   5   -315.4916991 -0.878874E-06  0.364E-03    1.41       2.1  T
   6   -315.4917004 -0.136223E-05  0.152E-03    1.41       5.1  T
   7   -315.4917005 -0.111011E-06  0.110E-03    1.41       7.0  T
   8   -315.4917006 -0.353623E-07  0.798E-04    1.41       9.7  T
   9   -315.4917006 -0.292583E-07  0.490E-04    1.41      15.8  T
     SCC iter.                  ...        0 min,  0.328 sec
     gradient                   ...        0 min,  0.097 sec
 * total energy  :  -311.6658367 Eh     change       -0.4025262E-02 Eh
   gradient norm :     0.0113964 Eh/α   predicted    -0.3722534E-02 (  -7.52%)
   displ. norm   :     0.7124431 α      lambda       -0.3651959E-02
   maximum displ.:     0.2275511 α      in ANC's #23, #46, #44, ...

........................................................................
.............................. CYCLE   10 ..............................
........................................................................
   1   -315.5089020 -0.315509E+03  0.854E-02    1.41       0.0  T
   2   -315.5089106 -0.866038E-05  0.485E-02    1.41       1.0  T
   3   -315.5088583  0.523019E-04  0.204E-02    1.41       1.0  T
   4   -315.5089167 -0.583576E-04  0.576E-03    1.41       1.3  T
   5   -315.5089174 -0.730435E-06  0.300E-03    1.41       2.6  T
   6   -315.5089183 -0.918376E-06  0.122E-03    1.41       6.3  T
   7   -315.5089184 -0.798392E-07  0.876E-04    1.41       8.8  T
   8   -315.5089185 -0.252500E-07  0.626E-04    1.41      12.4  T
     SCC iter.                  ...        0 min,  0.313 sec
     gradient                   ...        0 min,  0.097 sec
 * total energy  :  -311.6688931 Eh     change       -0.3056397E-02 Eh
   gradient norm :     0.0119286 Eh/α   predicted    -0.2752804E-02 (  -9.93%)
   displ. norm   :     0.7154447 α      lambda       -0.3109179E-02
   maximum displ.:     0.2683753 α      in ANC's #23, #46, #25, ...

........................................................................
.............................. CYCLE   11 ..............................
........................................................................
   1   -315.5205459 -0.315521E+03  0.828E-02    1.41       0.0  T
   2   -315.5205524 -0.643840E-05  0.473E-02    1.41       1.0  T
   3   -315.5205147  0.377052E-04  0.174E-02    1.41       1.0  T
   4   -315.5205564 -0.416979E-04  0.507E-03    1.41       1.5  T
   5   -315.5205571 -0.705683E-06  0.260E-03    1.41       3.0  T
   6   -315.5205577 -0.656646E-06  0.118E-03    1.41       6.6  T
   7   -315.5205578 -0.679205E-07  0.878E-04    1.41       8.8  T
   8   -315.5205578 -0.281992E-07  0.623E-04    1.41      12.4  T
     SCC iter.                  ...        0 min,  0.295 sec
     gradient                   ...        0 min,  0.098 sec
 * total energy  :  -311.6715634 Eh     change       -0.2670382E-02 Eh
   gradient norm :     0.0128471 Eh/α   predicted    -0.2350326E-02 ( -11.99%)
   displ. norm   :     0.7332811 α      lambda       -0.3029772E-02
   maximum displ.:     0.3083651 α      in ANC's #23, #25, #55, ...

........................................................................
.............................. CYCLE   12 ..............................
........................................................................
   1   -315.5277422 -0.315528E+03  0.819E-02    1.41       0.0  T
   2   -315.5277479 -0.574913E-05  0.468E-02    1.41       1.0  T
   3   -315.5277207  0.272143E-04  0.150E-02    1.41       1.0  T
   4   -315.5277506 -0.299114E-04  0.488E-03    1.41       1.6  T
   5   -315.5277516 -0.925269E-06  0.245E-03    1.41       3.2  T
   6   -315.5277521 -0.526420E-06  0.120E-03    1.41       6.5  T
   7   -315.5277522 -0.677680E-07  0.922E-04    1.41       8.4  T
   8   -315.5277522 -0.300555E-07  0.674E-04    1.41      11.5  T
     SCC iter.                  ...        0 min,  0.292 sec
     gradient                   ...        0 min,  0.098 sec
 * total energy  :  -311.6742178 Eh     change       -0.2654317E-02 Eh
   gradient norm :     0.0132059 Eh/α   predicted    -0.2329446E-02 ( -12.24%)
   displ. norm   :     0.7483326 α      lambda       -0.3114718E-02
   maximum displ.:     0.3385829 α      in ANC's #23, #59, #25, ...

........................................................................
.............................. CYCLE   13 ..............................
........................................................................
   1   -315.5310935 -0.315531E+03  0.812E-02    1.41       0.0  T
   2   -315.5311000 -0.645699E-05  0.463E-02    1.41       1.0  T
   3   -315.5310801  0.199162E-04  0.130E-02    1.41       1.0  T
   4   -315.5311016 -0.215179E-04  0.507E-03    1.41       1.5  T
   5   -315.5311032 -0.156261E-05  0.239E-03    1.41       3.2  T
   6   -315.5311036 -0.442584E-06  0.123E-03    1.41       6.3  T
   7   -315.5311037 -0.797045E-07  0.938E-04    1.41       8.3  T
   8   -315.5311037 -0.286395E-07  0.689E-04    1.41      11.2  T
     SCC iter.                  ...        0 min,  0.295 sec
     gradient                   ...        0 min,  0.098 sec
 * total energy  :  -311.6769425 Eh     change       -0.2724714E-02 Eh
   gradient norm :     0.0129895 Eh/α   predicted    -0.2429490E-02 ( -10.84%)
   displ. norm   :     0.7593821 α      lambda       -0.3072028E-02
   maximum displ.:     0.3511101 α      in ANC's #23, #59, #55, ...

........................................................................
.............................. CYCLE   14 ..............................
........................................................................
   1   -315.5303277 -0.315530E+03  0.780E-02    1.42       0.0  T
   2   -315.5303349 -0.724193E-05  0.445E-02    1.42       1.0  T
   3   -315.5303120  0.228687E-04  0.133E-02    1.42       1.0  T
   4   -315.5303362 -0.241982E-04  0.516E-03    1.42       1.5  T
   5   -315.5303383 -0.209513E-05  0.231E-03    1.42       3.3  T
   6   -315.5303387 -0.349726E-06  0.120E-03    1.42       6.5  T
   7   -315.5303388 -0.977205E-07  0.807E-04    1.42       9.6  T
   8   -315.5303388 -0.211809E-07  0.591E-04    1.42      13.1  T
     SCC iter.                  ...        0 min,  0.298 sec
     gradient                   ...        0 min,  0.098 sec
 * total energy  :  -311.6795940 Eh     change       -0.2651527E-02 Eh
   gradient norm :     0.0137659 Eh/α   predicted    -0.2421787E-02 (  -8.66%)
   displ. norm   :     0.7332824 α      lambda       -0.2996976E-02
   maximum displ.:     0.3481156 α      in ANC's #23, #59, #25, ...

........................................................................
.............................. CYCLE   15 ..............................
........................................................................
   1   -315.5367128 -0.315537E+03  0.746E-02    1.41       0.0  T
   2   -315.5367235 -0.106921E-04  0.425E-02    1.42       1.0  T
   3   -315.5366960  0.275191E-04  0.148E-02    1.42       1.0  T
   4   -315.5367255 -0.295228E-04  0.537E-03    1.42       1.4  T
   5   -315.5367279 -0.242556E-05  0.238E-03    1.42       3.2  T
   6   -315.5367282 -0.269112E-06  0.135E-03    1.42       5.7  T
   7   -315.5367283 -0.146537E-06  0.830E-04    1.42       9.3  T
   8   -315.5367284 -0.207911E-07  0.611E-04    1.42      12.7  T
     SCC iter.                  ...        0 min,  0.297 sec
     gradient                   ...        0 min,  0.097 sec
 * total energy  :  -311.6819851 Eh     change       -0.2391119E-02 Eh
   gradient norm :     0.0133873 Eh/α   predicted    -0.2304245E-02 (  -3.63%)
   displ. norm   :     0.8217167 α      lambda       -0.3115428E-02
   maximum displ.:     0.3497971 α      in ANC's #23, #59, #55, ...

........................................................................
.............................. CYCLE   16 ..............................
........................................................................
   1   -315.5138354 -0.315514E+03  0.876E-02    1.41       0.0  T
   2   -315.5138788 -0.434144E-04  0.499E-02    1.41       1.0  T
   3   -315.5138584  0.203984E-04  0.161E-02    1.41       1.0  T
   4   -315.5138780 -0.195541E-04  0.746E-03    1.41       1.0  T
   5   -315.5138852 -0.723757E-05  0.284E-03    1.41       2.7  T
   6   -315.5138853 -0.110627E-06  0.184E-03    1.41       4.2  T
   7   -315.5138857 -0.310786E-06  0.101E-03    1.41       7.7  T
   8   -315.5138857 -0.359039E-07  0.765E-04    1.41      10.1  T
   9   -315.5138857 -0.284780E-07  0.502E-04    1.41      15.4  T
     SCC iter.                  ...        0 min,  0.336 sec
     gradient                   ...        0 min,  0.098 sec
 * total energy  :  -311.6833181 Eh     change       -0.1332975E-02 Eh
   gradient norm :     0.0315443 Eh/α   predicted    -0.2609512E-02 (  95.77%)
   displ. norm   :     0.3663648 α      lambda       -0.3141081E-02
   maximum displ.:     0.1608436 α      in ANC's #23, #55, #28, ...

........................................................................
.............................. CYCLE   17 ..............................
........................................................................
   1   -315.5324303 -0.315532E+03  0.578E-02    1.41       0.0  T
   2   -315.5324618 -0.314770E-04  0.322E-02    1.41       1.0  T
   3   -315.5324539  0.785807E-05  0.121E-02    1.41       1.0  T
   4   -315.5324617 -0.782476E-05  0.574E-03    1.41       1.3  T
   5   -315.5324657 -0.394566E-05  0.227E-03    1.41       3.4  T
   6   -315.5324657 -0.688927E-07  0.144E-03    1.41       5.4  T
   7   -315.5324659 -0.186943E-06  0.772E-04    1.41      10.0  T
   8   -315.5324659 -0.250529E-07  0.589E-04    1.41      13.1  T
     SCC iter.                  ...        0 min,  0.299 sec
     gradient                   ...        0 min,  0.098 sec
 * total energy  :  -311.6850183 Eh     change       -0.1700188E-02 Eh
   gradient norm :     0.0192535 Eh/α   predicted    -0.1781360E-02 (   4.77%)
   displ. norm   :     0.5219766 α      lambda       -0.3540677E-02
   maximum displ.:     0.1996638 α      in ANC's #23, #64, #53, ...

........................................................................
.............................. CYCLE   18 ..............................
........................................................................
   1   -315.5497168 -0.315550E+03  0.810E-02    1.41       0.0  T
   2   -315.5497961 -0.792091E-04  0.448E-02    1.41       1.0  T
   3   -315.5497947  0.131218E-05  0.148E-02    1.41       1.0  T
   4   -315.5497960 -0.127196E-05  0.722E-03    1.41       1.1  T
   5   -315.5498023 -0.623865E-05  0.288E-03    1.41       2.7  T
   6   -315.5498024 -0.104933E-06  0.173E-03    1.41       4.5  T
   7   -315.5498026 -0.266521E-06  0.756E-04    1.41      10.2  T
   8   -315.5498027 -0.276357E-07  0.550E-04    1.41      14.1  T
     SCC iter.                  ...        0 min,  0.295 sec
     gradient                   ...        0 min,  0.098 sec
 * total energy  :  -311.6849431 Eh     change        0.7519986E-04 Eh
   gradient norm :     0.0387546 Eh/α   predicted    -0.2252688E-02 (*******%)
   displ. norm   :     0.3385544 α      lambda       -0.4022800E-02
   maximum displ.:     0.1368839 α      in ANC's #59, #23, #58, ...

........................................................................
.............................. CYCLE   19 ..............................
........................................................................
   1   -315.5421983 -0.315542E+03  0.614E-02    1.41       0.0  T
   2   -315.5422459 -0.475589E-04  0.335E-02    1.41       1.0  T
   3   -315.5422461 -0.222550E-06  0.110E-02    1.41       1.0  T
   4   -315.5422463 -0.214471E-06  0.523E-03    1.41       1.5  T
   5   -315.5422491 -0.282528E-05  0.231E-03    1.41       3.3  T
   6   -315.5422493 -0.109646E-06  0.109E-03    1.41       7.1  T
   7   -315.5422494 -0.110556E-06  0.450E-04    1.41      17.2  T
   8   -315.5422494 -0.123963E-07  0.288E-04    1.41      26.9  T
     SCC iter.                  ...        0 min,  0.298 sec
     gradient                   ...        0 min,  0.097 sec
 * total energy  :  -311.6868758 Eh     change       -0.1932701E-02 Eh
   gradient norm :     0.0214261 Eh/α   predicted    -0.2241949E-02 (  16.00%)
   displ. norm   :     0.5020550 α      lambda       -0.4027427E-02
   maximum displ.:     0.2356549 α      in ANC's #55, #23, #45, ...

........................................................................
.............................. CYCLE   20 ..............................
........................................................................
   1   -315.5084858 -0.315508E+03  0.104E-01    1.41       0.0  T
   2   -315.5086471 -0.161271E-03  0.562E-02    1.41       1.0  T
   3   -315.5086520 -0.491758E-05  0.200E-02    1.41       1.0  T
   4   -315.5086531 -0.108711E-05  0.720E-03    1.41       1.1  T
   5   -315.5086573 -0.419962E-05  0.379E-03    1.41       2.0  T
   6   -315.5086578 -0.509241E-06  0.169E-03    1.41       4.6  T
   7   -315.5086580 -0.213590E-06  0.645E-04    1.41      12.0  T
   8   -315.5086580 -0.307870E-07  0.387E-04    1.41      20.0  T
     SCC iter.                  ...        0 min,  0.296 sec
     gradient                   ...        0 min,  0.098 sec
 * total energy  :  -311.6838050 Eh     change        0.3070801E-02 Eh
   gradient norm :     0.0533786 Eh/α   predicted    -0.2521287E-02 (-182.11%)
   displ. norm   :     0.2603066 α      lambda       -0.7957135E-02
   maximum displ.:     0.0828980 α      in ANC's #62, #55, #38, ...
 * RMSD in coord.:     0.6851419 α      energy gain  -0.4460097E+00 Eh

generating ANC from model Hessian ...
Using Lindh-Hessian (1995)
 Shifting diagonal of input Hessian by   9.996991350644982E-003
 Lowest  eigenvalues of input Hessian
    0.000000    0.000000    0.000000    0.000000    0.000000    0.000000
    0.010000    0.010011    0.010014    0.010015    0.010025    0.010043
    0.010074    0.010081    0.010107    0.010114    0.010125    0.010134
 Highest eigenvalues
    2.028919    2.035638    2.035671    2.069541    2.076056    2.085959
 

........................................................................
.............................. CYCLE   21 ..............................
........................................................................
   1   -315.5360200 -0.315536E+03  0.731E-02    1.41       0.0  T
   2   -315.5361079 -0.878354E-04  0.393E-02    1.41       1.0  T
   3   -315.5361090 -0.107844E-05  0.148E-02    1.41       1.0  T
   4   -315.5361077  0.120672E-05  0.691E-03    1.41       1.1  T
   5   -315.5361138 -0.601351E-05  0.269E-03    1.41       2.9  T
   6   -315.5361139 -0.136178E-06  0.138E-03    1.41       5.6  T
   7   -315.5361141 -0.153807E-06  0.530E-04    1.41      14.6  T
   8   -315.5361141 -0.222819E-07  0.318E-04    1.41      24.3  T
     SCC iter.                  ...        0 min,  0.292 sec
     gradient                   ...        0 min,  0.098 sec
 * total energy  :  -311.6881740 Eh     change       -0.4369060E-02 Eh
   gradient norm :     0.0116914 Eh/α   predicted     0.0000000E+00 (-100.00%)
   displ. norm   :     0.1671451 α      lambda       -0.6993408E-03
   maximum displ.:     0.0580345 α      in ANC's #66, #17, #28, ...

........................................................................
.............................. CYCLE   22 ..............................
........................................................................
   1   -315.5421635 -0.315542E+03  0.225E-02    1.41       0.0  T
   2   -315.5421657 -0.221361E-05  0.129E-02    1.41       1.0  T
   3   -315.5421632  0.249902E-05  0.533E-03    1.41       1.5  T
   4   -315.5421660 -0.279842E-05  0.178E-03    1.41       4.3  T
   5   -315.5421662 -0.214522E-06  0.973E-04    1.41       8.0  T
   6   -315.5421663 -0.334001E-07  0.562E-04    1.41      13.8  T
     SCC iter.                  ...        0 min,  0.223 sec
     gradient                   ...        0 min,  0.097 sec
 * total energy  :  -311.6887286 Eh     change       -0.5545968E-03 Eh
   gradient norm :     0.0047615 Eh/α   predicted    -0.3594401E-03 ( -35.19%)
   displ. norm   :     0.4366694 α      lambda       -0.1112318E-02
   maximum displ.:     0.1568729 α      in ANC's #66, #70, #17, ...

........................................................................
.............................. CYCLE   23 ..............................
........................................................................
   1   -315.5482286 -0.315548E+03  0.415E-02    1.41       0.0  T
   2   -315.5482325 -0.388870E-05  0.242E-02    1.41       1.0  T
   3   -315.5482232  0.930734E-05  0.962E-03    1.41       1.0  T
   4   -315.5482337 -0.105372E-04  0.261E-03    1.41       3.0  T
   5   -315.5482340 -0.274391E-06  0.175E-03    1.41       4.4  T
   6   -315.5482342 -0.175365E-06  0.991E-04    1.41       7.8  T
   7   -315.5482343 -0.592456E-07  0.701E-04    1.41      11.0  T
     SCC iter.                  ...        0 min,  0.258 sec
     gradient                   ...        0 min,  0.098 sec
 * total energy  :  -311.6895733 Eh     change       -0.8446944E-03 Eh
   gradient norm :     0.0080311 Eh/α   predicted    -0.6622715E-03 ( -21.60%)
   displ. norm   :     0.5740192 α      lambda       -0.1056899E-02
   maximum displ.:     0.2002887 α      in ANC's #66, #17, #70, ...

........................................................................
.............................. CYCLE   24 ..............................
........................................................................
   1   -315.5460561 -0.315546E+03  0.491E-02    1.42       0.0  T
   2   -315.5460598 -0.369811E-05  0.289E-02    1.42       1.0  T
   3   -315.5460513  0.851775E-05  0.891E-03    1.42       1.0  T
   4   -315.5460607 -0.943015E-05  0.267E-03    1.42       2.9  T
   5   -315.5460612 -0.404798E-06  0.160E-03    1.42       4.8  T
   6   -315.5460613 -0.148539E-06  0.959E-04    1.42       8.1  T
   7   -315.5460614 -0.651829E-07  0.664E-04    1.42      11.7  T
     SCC iter.                  ...        0 min,  0.256 sec
     gradient                   ...        0 min,  0.098 sec
 * total energy  :  -311.6903865 Eh     change       -0.8131537E-03 Eh
   gradient norm :     0.0131827 Eh/α   predicted    -0.7025734E-03 ( -13.60%)
   displ. norm   :     0.5454195 α      lambda       -0.9628171E-03
   maximum displ.:     0.1722164 α      in ANC's #17, #66, #28, ...

........................................................................
.............................. CYCLE   25 ..............................
........................................................................
   1   -315.5423535 -0.315542E+03  0.435E-02    1.42       0.0  T
   2   -315.5423561 -0.264510E-05  0.254E-02    1.42       1.0  T
   3   -315.5423531  0.297419E-05  0.537E-03    1.42       1.4  T
   4   -315.5423562 -0.303699E-05  0.254E-03    1.42       3.0  T
   5   -315.5423568 -0.611884E-06  0.108E-03    1.42       7.2  T
   6   -315.5423568 -0.408740E-07  0.654E-04    1.42      11.8  T
   7   -315.5423569 -0.328623E-07  0.430E-04    1.42      18.0  T
     SCC iter.                  ...        0 min,  0.258 sec
     gradient                   ...        0 min,  0.097 sec
 * total energy  :  -311.6911238 Eh     change       -0.7373257E-03 Eh
   gradient norm :     0.0147560 Eh/α   predicted    -0.6246862E-03 ( -15.28%)
   displ. norm   :     0.4481892 α      lambda       -0.1081562E-02
   maximum displ.:     0.1731219 α      in ANC's #17, #28, #1, ...

........................................................................
.............................. CYCLE   26 ..............................
........................................................................
   1   -315.5447856 -0.315545E+03  0.388E-02    1.42       0.0  T
   2   -315.5447913 -0.565583E-05  0.224E-02    1.42       1.0  T
   3   -315.5447854  0.589845E-05  0.758E-03    1.42       1.0  T
   4   -315.5447914 -0.606447E-05  0.311E-03    1.42       2.5  T
   5   -315.5447925 -0.104771E-05  0.115E-03    1.42       6.8  T
   6   -315.5447925 -0.150868E-07  0.765E-04    1.42      10.1  T
   7   -315.5447925 -0.416279E-07  0.440E-04    1.42      17.6  T
     SCC iter.                  ...        0 min,  0.257 sec
     gradient                   ...        0 min,  0.097 sec
 * total energy  :  -311.6918666 Eh     change       -0.7428315E-03 Eh
   gradient norm :     0.0114168 Eh/α   predicted    -0.6494108E-03 ( -12.58%)
   displ. norm   :     0.5341028 α      lambda       -0.8099410E-03
   maximum displ.:     0.2116103 α      in ANC's #17, #1, #28, ...

........................................................................
.............................. CYCLE   27 ..............................
........................................................................
   1   -315.5430437 -0.315543E+03  0.414E-02    1.42       0.0  T
   2   -315.5430452 -0.154922E-05  0.243E-02    1.42       1.0  T
   3   -315.5430365  0.875026E-05  0.804E-03    1.42       1.0  T
   4   -315.5430461 -0.961573E-05  0.215E-03    1.42       3.6  T
   5   -315.5430463 -0.242855E-06  0.113E-03    1.42       6.9  T
   6   -315.5430464 -0.695745E-07  0.682E-04    1.42      11.3  T
   7   -315.5430464 -0.252965E-07  0.476E-04    1.42      16.3  T
     SCC iter.                  ...        0 min,  0.255 sec
     gradient                   ...        0 min,  0.097 sec
 * total energy  :  -311.6925297 Eh     change       -0.6630529E-03 Eh
   gradient norm :     0.0121978 Eh/α   predicted    -0.5204950E-03 ( -21.50%)
   displ. norm   :     0.5572829 α      lambda       -0.1157544E-02
   maximum displ.:     0.2499716 α      in ANC's #17, #1, #21, ...

........................................................................
.............................. CYCLE   28 ..............................
........................................................................
   1   -315.5514599 -0.315551E+03  0.492E-02    1.42       0.0  T
   2   -315.5514670 -0.709289E-05  0.285E-02    1.42       1.0  T
   3   -315.5514497  0.172118E-04  0.122E-02    1.42       1.0  T
   4   -315.5514689 -0.191548E-04  0.351E-03    1.42       2.2  T
   5   -315.5514699 -0.102528E-05  0.173E-03    1.42       4.5  T
   6   -315.5514700 -0.109824E-06  0.117E-03    1.42       6.6  T
   7   -315.5514701 -0.803142E-07  0.773E-04    1.42      10.0  T
   8   -315.5514701 -0.241700E-07  0.585E-04    1.42      13.2  T
     SCC iter.                  ...        0 min,  0.299 sec
     gradient                   ...        0 min,  0.098 sec
 * total energy  :  -311.6933238 Eh     change       -0.7941214E-03 Eh
   gradient norm :     0.0088450 Eh/α   predicted    -0.7585180E-03 (  -4.48%)
   displ. norm   :     0.7340704 α      lambda       -0.1075476E-02
   maximum displ.:     0.3032383 α      in ANC's #17, #1, #65, ...

........................................................................
.............................. CYCLE   29 ..............................
........................................................................
   1   -315.5426248 -0.315543E+03  0.623E-02    1.41       0.0  T
   2   -315.5426397 -0.148871E-04  0.360E-02    1.41       1.0  T
   3   -315.5426326  0.718131E-05  0.926E-03    1.41       1.0  T
   4   -315.5426391 -0.656100E-05  0.466E-03    1.41       1.7  T
   5   -315.5426419 -0.278846E-05  0.164E-03    1.41       4.7  T
   6   -315.5426419 -0.977445E-08  0.113E-03    1.41       6.9  T
   7   -315.5426420 -0.107544E-06  0.602E-04    1.41      12.9  T
   8   -315.5426420 -0.139950E-07  0.451E-04    1.41      17.1  T
     SCC iter.                  ...        0 min,  0.289 sec
     gradient                   ...        0 min,  0.097 sec
 * total energy  :  -311.6937930 Eh     change       -0.4692339E-03 Eh
   gradient norm :     0.0195505 Eh/α   predicted    -0.8275254E-03 (  76.36%)
   displ. norm   :     0.2540610 α      lambda       -0.9244055E-03
   maximum displ.:     0.1266295 α      in ANC's #17, #1, #21, ...

........................................................................
.............................. CYCLE   30 ..............................
........................................................................
   1   -315.5460915 -0.315546E+03  0.289E-02    1.41       0.0  T
   2   -315.5460991 -0.756236E-05  0.161E-02    1.41       1.0  T
   3   -315.5460976  0.145436E-05  0.559E-03    1.41       1.4  T
   4   -315.5460989 -0.126694E-05  0.275E-03    1.41       2.8  T
   5   -315.5460998 -0.956107E-06  0.102E-03    1.41       7.6  T
   6   -315.5460999 -0.237969E-07  0.611E-04    1.41      12.7  T
   7   -315.5460999 -0.335436E-07  0.316E-04    1.41      24.5  T
     SCC iter.                  ...        0 min,  0.250 sec
     gradient                   ...        0 min,  0.097 sec
 * total energy  :  -311.6943981 Eh     change       -0.6050325E-03 Eh
   gradient norm :     0.0092054 Eh/α   predicted    -0.4920385E-03 ( -18.68%)
   displ. norm   :     0.4609875 α      lambda       -0.8072958E-03
   maximum displ.:     0.2235604 α      in ANC's #17, #1, #21, ...

........................................................................
.............................. CYCLE   31 ..............................
........................................................................
   1   -315.5520795 -0.315552E+03  0.386E-02    1.41       0.0  T
   2   -315.5520837 -0.425885E-05  0.222E-02    1.41       1.0  T
   3   -315.5520799  0.388937E-05  0.616E-03    1.41       1.3  T
   4   -315.5520840 -0.413433E-05  0.251E-03    1.41       3.1  T
   5   -315.5520846 -0.625732E-06  0.117E-03    1.41       6.6  T
   6   -315.5520846 -0.344295E-07  0.763E-04    1.41      10.1  T
   7   -315.5520847 -0.506265E-07  0.478E-04    1.41      16.2  T
     SCC iter.                  ...        0 min,  0.253 sec
     gradient                   ...        0 min,  0.097 sec
 * total energy  :  -311.6949849 Eh     change       -0.5867893E-03 Eh
   gradient norm :     0.0078748 Eh/α   predicted    -0.4894307E-03 ( -16.59%)
   displ. norm   :     0.7176259 α      lambda       -0.8356405E-03
   maximum displ.:     0.3416802 α      in ANC's #17, #1, #21, ...

........................................................................
.............................. CYCLE   32 ..............................
........................................................................
   1   -315.5502128 -0.315550E+03  0.541E-02    1.41       0.0  T
   2   -315.5502167 -0.388677E-05  0.314E-02    1.41       1.0  T
   3   -315.5502087  0.794860E-05  0.800E-03    1.41       1.0  T
   4   -315.5502174 -0.871949E-05  0.291E-03    1.41       2.7  T
   5   -315.5502181 -0.638947E-06  0.148E-03    1.41       5.2  T
   6   -315.5502182 -0.774010E-07  0.983E-04    1.41       7.9  T
   7   -315.5502182 -0.691646E-07  0.660E-04    1.41      11.7  T
     SCC iter.                  ...        0 min,  0.266 sec
     gradient                   ...        0 min,  0.097 sec
 * total energy  :  -311.6956024 Eh     change       -0.6174880E-03 Eh
   gradient norm :     0.0109158 Eh/α   predicted    -0.6330061E-03 (   2.51%)
   displ. norm   :     0.5825386 α      lambda       -0.6754228E-03
   maximum displ.:     0.2833847 α      in ANC's #17, #1, #21, ...

........................................................................
.............................. CYCLE   33 ..............................
........................................................................
   1   -315.5479678 -0.315548E+03  0.424E-02    1.41       0.0  T
   2   -315.5479708 -0.300580E-05  0.246E-02    1.41       1.0  T
   3   -315.5479599  0.109325E-04  0.920E-03    1.41       1.0  T
   4   -315.5479721 -0.121993E-04  0.249E-03    1.40       3.1  T
   5   -315.5479725 -0.397419E-06  0.127E-03    1.41       6.1  T
   6   -315.5479725 -0.565042E-07  0.865E-04    1.40       8.9  T
   7   -315.5479726 -0.524535E-07  0.575E-04    1.40      13.5  T
     SCC iter.                  ...        0 min,  0.261 sec
     gradient                   ...        0 min,  0.098 sec
 * total energy  :  -311.6960879 Eh     change       -0.4855273E-03 Eh
   gradient norm :     0.0096266 Eh/α   predicted    -0.4523150E-03 (  -6.84%)
   displ. norm   :     0.4947496 α      lambda       -0.8512504E-03
   maximum displ.:     0.2258335 α      in ANC's #17, #1, #53, ...

........................................................................
.............................. CYCLE   34 ..............................
........................................................................
   1   -315.5644198 -0.315564E+03  0.474E-02    1.41       0.0  T
   2   -315.5644297 -0.988018E-05  0.270E-02    1.41       1.0  T
   3   -315.5644111  0.185847E-04  0.131E-02    1.41       1.0  T
   4   -315.5644325 -0.214303E-04  0.389E-03    1.41       2.0  T
   5   -315.5644337 -0.116741E-05  0.166E-03    1.41       4.7  T
   6   -315.5644338 -0.723629E-07  0.110E-03    1.41       7.0  T
   7   -315.5644339 -0.913305E-07  0.649E-04    1.41      11.9  T
   8   -315.5644339 -0.174769E-07  0.478E-04    1.41      16.2  T
     SCC iter.                  ...        0 min,  0.294 sec
     gradient                   ...        0 min,  0.098 sec
 * total energy  :  -311.6964164 Eh     change       -0.3285181E-03 Eh
   gradient norm :     0.0131104 Eh/α   predicted    -0.5298119E-03 (  61.27%)
   displ. norm   :     0.5011993 α      lambda       -0.6122445E-03
   maximum displ.:     0.2388570 α      in ANC's #17, #1, #21, ...

........................................................................
.............................. CYCLE   35 ..............................
........................................................................
   1   -315.5568932 -0.315557E+03  0.385E-02    1.40       0.0  T
   2   -315.5568966 -0.346713E-05  0.222E-02    1.40       1.0  T
   3   -315.5568932  0.343670E-05  0.573E-03    1.40       1.4  T
   4   -315.5568968 -0.360712E-05  0.243E-03    1.40       3.2  T
   5   -315.5568974 -0.591238E-06  0.111E-03    1.40       6.9  T
   6   -315.5568974 -0.446723E-07  0.694E-04    1.40      11.2  T
   7   -315.5568975 -0.397885E-07  0.416E-04    1.40      18.6  T
     SCC iter.                  ...        0 min,  0.257 sec
     gradient                   ...        0 min,  0.098 sec
 * total energy  :  -311.6968368 Eh     change       -0.4204021E-03 Eh
   gradient norm :     0.0093084 Eh/α   predicted    -0.3830221E-03 (  -8.89%)
   displ. norm   :     0.3583607 α      lambda       -0.4387480E-03
   maximum displ.:     0.1626903 α      in ANC's #17, #1, #21, ...

........................................................................
.............................. CYCLE   36 ..............................
........................................................................
   1   -315.5537403 -0.315554E+03  0.302E-02    1.40       0.0  T
   2   -315.5537432 -0.290808E-05  0.175E-02    1.40       1.0  T
   3   -315.5537353  0.796934E-05  0.807E-03    1.40       1.0  T
   4   -315.5537442 -0.896009E-05  0.226E-03    1.40       3.4  T
   5   -315.5537446 -0.407014E-06  0.122E-03    1.40       6.4  T
   6   -315.5537447 -0.757619E-07  0.802E-04    1.40       9.7  T
   7   -315.5537447 -0.405599E-07  0.548E-04    1.40      14.1  T
     SCC iter.                  ...        0 min,  0.258 sec
     gradient                   ...        0 min,  0.097 sec
 * total energy  :  -311.6971074 Eh     change       -0.2706249E-03 Eh
   gradient norm :     0.0073866 Eh/α   predicted    -0.2475523E-03 (  -8.53%)
   displ. norm   :     0.4627229 α      lambda       -0.3854544E-03
   maximum displ.:     0.2114415 α      in ANC's #17, #1, #8, ...

........................................................................
.............................. CYCLE   37 ..............................
........................................................................
   1   -315.5547459 -0.315555E+03  0.341E-02    1.40       0.0  T
   2   -315.5547479 -0.198967E-05  0.197E-02    1.40       1.0  T
   3   -315.5547430  0.491314E-05  0.632E-03    1.40       1.2  T
   4   -315.5547483 -0.533135E-05  0.216E-03    1.40       3.6  T
   5   -315.5547487 -0.359825E-06  0.118E-03    1.40       6.6  T
   6   -315.5547488 -0.831597E-07  0.739E-04    1.40      10.5  T
   7   -315.5547488 -0.361551E-07  0.538E-04    1.40      14.4  T
     SCC iter.                  ...        0 min,  0.259 sec
     gradient                   ...        0 min,  0.097 sec
 * total energy  :  -311.6973789 Eh     change       -0.2714816E-03 Eh
   gradient norm :     0.0078024 Eh/α   predicted    -0.2339971E-03 ( -13.81%)
   displ. norm   :     0.4197138 α      lambda       -0.5171009E-03
   maximum displ.:     0.1720538 α      in ANC's #1, #17, #33, ...

........................................................................
.............................. CYCLE   38 ..............................
........................................................................
   1   -315.5596890 -0.315560E+03  0.384E-02    1.41       0.0  T
   2   -315.5596934 -0.442255E-05  0.221E-02    1.41       1.0  T
   3   -315.5596847  0.874378E-05  0.864E-03    1.41       1.0  T
   4   -315.5596943 -0.962747E-05  0.281E-03    1.41       2.8  T
   5   -315.5596950 -0.692392E-06  0.139E-03    1.41       5.6  T
   6   -315.5596951 -0.787557E-07  0.929E-04    1.41       8.3  T
   7   -315.5596951 -0.689014E-07  0.617E-04    1.41      12.6  T
     SCC iter.                  ...        0 min,  0.257 sec
     gradient                   ...        0 min,  0.097 sec
 * total energy  :  -311.6976426 Eh     change       -0.2636498E-03 Eh
   gradient norm :     0.0093457 Eh/α   predicted    -0.3041015E-03 (  15.34%)
   displ. norm   :     0.4051098 α      lambda       -0.3465469E-03
   maximum displ.:     0.1782878 α      in ANC's #1, #17, #8, ...

........................................................................
.............................. CYCLE   39 ..............................
........................................................................
   1   -315.5594637 -0.315559E+03  0.303E-02    1.41       0.0  T
   2   -315.5594656 -0.183882E-05  0.175E-02    1.41       1.0  T
   3   -315.5594632  0.230229E-05  0.452E-03    1.41       1.7  T
   4   -315.5594656 -0.233579E-05  0.197E-03    1.41       3.9  T
   5   -315.5594660 -0.396186E-06  0.862E-04    1.41       9.0  T
   6   -315.5594660 -0.287038E-07  0.516E-04    1.41      15.0  T
     SCC iter.                  ...        0 min,  0.222 sec
     gradient                   ...        0 min,  0.097 sec
 * total energy  :  -311.6978560 Eh     change       -0.2134474E-03 Eh
   gradient norm :     0.0073740 Eh/α   predicted    -0.2017126E-03 (  -5.50%)
   displ. norm   :     0.3574217 α      lambda       -0.2577906E-03
   maximum displ.:     0.1658470 α      in ANC's #1, #17, #7, ...

........................................................................
.............................. CYCLE   40 ..............................
........................................................................
   1   -315.5567663 -0.315557E+03  0.263E-02    1.41       0.0  T
   2   -315.5567672 -0.948840E-06  0.152E-02    1.41       1.0  T
   3   -315.5567641  0.309921E-05  0.510E-03    1.41       1.5  T
   4   -315.5567675 -0.337893E-05  0.159E-03    1.41       4.9  T
   5   -315.5567677 -0.149981E-06  0.784E-04    1.41       9.9  T
   6   -315.5567677 -0.309346E-07  0.430E-04    1.41      18.0  T
     SCC iter.                  ...        0 min,  0.224 sec
     gradient                   ...        0 min,  0.097 sec
 * total energy  :  -311.6980319 Eh     change       -0.1758904E-03 Eh
   gradient norm :     0.0054957 Eh/α   predicted    -0.1453672E-03 ( -17.35%)
   displ. norm   :     0.3525852 α      lambda       -0.3031921E-03
   maximum displ.:     0.1343799 α      in ANC's #1, #33, #31, ...

........................................................................
.............................. CYCLE   41 ..............................
........................................................................
   1   -315.5581220 -0.315558E+03  0.289E-02    1.41       0.0  T
   2   -315.5581230 -0.999489E-06  0.165E-02    1.41       1.0  T
   3   -315.5581180  0.497971E-05  0.657E-03    1.41       1.2  T
   4   -315.5581235 -0.549818E-05  0.194E-03    1.41       4.0  T
   5   -315.5581237 -0.142380E-06  0.105E-03    1.41       7.4  T
   6   -315.5581237 -0.838318E-07  0.528E-04    1.41      14.7  T
   7   -315.5581238 -0.130619E-07  0.395E-04    1.41      19.6  T
     SCC iter.                  ...        0 min,  0.258 sec
     gradient                   ...        0 min,  0.097 sec
 * total energy  :  -311.6982334 Eh     change       -0.2015274E-03 Eh
   gradient norm :     0.0057295 Eh/α   predicted    -0.1704438E-03 ( -15.42%)
   displ. norm   :     0.4035139 α      lambda       -0.2438804E-03
   maximum displ.:     0.1867442 α      in ANC's #1, #33, #7, ...

........................................................................
.............................. CYCLE   42 ..............................
........................................................................
   1   -315.5535866 -0.315554E+03  0.288E-02    1.41       0.0  T
   2   -315.5535881 -0.141368E-05  0.165E-02    1.41       1.0  T
   3   -315.5535863  0.177661E-05  0.413E-03    1.41       1.9  T
   4   -315.5535881 -0.182457E-05  0.187E-03    1.41       4.1  T
   5   -315.5535884 -0.290880E-06  0.792E-04    1.41       9.8  T
   6   -315.5535884 -0.310350E-07  0.435E-04    1.41      17.8  T
     SCC iter.                  ...        0 min,  0.223 sec
     gradient                   ...        0 min,  0.097 sec
 * total energy  :  -311.6983755 Eh     change       -0.1420375E-03 Eh
   gradient norm :     0.0076223 Eh/α   predicted    -0.1417980E-03 (  -0.17%)
   displ. norm   :     0.3817891 α      lambda       -0.2924725E-03
   maximum displ.:     0.1600482 α      in ANC's #1, #4, #24, ...
 * RMSD in coord.:     0.6324723 α      energy gain  -0.1457049E-01 Eh

generating ANC from model Hessian ...
Using Lindh-Hessian (1995)
 Shifting diagonal of input Hessian by   9.998701716039421E-003
 Lowest  eigenvalues of input Hessian
    0.000000    0.000000    0.000000    0.000000    0.000000    0.000000
    0.010000    0.010012    0.010015    0.010017    0.010028    0.010047
    0.010077    0.010089    0.010110    0.010119    0.010122    0.010139
 Highest eigenvalues
    2.028921    2.036069    2.037735    2.072012    2.076193    2.086968
 

........................................................................
.............................. CYCLE   43 ..............................
........................................................................
   1   -315.5538282 -0.315554E+03  0.293E-02    1.41       0.0  T
   2   -315.5538293 -0.108808E-05  0.167E-02    1.41       1.0  T
   3   -315.5538264  0.285002E-05  0.483E-03    1.41       1.6  T
   4   -315.5538295 -0.310181E-05  0.194E-03    1.41       4.0  T
   5   -315.5538298 -0.211227E-06  0.101E-03    1.41       7.7  T
   6   -315.5538298 -0.851784E-07  0.532E-04    1.41      14.6  T
   7   -315.5538299 -0.135213E-07  0.392E-04    1.41      19.7  T
     SCC iter.                  ...        0 min,  0.259 sec
     gradient                   ...        0 min,  0.097 sec
 * total energy  :  -311.6985621 Eh     change       -0.1866020E-03 Eh
   gradient norm :     0.0061715 Eh/α   predicted     0.0000000E+00 (-100.00%)
   displ. norm   :     0.0715544 α      lambda       -0.1242245E-03
   maximum displ.:     0.0221861 α      in ANC's #1, #33, #49, ...

........................................................................
.............................. CYCLE   44 ..............................
........................................................................
   1   -315.5569895 -0.315557E+03  0.971E-03    1.41       0.0  T
   2   -315.5569897 -0.242147E-06  0.564E-03    1.41       1.4  T
   3   -315.5569888  0.860149E-06  0.273E-03    1.41       2.8  T
   4   -315.5569898 -0.982292E-06  0.713E-04    1.41      10.9  T
   5   -315.5569898 -0.211907E-07  0.428E-04    1.41      18.1  T
     SCC iter.                  ...        0 min,  0.188 sec
     gradient                   ...        0 min,  0.097 sec
 * total energy  :  -311.6986620 Eh     change       -0.9995958E-04 Eh
   gradient norm :     0.0026961 Eh/α   predicted    -0.6262906E-04 ( -37.35%)
   displ. norm   :     0.2004653 α      lambda       -0.1975879E-03
   maximum displ.:     0.0664001 α      in ANC's #1, #33, #32, ...

........................................................................
.............................. CYCLE   45 ..............................
........................................................................
   1   -315.5610310 -0.315561E+03  0.214E-02    1.41       0.0  T
   2   -315.5610317 -0.631099E-06  0.123E-02    1.41       1.0  T
   3   -315.5610279  0.372230E-05  0.555E-03    1.41       1.4  T
   4   -315.5610322 -0.422780E-05  0.135E-03    1.41       5.7  T
   5   -315.5610322 -0.344339E-07  0.880E-04    1.41       8.8  T
   6   -315.5610323 -0.607119E-07  0.448E-04    1.41      17.3  T
     SCC iter.                  ...        0 min,  0.222 sec
     gradient                   ...        0 min,  0.097 sec
 * total energy  :  -311.6987963 Eh     change       -0.1342967E-03 Eh
   gradient norm :     0.0036890 Eh/α   predicted    -0.1027649E-03 ( -23.48%)
   displ. norm   :     0.2055189 α      lambda       -0.1149762E-03
   maximum displ.:     0.0738400 α      in ANC's #1, #33, #32, ...

........................................................................
.............................. CYCLE   46 ..............................
........................................................................
   1   -315.5618855 -0.315562E+03  0.191E-02    1.41       0.0  T
   2   -315.5618858 -0.332087E-06  0.110E-02    1.41       1.0  T
   3   -315.5618840  0.178883E-05  0.393E-03    1.41       2.0  T
   4   -315.5618861 -0.200898E-05  0.114E-03    1.41       6.8  T
   5   -315.5618861 -0.324326E-07  0.691E-04    1.41      11.2  T
   6   -315.5618861 -0.373865E-07  0.367E-04    1.41      21.1  T
     SCC iter.                  ...        0 min,  0.224 sec
     gradient                   ...        0 min,  0.097 sec
 * total energy  :  -311.6988866 Eh     change       -0.9030514E-04 Eh
   gradient norm :     0.0053051 Eh/α   predicted    -0.5991637E-04 ( -33.65%)
   displ. norm   :     0.3291696 α      lambda       -0.1631532E-03
   maximum displ.:     0.1246097 α      in ANC's #1, #33, #32, ...

........................................................................
.............................. CYCLE   47 ..............................
........................................................................
   1   -315.5609682 -0.315561E+03  0.288E-02    1.41       0.0  T
   2   -315.5609689 -0.656692E-06  0.166E-02    1.41       1.0  T
   3   -315.5609666  0.229637E-05  0.440E-03    1.41       1.8  T
   4   -315.5609691 -0.253313E-05  0.158E-03    1.41       4.9  T
   5   -315.5609692 -0.100725E-06  0.834E-04    1.41       9.3  T
   6   -315.5609693 -0.582367E-07  0.393E-04    1.41      19.7  T
     SCC iter.                  ...        0 min,  0.221 sec
     gradient                   ...        0 min,  0.097 sec
 * total energy  :  -311.6990087 Eh     change       -0.1220805E-03 Eh
   gradient norm :     0.0052385 Eh/α   predicted    -0.9041797E-04 ( -25.94%)
   displ. norm   :     0.3296644 α      lambda       -0.1484452E-03
   maximum displ.:     0.1354184 α      in ANC's #1, #33, #32, ...

........................................................................
.............................. CYCLE   48 ..............................
........................................................................
   1   -315.5591407 -0.315559E+03  0.270E-02    1.41       0.0  T
   2   -315.5591413 -0.513284E-06  0.156E-02    1.41       1.0  T
   3   -315.5591400  0.129248E-05  0.319E-03    1.41       2.4  T
   4   -315.5591413 -0.136911E-05  0.138E-03    1.41       5.6  T
   5   -315.5591415 -0.132910E-06  0.655E-04    1.41      11.8  T
   6   -315.5591415 -0.422981E-07  0.287E-04    1.41      26.9  T
     SCC iter.                  ...        0 min,  0.225 sec
     gradient                   ...        0 min,  0.097 sec
 * total energy  :  -311.6991197 Eh     change       -0.1109759E-03 Eh
   gradient norm :     0.0039039 Eh/α   predicted    -0.8229607E-04 ( -25.84%)
   displ. norm   :     0.3133694 α      lambda       -0.1452259E-03
   maximum displ.:     0.1399195 α      in ANC's #1, #33, #4, ...

........................................................................
.............................. CYCLE   49 ..............................
........................................................................
   1   -315.5581782 -0.315558E+03  0.247E-02    1.41       0.0  T
   2   -315.5581786 -0.412568E-06  0.142E-02    1.41       1.0  T
   3   -315.5581767  0.193397E-05  0.383E-03    1.41       2.0  T
   4   -315.5581788 -0.210663E-05  0.129E-03    1.41       6.0  T
   5   -315.5581789 -0.673760E-07  0.669E-04    1.41      11.6  T
   6   -315.5581789 -0.442602E-07  0.307E-04    1.41      25.2  T
     SCC iter.                  ...        0 min,  0.226 sec
     gradient                   ...        0 min,  0.097 sec
 * total energy  :  -311.6992317 Eh     change       -0.1119946E-03 Eh
   gradient norm :     0.0034917 Eh/α   predicted    -0.7974376E-04 ( -28.80%)
   displ. norm   :     0.3463962 α      lambda       -0.1539434E-03
   maximum displ.:     0.1624907 α      in ANC's #1, #4, #17, ...

........................................................................
.............................. CYCLE   50 ..............................
........................................................................
   1   -315.5579761 -0.315558E+03  0.264E-02    1.41       0.0  T
   2   -315.5579767 -0.536496E-06  0.152E-02    1.41       1.0  T
   3   -315.5579739  0.280173E-05  0.475E-03    1.41       1.6  T
   4   -315.5579770 -0.309558E-05  0.137E-03    1.41       5.6  T
   5   -315.5579770 -0.621399E-07  0.817E-04    1.41       9.5  T
   6   -315.5579771 -0.570245E-07  0.406E-04    1.41      19.1  T
     SCC iter.                  ...        0 min,  0.223 sec
     gradient                   ...        0 min,  0.097 sec
 * total energy  :  -311.6993537 Eh     change       -0.1220314E-03 Eh
   gradient norm :     0.0046298 Eh/α   predicted    -0.8620862E-04 ( -29.36%)
   displ. norm   :     0.4304851 α      lambda       -0.1715728E-03
   maximum displ.:     0.2058999 α      in ANC's #1, #4, #17, ...

........................................................................
.............................. CYCLE   51 ..............................
........................................................................
   1   -315.5578222 -0.315558E+03  0.319E-02    1.41       0.0  T
   2   -315.5578229 -0.660414E-06  0.182E-02    1.41       1.0  T
   3   -315.5578199  0.296804E-05  0.491E-03    1.41       1.6  T
   4   -315.5578232 -0.325923E-05  0.166E-03    1.41       4.7  T
   5   -315.5578233 -0.111805E-06  0.928E-04    1.41       8.3  T
   6   -315.5578234 -0.701676E-07  0.463E-04    1.41      16.7  T
     SCC iter.                  ...        0 min,  0.224 sec
     gradient                   ...        0 min,  0.097 sec
 * total energy  :  -311.6994953 Eh     change       -0.1416054E-03 Eh
   gradient norm :     0.0050909 Eh/α   predicted    -0.1016876E-03 ( -28.19%)
   displ. norm   :     0.4867508 α      lambda       -0.2069221E-03
   maximum displ.:     0.2412260 α      in ANC's #1, #4, #6, ...

........................................................................
.............................. CYCLE   52 ..............................
........................................................................
   1   -315.5589028 -0.315559E+03  0.352E-02    1.41       0.0  T
   2   -315.5589035 -0.761275E-06  0.202E-02    1.41       1.0  T
   3   -315.5589002  0.334947E-05  0.509E-03    1.41       1.5  T
   4   -315.5589038 -0.366702E-05  0.172E-03    1.41       4.5  T
   5   -315.5589040 -0.135361E-06  0.937E-04    1.41       8.3  T
   6   -315.5589040 -0.668062E-07  0.469E-04    1.41      16.5  T
     SCC iter.                  ...        0 min,  0.222 sec
     gradient                   ...        0 min,  0.097 sec
 * total energy  :  -311.6996653 Eh     change       -0.1699835E-03 Eh
   gradient norm :     0.0048020 Eh/α   predicted    -0.1279741E-03 ( -24.71%)
   displ. norm   :     0.5922850 α      lambda       -0.2236693E-03
   maximum displ.:     0.2950940 α      in ANC's #1, #4, #6, ...

........................................................................
.............................. CYCLE   53 ..............................
........................................................................
   1   -315.5577032 -0.315558E+03  0.426E-02    1.42       0.0  T
   2   -315.5577043 -0.106027E-05  0.245E-02    1.42       1.0  T
   3   -315.5577001  0.415693E-05  0.556E-03    1.42       1.4  T
   4   -315.5577047 -0.456004E-05  0.199E-03    1.42       3.9  T
   5   -315.5577048 -0.176738E-06  0.959E-04    1.42       8.1  T
   6   -315.5577049 -0.661961E-07  0.498E-04    1.42      15.5  T
     SCC iter.                  ...        0 min,  0.223 sec
     gradient                   ...        0 min,  0.098 sec
 * total energy  :  -311.6998469 Eh     change       -0.1816324E-03 Eh
   gradient norm :     0.0050246 Eh/α   predicted    -0.1510674E-03 ( -16.83%)
   displ. norm   :     0.5427538 α      lambda       -0.3018937E-03
   maximum displ.:     0.2832777 α      in ANC's #1, #4, #2, ...

........................................................................
.............................. CYCLE   54 ..............................
........................................................................
   1   -315.5622316 -0.315562E+03  0.410E-02    1.42       0.0  T
   2   -315.5622331 -0.149510E-05  0.235E-02    1.42       1.0  T
   3   -315.5622271  0.603071E-05  0.685E-03    1.42       1.1  T
   4   -315.5622337 -0.665345E-05  0.213E-03    1.42       3.6  T
   5   -315.5622339 -0.184020E-06  0.110E-03    1.42       7.0  T
   6   -315.5622340 -0.740093E-07  0.594E-04    1.42      13.0  T
   7   -315.5622340 -0.277353E-07  0.389E-04    1.42      19.9  T
     SCC iter.                  ...        0 min,  0.261 sec
     gradient                   ...        0 min,  0.097 sec
 * total energy  :  -311.7000231 Eh     change       -0.1761289E-03 Eh
   gradient norm :     0.0055129 Eh/α   predicted    -0.1954132E-03 (  10.95%)
   displ. norm   :     0.5986187 α      lambda       -0.2342373E-03
   maximum displ.:     0.3047798 α      in ANC's #1, #4, #2, ...

........................................................................
.............................. CYCLE   55 ..............................
........................................................................
   1   -315.5585117 -0.315559E+03  0.426E-02    1.42       0.0  T
   2   -315.5585131 -0.145130E-05  0.245E-02    1.42       1.0  T
   3   -315.5585093  0.384701E-05  0.564E-03    1.42       1.4  T
   4   -315.5585136 -0.428931E-05  0.202E-03    1.42       3.8  T
   5   -315.5585137 -0.176309E-06  0.971E-04    1.42       8.0  T
   6   -315.5585138 -0.521617E-07  0.513E-04    1.42      15.1  T
     SCC iter.                  ...        0 min,  0.223 sec
     gradient                   ...        0 min,  0.096 sec
 * total energy  :  -311.7001965 Eh     change       -0.1734372E-03 Eh
   gradient norm :     0.0059799 Eh/α   predicted    -0.1590940E-03 (  -8.27%)
   displ. norm   :     0.4420713 α      lambda       -0.1851744E-03
   maximum displ.:     0.2375053 α      in ANC's #1, #4, #2, ...

........................................................................
.............................. CYCLE   56 ..............................
........................................................................
   1   -315.5581576 -0.315558E+03  0.301E-02    1.42       0.0  T
   2   -315.5581582 -0.593815E-06  0.173E-02    1.42       1.0  T
   3   -315.5581561  0.212216E-05  0.441E-03    1.42       1.8  T
   4   -315.5581585 -0.237949E-05  0.149E-03    1.42       5.2  T
   5   -315.5581585 -0.611383E-07  0.816E-04    1.42       9.5  T
   6   -315.5581586 -0.489360E-07  0.373E-04    1.42      20.8  T
     SCC iter.                  ...        0 min,  0.226 sec
     gradient                   ...        0 min,  0.097 sec
 * total energy  :  -311.7003525 Eh     change       -0.1559586E-03 Eh
   gradient norm :     0.0056457 Eh/α   predicted    -0.1106843E-03 ( -29.03%)
   displ. norm   :     0.4565430 α      lambda       -0.2842037E-03
   maximum displ.:     0.2492422 α      in ANC's #1, #4, #2, ...

........................................................................
.............................. CYCLE   57 ..............................
........................................................................
   1   -315.5611997 -0.315561E+03  0.335E-02    1.42       0.0  T
   2   -315.5612009 -0.126588E-05  0.190E-02    1.42       1.0  T
   3   -315.5611963  0.462828E-05  0.610E-03    1.42       1.3  T
   4   -315.5612014 -0.508720E-05  0.204E-03    1.42       3.8  T
   5   -315.5612016 -0.220282E-06  0.106E-03    1.42       7.3  T
   6   -315.5612017 -0.720493E-07  0.534E-04    1.42      14.5  T
   7   -315.5612017 -0.161779E-07  0.360E-04    1.42      21.5  T
     SCC iter.                  ...        0 min,  0.258 sec
     gradient                   ...        0 min,  0.097 sec
 * total energy  :  -311.7005528 Eh     change       -0.2003772E-03 Eh
   gradient norm :     0.0042187 Eh/α   predicted    -0.1717252E-03 ( -14.30%)
   displ. norm   :     0.6263587 α      lambda       -0.1993033E-03
   maximum displ.:     0.3422245 α      in ANC's #1, #4, #2, ...

........................................................................
.............................. CYCLE   58 ..............................
........................................................................
   1   -315.5592847 -0.315559E+03  0.407E-02    1.42       0.0  T
   2   -315.5592854 -0.669365E-06  0.233E-02    1.42       1.0  T
   3   -315.5592833  0.212950E-05  0.444E-03    1.42       1.7  T
   4   -315.5592856 -0.233919E-05  0.191E-03    1.42       4.1  T
   5   -315.5592857 -0.126378E-06  0.910E-04    1.42       8.5  T
   6   -315.5592858 -0.886833E-07  0.337E-04    1.42      23.0  T
     SCC iter.                  ...        0 min,  0.226 sec
     gradient                   ...        0 min,  0.096 sec
 * total energy  :  -311.7007228 Eh     change       -0.1700130E-03 Eh
[...]
    91  17 Cl   1.150 --    90 C    0.989
    92  17 Cl   1.132 --    89 C    0.982
    93   6 C    3.949 --    83 C    1.368    70 C    1.249    94 S    1.103
    94  16 S    2.526 --    93 C    1.103    68 C    1.092
    95   6 C    3.962 --    96 C    1.535    82 C    1.234   154 H    0.941
    96   6 C    3.933 --    95 C    1.535    98 C    1.168    97 S    1.077
    97  16 S    2.501 --    81 C    1.103    96 C    1.077
    98   6 C    3.952 --    99 C    1.490    96 C    1.168   104 Se   1.119
    99   6 C    3.964 --    98 C    1.490   100 C    1.290   155 H    0.957
   100   6 C    3.982 --   103 C    1.466    99 C    1.290   101 C    1.006
   101   6 C    3.997 --   100 C    1.006   102 C    1.004   157 H    0.975
                           156 H    0.961
   102   6 C    3.995 --   101 C    1.004   159 H    0.988   158 H    0.986
                           160 H    0.985
   103   6 C    3.942 --   100 C    1.466   105 C    1.142   104 Se   1.140
   104  34 Se   2.696 --   103 C    1.140    98 C    1.119
   105   6 C    3.962 --   106 C    1.524   103 C    1.142   111 Se   1.138
   106   6 C    3.973 --   105 C    1.524   107 C    1.251   161 H    0.955
   107   6 C    3.985 --   110 C    1.582   106 C    1.251   108 C    1.007
   108   6 C    3.997 --   107 C    1.007   109 C    1.002   163 H    0.977
                           162 H    0.968
   109   6 C    3.996 --   108 C    1.002   166 H    0.988   165 H    0.988
                           164 H    0.986
   110   6 C    3.936 --   107 C    1.582   111 Se   1.207   167 H    0.955
   111  34 Se   2.730 --   110 C    1.207   105 C    1.138
   112   1 H    0.996 --     1 C    0.969
   113   1 H    0.997 --     2 C    0.960
   114   1 H    0.996 --     8 C    0.969
   115   1 H    0.995 --     8 C    0.965
   116   1 H    0.998 --     9 C    0.987
   117   1 H    0.998 --     9 C    0.988
   118   1 H    0.997 --     9 C    0.984
   119   1 H    0.996 --    20 C    0.971
   120   1 H    0.996 --    20 C    0.963
   121   1 H    0.997 --    21 C    0.984
   122   1 H    0.998 --    21 C    0.986
   123   1 H    0.997 --    21 C    0.987
   124   1 H    0.997 --    28 C    0.956
   125   1 H    0.996 --    32 C    0.955
   126   1 H    0.996 --    38 C    0.967
   127   1 H    0.996 --    38 C    0.964
   128   1 H    0.998 --    39 C    0.986
   129   1 H    0.997 --    39 C    0.984
   130   1 H    0.998 --    39 C    0.988
   131   1 H    0.996 --    50 C    0.964
   132   1 H    0.996 --    50 C    0.970
   133   1 H    0.998 --    51 C    0.988
   134   1 H    0.998 --    51 C    0.988
   135   1 H    0.997 --    51 C    0.984
   136   1 H    0.997 --    58 C    0.956
   137   1 H    0.997 --    62 C    0.959
   138   1 H    0.997 --    64 C    0.972
   139   1 H    0.996 --    64 C    0.961
   140   1 H    0.998 --    65 C    0.986
   141   1 H    0.998 --    65 C    0.988
   142   1 H    0.997 --    65 C    0.986
   143   1 H    0.997 --    69 C    0.958
   144   1 H    0.996 --    75 C    0.968
   145   1 H    0.996 --    75 C    0.965
   146   1 H    0.997 --    76 C    0.984
   147   1 H    0.998 --    76 C    0.987
   148   1 H    0.998 --    76 C    0.988
   149   1 H    0.996 --    87 C    0.966
   150   1 H    0.996 --    87 C    0.966
   151   1 H    0.997 --    88 C    0.984
   152   1 H    0.998 --    88 C    0.988
   153   1 H    0.998 --    88 C    0.987
   154   1 H    0.996 --    95 C    0.941
   155   1 H    0.997 --    99 C    0.957
   156   1 H    0.998 --   101 C    0.961
   157   1 H    0.998 --   101 C    0.975
   158   1 H    0.998 --   102 C    0.986
   159   1 H    0.999 --   102 C    0.988
   160   1 H    0.998 --   102 C    0.985
   161   1 H    0.998 --   106 C    0.955
   162   1 H    0.998 --   108 C    0.968
   163   1 H    0.998 --   108 C    0.977
   164   1 H    0.997 --   109 C    0.986
   165   1 H    0.998 --   109 C    0.988
   166   1 H    0.999 --   109 C    0.988
   167   1 H    0.997 --   110 C    0.955
 ---------------------------------------------------------------------------

Topologies differ in bond orders
Writing corrected topology to xtbtopo.mol

molecular dipole:
                 x           y           z       tot (Debye)
 q only:       -1.759       5.381       0.614
   full:       -0.944       3.161      -0.371       8.438
molecular quadrupole (traceless):
                xx          xy          yy          xz          yz          zz
 q only:       51.336     -19.568     -68.053     -14.084     -58.201      16.717
  q+dip:       38.878     -33.737     -48.218     -12.389     -36.874       9.340
   full:       36.264     -34.125     -44.378      -8.495     -35.952       8.115

           -------------------------------------------------
          |                Geometry Summary                 |
           -------------------------------------------------

      molecular mass/u    :     2112.4373632
   center of mass at/Å    :        0.1889306      -1.0233634       0.1700029
  moments of inertia/u·Å² :        0.4565355E+05   0.1901180E+06   0.2079321E+06
rotational constants/cm⁻¹ :        0.3692513E-03   0.8866930E-04   0.8107278E-04

 * 175 selected distances

     #   Z          #   Z                                           value/Å
     1   6 C        2   6 C                                       1.3485153
     2   6 C        3   6 C                                       1.4255021
     3   6 C        4   6 C                                       1.4032393
     5   6 C        6  16 S                                       1.7389871
     6  16 S        7   6 C                                       1.7306683
     7   6 C        8   6 C                                       1.4887016
     8   6 C        9   6 C                                       1.5306804
     7   6 C       10   6 C                                       1.3626543
    10   6 C       11  17 Cl                                      1.7157232
     5   6 C       12   6 C                                       1.3666729
    10   6 C       12   6 C                                       1.4212935
    12   6 C       13  17 Cl                                      1.7135613
     4   6 C       14   6 C                                       1.3893978
    14   6 C       15   6 C                                       1.4166194
    15   6 C       16   6 C                                       1.4052850
    17   6 C       18  16 S                                       1.7403072
    18  16 S       19   6 C                                       1.7297062
    19   6 C       20   6 C                                       1.4887265
    20   6 C       21   6 C                                       1.5311254
    19   6 C       22   6 C                                       1.3624958
    17   6 C       23   6 C                                       1.3683018
    22   6 C       23   6 C                                       1.4205146
    23   6 C       24  17 Cl                                      1.7132140
    22   6 C       25  17 Cl                                      1.7155612
     3   6 C       26   6 C                                       1.4156354
    16   6 C       26   6 C                                       1.3904842
     1   6 C       27  16 S                                       1.7282252
    26   6 C       27  16 S                                       1.7402991
    15   6 C       28   6 C                                       1.4153941
    28   6 C       29   6 C                                       1.3637824
    14   6 C       30  16 S                                       1.7410623
    29   6 C       30  16 S                                       1.7465608
    29   6 C       31   6 C                                       1.4302656
    31   6 C       32   6 C                                       1.3639748
    32   6 C       33   6 C                                       1.4141846
    33   6 C       34   6 C                                       1.4059465
    35   6 C       36  16 S                                       1.7398124
    36  16 S       37   6 C                                       1.7311072
    37   6 C       38   6 C                                       1.4883378
    38   6 C       39   6 C                                       1.5308431
    37   6 C       40   6 C                                       1.3621301
    40   6 C       41  17 Cl                                      1.7154081
    35   6 C       42   6 C                                       1.3682769
    40   6 C       42   6 C                                       1.4207702
    42   6 C       43  17 Cl                                      1.7131111
    34   6 C       44   6 C                                       1.3879209
    44   6 C       45   6 C                                       1.4179465
    45   6 C       46   6 C                                       1.4067395
    47   6 C       48  16 S                                       1.7398256
    48  16 S       49   6 C                                       1.7305093
    49   6 C       50   6 C                                       1.4888583
    50   6 C       51   6 C                                       1.5307473
    49   6 C       52   6 C                                       1.3624977
    47   6 C       53   6 C                                       1.3680752
    52   6 C       53   6 C                                       1.4209231
    53   6 C       54  17 Cl                                      1.7135952
    52   6 C       55  17 Cl                                      1.7155220
    33   6 C       56   6 C                                       1.4164339
    46   6 C       56   6 C                                       1.3907790
    31   6 C       57  16 S                                       1.7473581
    56   6 C       57  16 S                                       1.7412414
    45   6 C       58   6 C                                       1.4171453
    58   6 C       59   6 C                                       1.3652121
    44   6 C       60  16 S                                       1.7382393
    59   6 C       60  16 S                                       1.7493953
    59   6 C       61   6 C                                       1.4273472
    61   6 C       62   6 C                                       1.3738392
    62   6 C       63   6 C                                       1.4101671
    64   6 C       65   6 C                                       1.5292300
    63   6 C       66   6 C                                       1.3797490
    61   6 C       67  34 Se                                      1.8764441
    66   6 C       67  34 Se                                      1.8837565
    66   6 C       68   6 C                                       1.4320632
    68   6 C       69   6 C                                       1.3631305
    69   6 C       70   6 C                                       1.4174432
    70   6 C       71   6 C                                       1.4068460
    72   6 C       73  16 S                                       1.7382367
    73  16 S       74   6 C                                       1.7309333
    74   6 C       75   6 C                                       1.4886765
    75   6 C       76   6 C                                       1.5304319
    74   6 C       77   6 C                                       1.3629362
    77   6 C       78  17 Cl                                      1.7167546
    72   6 C       79   6 C                                       1.3686166
    77   6 C       79   6 C                                       1.4200281
    79   6 C       80  17 Cl                                      1.7163557
    71   6 C       81   6 C                                       1.3881148
    81   6 C       82   6 C                                       1.4166971
    82   6 C       83   6 C                                       1.4066700
    84   6 C       85  16 S                                       1.7394464
    85  16 S       86   6 C                                       1.7309559
    86   6 C       87   6 C                                       1.4884895
    87   6 C       88   6 C                                       1.5304223
    86   6 C       89   6 C                                       1.3623806
    84   6 C       90   6 C                                       1.3674738
    89   6 C       90   6 C                                       1.4211876
    90   6 C       91  17 Cl                                      1.7132221
    89   6 C       92  17 Cl                                      1.7159572
    70   6 C       93   6 C                                       1.4150743
    83   6 C       93   6 C                                       1.3888751
    68   6 C       94  16 S                                       1.7524864
    93   6 C       94  16 S                                       1.7402884
    82   6 C       95   6 C                                       1.4147382
    95   6 C       96   6 C                                       1.3639444
    81   6 C       97  16 S                                       1.7420070
    96   6 C       97  16 S                                       1.7543587
    96   6 C       98   6 C                                       1.4227508
    98   6 C       99   6 C                                       1.3716622
    99   6 C      100   6 C                                       1.4096919
   101   6 C      102   6 C                                       1.5287040
   100   6 C      103   6 C                                       1.3809658
    98   6 C      104  34 Se                                      1.8778159
   103   6 C      104  34 Se                                      1.8863754
   103   6 C      105   6 C                                       1.4354958
   105   6 C      106   6 C                                       1.3692880
   106   6 C      107   6 C                                       1.4166365
   108   6 C      109   6 C                                       1.5293831
   107   6 C      110   6 C                                       1.3616215
   105   6 C      111  34 Se                                      1.8876998 (max)
   110   6 C      111  34 Se                                      1.8542686
     1   6 C      112   1 H                                       1.0724451 (min)
     2   6 C      113   1 H                                       1.0743264
     8   6 C      114   1 H                                       1.0913834
     8   6 C      115   1 H                                       1.0915308
     9   6 C      116   1 H                                       1.0874509
     9   6 C      117   1 H                                       1.0869689
     9   6 C      118   1 H                                       1.0865993
    20   6 C      119   1 H                                       1.0906812
    20   6 C      120   1 H                                       1.0917897
    21   6 C      121   1 H                                       1.0866120
    21   6 C      122   1 H                                       1.0876827
    21   6 C      123   1 H                                       1.0867324
    28   6 C      124   1 H                                       1.0734491
    32   6 C      125   1 H                                       1.0734580
    38   6 C      126   1 H                                       1.0909247
    38   6 C      127   1 H                                       1.0913686
    39   6 C      128   1 H                                       1.0875377
    39   6 C      129   1 H                                       1.0866068
    39   6 C      130   1 H                                       1.0868841
    50   6 C      131   1 H                                       1.0914845
    50   6 C      132   1 H                                       1.0912362
    51   6 C      133   1 H                                       1.0870080
    51   6 C      134   1 H                                       1.0874681
    51   6 C      135   1 H                                       1.0865824
    58   6 C      136   1 H                                       1.0736765
    62   6 C      137   1 H                                       1.0764941
    64   6 C      138   1 H                                       1.0895525
    64   6 C      139   1 H                                       1.0938526
    65   6 C      140   1 H                                       1.0868355
    65   6 C      141   1 H                                       1.0876822
    65   6 C      142   1 H                                       1.0873436
    69   6 C      143   1 H                                       1.0739854
    75   6 C      144   1 H                                       1.0914644
    75   6 C      145   1 H                                       1.0913944
    76   6 C      146   1 H                                       1.0866132
    76   6 C      147   1 H                                       1.0874048
    76   6 C      148   1 H                                       1.0870659
    87   6 C      149   1 H                                       1.0911922
    87   6 C      150   1 H                                       1.0918764
    88   6 C      151   1 H                                       1.0865746
    88   6 C      152   1 H                                       1.0871675
    88   6 C      153   1 H                                       1.0876772
    95   6 C      154   1 H                                       1.0777247
    99   6 C      155   1 H                                       1.0784529
   101   6 C      156   1 H                                       1.0914219
   101   6 C      157   1 H                                       1.0917371
   102   6 C      158   1 H                                       1.0875419
   102   6 C      159   1 H                                       1.0875540
   102   6 C      160   1 H                                       1.0871160
   106   6 C      161   1 H                                       1.0756480
   108   6 C      162   1 H                                       1.0927446
   108   6 C      163   1 H                                       1.0912407
   109   6 C      164   1 H                                       1.0873681
   109   6 C      165   1 H                                       1.0875797
   109   6 C      166   1 H                                       1.0876888
   110   6 C      167   1 H                                       1.0755292

 * 5 distinct bonds (by element types)

   Z      Z             #   av. dist./Å        max./Å        min./Å
   1 H    6 C          56     1.0861681     1.0938526     1.0724451
   6 C    6 C          77     1.4178416     1.5311254     1.3485153
   6 C   16 S          24     1.7392507     1.7543587     1.7282252
   6 C   17 Cl         12     1.7148322     1.7167546     1.7131111
   6 C   34 Se          6     1.8777267     1.8876998     1.8542686


optimized geometry written to: xtbopt.mol


           -------------------------------------------------
          | TOTAL ENERGY             -311.716837803804 Eh   |
          | GRADIENT NORM               0.000208648496 Eh/α |
          | HOMO-LUMO GAP               1.433774526991 eV   |
           -------------------------------------------------

------------------------------------------------------------------------
 * finished run on 2022/02/28 at 23:20:35.156     
------------------------------------------------------------------------
 total:
 * wall-time:     0 d,  0 h,  2 min,  1.435 sec
 *  cpu-time:     0 d,  0 h, 16 min,  7.323 sec
 * ratio c/w:     7.966 speedup
 SCF:
 * wall-time:     0 d,  0 h,  0 min,  0.788 sec
 *  cpu-time:     0 d,  0 h,  0 min,  6.294 sec
 * ratio c/w:     7.986 speedup
 ANC optimizer:
 * wall-time:     0 d,  0 h,  1 min, 59.978 sec
 *  cpu-time:     0 d,  0 h, 15 min, 59.308 sec
 * ratio c/w:     7.996 speedup

