      -----------------------------------------------------------      
     |                   =====================                   |     
     |                           x T B                           |     
     |                   =====================                   |     
     |                         S. Grimme                         |     
     |          Mulliken Center for Theoretical Chemistry        |     
     |                    University of Bonn                     |     
      -----------------------------------------------------------      

   * xtb version 6.4.1 (unknown) compiled by 'oda6@login1.crc.pitt.edu' on 2021-06-25

   xtb is free software: you can redistribute it and/or modify it under
   the terms of the GNU Lesser General Public License as published by
   the Free Software Foundation, either version 3 of the License, or
   (at your option) any later version.
   
   xtb is distributed in the hope that it will be useful,
   but WITHOUT ANY WARRANTY; without even the implied warranty of
   MERCHANTABILITY or FITNESS FOR A PARTICULAR PURPOSE.  See the
   GNU Lesser General Public License for more details.
   
   Cite this work as:
   * C. Bannwarth, E. Caldeweyher, S. Ehlert, A. Hansen, P. Pracht,
     J. Seibert, S. Spicher, S. Grimme, WIREs Comput. Mol. Sci., 2020, 11,
     e01493. DOI: 10.1002/wcms.1493
   
   for GFN2-xTB:
   * C. Bannwarth, S. Ehlert and S. Grimme., J. Chem. Theory Comput., 2019,
     15, 1652-1671. DOI: 10.1021/acs.jctc.8b01176
   for GFN1-xTB:
   * S. Grimme, C. Bannwarth, P. Shushkov, J. Chem. Theory Comput., 2017,
     13, 1989-2009. DOI: 10.1021/acs.jctc.7b00118
   for GFN0-xTB:
   * P. Pracht, E. Caldeweyher, S. Ehlert, S. Grimme, ChemRxiv, 2019, preprint.
     DOI: 10.26434/chemrxiv.8326202.v1
   for GFN-FF:
   * S. Spicher and S. Grimme, Angew. Chem. Int. Ed., 2020, 59, 15665-15673.
     DOI: 10.1002/anie.202004239
   
   for DFT-D4:
   * E. Caldeweyher, C. Bannwarth and S. Grimme, J. Chem. Phys., 2017,
     147, 034112. DOI: 10.1063/1.4993215
   * E. Caldeweyher, S. Ehlert, A. Hansen, H. Neugebauer, S. Spicher,
     C. Bannwarth and S. Grimme, J. Chem. Phys., 2019, 150, 154122.
     DOI: 10.1063/1.5090222
   * E. Caldeweyher, J.-M. Mewes, S. Ehlert and S. Grimme, Phys. Chem. Chem. Phys.
     2020, 22, 8499-8512. DOI: 10.1039/D0CP00502A
   
   for sTDA-xTB:
   * S. Grimme and C. Bannwarth, J. Chem. Phys., 2016, 145, 054103.
     DOI: 10.1063/1.4959605
   
   in the mass-spec context:
   * V. Asgeirsson, C. Bauer and S. Grimme, Chem. Sci., 2017, 8, 4879.
     DOI: 10.1039/c7sc00601b
   * J. Koopman and S. Grimme, ACS Omega 2019, 4, 12, 15120-15133.
     DOI: 10.1021/acsomega.9b02011
   
   for metadynamics refer to:
   * S. Grimme, J. Chem. Theory Comput., 2019, 155, 2847-2862
     DOI: 10.1021/acs.jctc.9b00143
   
   for SPH calculations refer to:
   * S. Spicher and S. Grimme, J. Chem. Theory Comput., 2021, 17, 1701-1714
     DOI: 10.1021/acs.jctc.0c01306
   
   with help from (in alphabetical order)
   P. Atkinson, C. Bannwarth, F. Bohle, G. Brandenburg, E. Caldeweyher
   M. Checinski, S. Dohm, S. Ehlert, S. Ehrlich, I. Gerasimov, J. Koopman
   C. Lavigne, S. Lehtola, F. März, M. Müller, F. Musil, H. Neugebauer
   J. Pisarek, C. Plett, P. Pracht, J. Seibert, P. Shushkov, S. Spicher
   M. Stahn, M. Steiner, T. Strunk, J. Stückrath, T. Rose, and J. Unsleber
   
 * started run on 2022/03/02 at 20:52:42.080     

           -------------------------------------------------
          |                Calculation Setup                |
           -------------------------------------------------

          program call               : /ihome/ghutchison/oda6/xtb/xtb-641/bin/xtb ../../FF_optimized/534_61_110111.mol -opt
          hostname                   : smp-n90
          coordinate file            : ../../FF_optimized/534_61_110111.mol
          omp threads                :                     8
          number of atoms            :                   240
          number of electrons        :                   836
          charge                     :                     0
          spin                       :                   0.0
          first test random number   :      0.34189989700051

   ID    Z sym.   atoms
    1    6 C      1-5, 7-10, 12, 14-17, 19-23, 26, 28, 29, 31-35, 37-40, 42,
                  44-47, 49-53, 56, 58, 59, 61, 62, 64-67, 69-79, 81-84, 86,
                  88-91, 93-97, 100, 102, 103, 105-109, 111-114, 116,
                  118-121, 123-127, 130, 132, 133, 135-139, 141-144, 146,
                  148-151, 153-157, 160, 162, 163
    2   16 S      6, 18, 27, 30, 36, 48, 57, 60, 80, 92, 101, 104, 110, 122,
                  131, 134, 140, 152, 161, 164
    3   17 Cl     11, 13, 24, 25, 41, 43, 54, 55, 85, 87, 98, 99, 115, 117,
                  128, 129, 145, 147, 158, 159
    4    8 O      63, 68
    5    1 H      165-240
########################################################################
[WARNING] Please study the warnings concerning your input carefully
-1- prog_main_parseArguments: the use of '-opt' is discouraged, please use '--opt' next time
########################################################################

           -------------------------------------------------
          |                 G F N 2 - x T B                 |
           -------------------------------------------------

        Reference                      10.1021/acs.jctc.8b01176
      * Hamiltonian:
        H0-scaling (s, p, d)           1.850000    2.230000    2.230000
        zeta-weighting                 0.500000
      * Dispersion:
        s8                             2.700000
        a1                             0.520000
        a2                             5.000000
        s9                             5.000000
      * Repulsion:
        kExp                           1.500000    1.000000
        rExp                           1.000000
      * Coulomb:
        alpha                          2.000000
        third order                    shell-resolved
        anisotropic                    true
        a3                             3.000000
        a5                             4.000000
        cn-shift                       1.200000
        cn-exp                         4.000000
        max-rad                        5.000000


          ...................................................
          :                      SETUP                      :
          :.................................................:
          :  # basis functions                 972          :
          :  # atomic orbitals                 932          :
          :  # shells                          444          :
          :  # electrons                       836          :
          :  max. iterations                   250          :
          :  Hamiltonian                  GFN2-xTB          :
          :  restarted?                      false          :
          :  GBSA solvation                  false          :
          :  PC potential                    false          :
          :  electronic temp.          300.0000000     K    :
          :  accuracy                    1.0000000          :
          :  -> integral cutoff          0.2500000E+02      :
          :  -> integral neglect         0.1000000E-07      :
          :  -> SCF convergence          0.1000000E-05 Eh   :
          :  -> wf. convergence          0.1000000E-03 e    :
          :  Broyden damping             0.4000000          :
          ...................................................

 iter      E             dE          RMSdq      gap      omega  full diag
   1   -469.2492752 -0.469249E+03  0.421E+00    1.73       0.0  T
   2   -469.5386876 -0.289412E+00  0.238E+00    1.53       1.0  T
   3   -469.2894975  0.249190E+00  0.131E+00    1.69       1.0  T
   4   -469.5641031 -0.274606E+00  0.580E-01    1.51       1.0  T
   5   -469.6190106 -0.549075E-01  0.196E-01    1.55       1.0  T
   6   -469.6213555 -0.234489E-02  0.117E-01    1.57       1.0  T
   7   -469.6223854 -0.102990E-02  0.766E-02    1.56       1.0  T
   8   -469.6227869 -0.401557E-03  0.581E-02    1.57       1.0  T
   9   -469.6229763 -0.189406E-03  0.418E-02    1.57       1.0  T
  10   -469.6231592 -0.182880E-03  0.226E-02    1.57       1.0  T
  11   -469.6232037 -0.445030E-04  0.139E-02    1.57       1.0  T
  12   -469.6232235 -0.197983E-04  0.698E-03    1.57       1.0  T
  13   -469.6232276 -0.408155E-05  0.409E-03    1.57       1.6  T
  14   -469.6232300 -0.239831E-05  0.229E-03    1.57       2.8  T
  15   -469.6232303 -0.320885E-06  0.171E-03    1.57       3.8  T
  16   -469.6232305 -0.217110E-06  0.117E-03    1.57       5.5  T
  17   -469.6232306 -0.117303E-06  0.829E-04    1.57       7.8  T
  18   -469.6232307 -0.688422E-07  0.540E-04    1.57      12.0  T

   *** convergence criteria satisfied after 18 iterations ***

         #    Occupation            Energy/Eh            Energy/eV
      -------------------------------------------------------------
         1        2.0000           -1.0632697             -28.9330
       ...           ...                  ...                  ...
       412        2.0000           -0.3877307             -10.5507
       413        2.0000           -0.3776701             -10.2769
       414        2.0000           -0.3739102             -10.1746
       415        2.0000           -0.3689282             -10.0390
       416        2.0000           -0.3675691             -10.0021
       417        2.0000           -0.3666370              -9.9767
       418        2.0000           -0.3610163              -9.8238 (HOMO)
       419                         -0.3031751              -8.2498 (LUMO)
       420                         -0.3011042              -8.1935
       421                         -0.2978780              -8.1057
       422                         -0.2886178              -7.8537
       423                         -0.2832934              -7.7088
       ...                                ...                  ...
       932                          0.7807939              21.2465
      -------------------------------------------------------------
                  HL-Gap            0.0578411 Eh            1.5739 eV
             Fermi-level           -0.3320957 Eh           -9.0368 eV

 SCC (total)                   0 d,  0 h,  0 min,  1.696 sec
 SCC setup                      ...        0 min,  0.005 sec (  0.274%)
 Dispersion                     ...        0 min,  0.012 sec (  0.696%)
 classical contributions        ...        0 min,  0.001 sec (  0.031%)
 integral evaluation            ...        0 min,  0.073 sec (  4.309%)
 iterations                     ...        0 min,  1.362 sec ( 80.309%)
 molecular gradient             ...        0 min,  0.236 sec ( 13.889%)
 printout                       ...        0 min,  0.008 sec (  0.487%)

         :::::::::::::::::::::::::::::::::::::::::::::::::::::
         ::                     SUMMARY                     ::
         :::::::::::::::::::::::::::::::::::::::::::::::::::::
         :: total energy            -464.215166520257 Eh    ::
         :: gradient norm              0.414174059087 Eh/a0 ::
         :: HOMO-LUMO gap              1.573937041202 eV    ::
         ::.................................................::
         :: SCC energy              -469.623230711356 Eh    ::
         :: -> isotropic ES            0.126244044523 Eh    ::
         :: -> anisotropic ES         -0.017356674874 Eh    ::
         :: -> anisotropic XC          0.125589759344 Eh    ::
         :: -> dispersion             -0.467746478960 Eh    ::
         :: repulsion energy           5.392355329356 Eh    ::
         :: add. restraining           0.000000000000 Eh    ::
         :: total charge              -0.000000000000 e     ::
         :::::::::::::::::::::::::::::::::::::::::::::::::::::

      ----------------------------------------------------------- 
     |                   =====================                   |
     |                        A N C O P T                        |
     |                   =====================                   |
     |               Approximate Normal Coordinate               |
     |                Rational Function Optimizer                |
      ----------------------------------------------------------- 

          ...................................................
          :                      SETUP                      :
          :.................................................:
          :   optimization level            normal          :
          :   max. optcycles                   720          :
          :   ANC micro-cycles                  20          :
          :   degrees of freedom               714          :
          :.................................................:
          :   RF solver                   davidson          :
          :   write xtbopt.log                true          :
          :   linear?                        false          :
          :   energy convergence         0.5000000E-05 Eh   :
          :   grad. convergence          0.1000000E-02 Eh/α :
          :   maximium RF displ.         1.0000000          :
          :   Hlow (freq-cutoff)         0.1000000E-01      :
          :   Hmax (freq-cutoff)         5.0000000          :
          :   S6 in model hess.         20.0000000          :
          ...................................................

generating ANC from model Hessian ...
Using Lindh-Hessian (1995)
 Shifting diagonal of input Hessian by   9.995434724817294E-003
 Lowest  eigenvalues of input Hessian
    0.000000    0.000000    0.000000    0.000000    0.000000    0.000000
    0.010000    0.010008    0.010013    0.010022    0.010031    0.010038
    0.010058    0.010063    0.010069    0.010082    0.010087    0.010097
 Highest eigenvalues
    2.041630    2.080416    2.098591    2.100466    2.106448    2.107798
 

........................................................................
.............................. CYCLE    1 ..............................
........................................................................
   1   -469.6232307 -0.469623E+03  0.347E-04    1.57       0.0  T
   2   -469.6232307  0.197423E-08  0.323E-04    1.57      20.0  T
   3   -469.6232308 -0.139425E-07  0.229E-04    1.57      28.2  T
     SCC iter.                  ...        0 min,  0.234 sec
     gradient                   ...        0 min,  0.234 sec
 * total energy  :  -464.2151666 Eh     change       -0.4350227E-07 Eh
   gradient norm :     0.4141757 Eh/α   predicted     0.0000000E+00 (-100.00%)
   displ. norm   :     0.4343340 α      lambda       -0.1419315E+00
   maximum displ.:     0.0985220 α      in ANC's #612, #610, #385, ...

........................................................................
.............................. CYCLE    2 ..............................
........................................................................
   1   -469.7886101 -0.469789E+03  0.266E-01    1.64       0.0  T
   2   -469.7903323 -0.172227E-02  0.160E-01    1.65       1.0  T
   3   -469.7903015  0.308562E-04  0.874E-02    1.65       1.0  T
   4   -469.7912065 -0.905055E-03  0.411E-02    1.65       1.0  T
   5   -469.7913433 -0.136751E-03  0.210E-02    1.65       1.0  T
   6   -469.7913906 -0.473194E-04  0.126E-02    1.65       1.0  T
   7   -469.7914054 -0.148467E-04  0.855E-03    1.65       1.0  T
   8   -469.7914097 -0.430716E-05  0.631E-03    1.65       1.0  T
   9   -469.7914131 -0.337706E-05  0.341E-03    1.65       1.9  T
  10   -469.7914144 -0.131118E-05  0.188E-03    1.65       3.4  T
  11   -469.7914149 -0.495728E-06  0.844E-04    1.65       7.6  T
  12   -469.7914150 -0.226476E-07  0.567E-04    1.65      11.4  T
     SCC iter.                  ...        0 min,  0.918 sec
     gradient                   ...        0 min,  0.233 sec
 * total energy  :  -464.3252066 Eh     change       -0.1100400E+00 Eh
   gradient norm :     0.2356044 Eh/α   predicted    -0.8436370E-01 ( -23.33%)
   displ. norm   :     0.4449124 α      lambda       -0.8508053E-01
   maximum displ.:     0.1124986 α      in ANC's #612, #610, #660, ...

........................................................................
.............................. CYCLE    3 ..............................
........................................................................
   1   -469.9213980 -0.469921E+03  0.278E-01    1.71       0.0  T
   2   -469.9238967 -0.249868E-02  0.166E-01    1.70       1.0  T
   3   -469.9243080 -0.411295E-03  0.893E-02    1.71       1.0  T
   4   -469.9250566 -0.748643E-03  0.482E-02    1.71       1.0  T
   5   -469.9252455 -0.188856E-03  0.232E-02    1.71       1.0  T
   6   -469.9252820 -0.365481E-04  0.160E-02    1.71       1.0  T
   7   -469.9253059 -0.239042E-04  0.107E-02    1.71       1.0  T
   8   -469.9253131 -0.715443E-05  0.753E-03    1.71       1.0  T
   9   -469.9253189 -0.581740E-05  0.371E-03    1.71       1.7  T
  10   -469.9253201 -0.125564E-05  0.203E-03    1.71       3.2  T
  11   -469.9253207 -0.609390E-06  0.933E-04    1.71       6.9  T
  12   -469.9253208 -0.356549E-07  0.639E-04    1.71      10.1  T
     SCC iter.                  ...        0 min,  0.921 sec
     gradient                   ...        0 min,  0.234 sec
 * total energy  :  -464.3780622 Eh     change       -0.5285561E-01 Eh
   gradient norm :     0.0627581 Eh/α   predicted    -0.5096638E-01 (  -3.57%)
   displ. norm   :     0.4636459 α      lambda       -0.1434586E-01
   maximum displ.:     0.1199807 α      in ANC's #77, #124, #109, ...

........................................................................
.............................. CYCLE    4 ..............................
........................................................................
   1   -469.9644941 -0.469964E+03  0.117E-01    1.70       0.0  T
   2   -469.9647580 -0.263967E-03  0.686E-02    1.70       1.0  T
   3   -469.9646908  0.672364E-04  0.387E-02    1.71       1.0  T
   4   -469.9648760 -0.185220E-03  0.169E-02    1.71       1.0  T
   5   -469.9649000 -0.239639E-04  0.877E-03    1.71       1.0  T
   6   -469.9649060 -0.604663E-05  0.593E-03    1.71       1.1  T
   7   -469.9649092 -0.316070E-05  0.411E-03    1.71       1.6  T
   8   -469.9649103 -0.107656E-05  0.286E-03    1.71       2.3  T
   9   -469.9649110 -0.782391E-06  0.147E-03    1.71       4.4  T
  10   -469.9649113 -0.238259E-06  0.755E-04    1.71       8.6  T
  11   -469.9649114 -0.739780E-07  0.388E-04    1.71      16.7  T
     SCC iter.                  ...        0 min,  0.832 sec
     gradient                   ...        0 min,  0.233 sec
 * total energy  :  -464.3880020 Eh     change       -0.9939833E-02 Eh
   gradient norm :     0.0245553 Eh/α   predicted    -0.8715278E-02 ( -12.32%)
   displ. norm   :     0.5159858 α      lambda       -0.6003722E-02
   maximum displ.:     0.1708937 α      in ANC's #77, #109, #75, ...

........................................................................
.............................. CYCLE    5 ..............................
........................................................................
   1   -469.9903796 -0.469990E+03  0.753E-02    1.69       0.0  T
   2   -469.9904213 -0.416996E-04  0.427E-02    1.69       1.0  T
   3   -469.9903649  0.563182E-04  0.205E-02    1.70       1.0  T
   4   -469.9904345 -0.695697E-04  0.705E-03    1.70       1.0  T
   5   -469.9904382 -0.367780E-05  0.403E-03    1.69       1.6  T
   6   -469.9904404 -0.222262E-05  0.218E-03    1.69       3.0  T
   7   -469.9904408 -0.378813E-06  0.161E-03    1.69       4.0  T
   8   -469.9904410 -0.161777E-06  0.117E-03    1.69       5.5  T
   9   -469.9904411 -0.115318E-06  0.629E-04    1.69      10.3  T
  10   -469.9904411 -0.450408E-07  0.349E-04    1.69      18.5  T
     SCC iter.                  ...        0 min,  0.762 sec
     gradient                   ...        0 min,  0.235 sec
 * total energy  :  -464.3924315 Eh     change       -0.4429492E-02 Eh
   gradient norm :     0.0140924 Eh/α   predicted    -0.3801211E-02 ( -14.18%)
   displ. norm   :     0.5383761 α      lambda       -0.3405000E-02
   maximum displ.:     0.1923631 α      in ANC's #77, #75, #107, ...

........................................................................
.............................. CYCLE    6 ..............................
........................................................................
   1   -470.0133625 -0.470013E+03  0.666E-02    1.68       0.0  T
   2   -470.0133790 -0.164726E-04  0.373E-02    1.68       1.0  T
   3   -470.0133406  0.383948E-04  0.154E-02    1.69       1.0  T
   4   -470.0133841 -0.435366E-04  0.487E-03    1.69       1.3  T
   5   -470.0133857 -0.158948E-05  0.270E-03    1.68       2.4  T
   6   -470.0133869 -0.118283E-05  0.107E-03    1.68       6.1  T
   7   -470.0133870 -0.122223E-06  0.690E-04    1.68       9.4  T
   8   -470.0133871 -0.241396E-07  0.528E-04    1.68      12.2  T
     SCC iter.                  ...        0 min,  0.606 sec
     gradient                   ...        0 min,  0.233 sec
 * total energy  :  -464.3950094 Eh     change       -0.2577854E-02 Eh
   gradient norm :     0.0128825 Eh/α   predicted    -0.2196101E-02 ( -14.81%)
   displ. norm   :     0.5498681 α      lambda       -0.2244244E-02
   maximum displ.:     0.1819847 α      in ANC's #77, #75, #40, ...

........................................................................
.............................. CYCLE    7 ..............................
........................................................................
   1   -470.0310719 -0.470031E+03  0.669E-02    1.67       0.0  T
   2   -470.0310860 -0.140749E-04  0.377E-02    1.68       1.0  T
   3   -470.0310450  0.410161E-04  0.151E-02    1.68       1.0  T
   4   -470.0310910 -0.459816E-04  0.476E-03    1.68       1.4  T
   5   -470.0310929 -0.192077E-05  0.246E-03    1.68       2.6  T
   6   -470.0310937 -0.837781E-06  0.104E-03    1.68       6.2  T
   7   -470.0310939 -0.152150E-06  0.567E-04    1.68      11.4  T
   8   -470.0310939 -0.150684E-07  0.444E-04    1.68      14.5  T
     SCC iter.                  ...        0 min,  0.613 sec
     gradient                   ...        0 min,  0.233 sec
 * total energy  :  -464.3967608 Eh     change       -0.1751414E-02 Eh
   gradient norm :     0.0115846 Eh/α   predicted    -0.1461475E-02 ( -16.55%)
   displ. norm   :     0.5789572 α      lambda       -0.1756167E-02
   maximum displ.:     0.1491435 α      in ANC's #77, #40, #75, ...

........................................................................
.............................. CYCLE    8 ..............................
........................................................................
   1   -470.0417882 -0.470042E+03  0.706E-02    1.67       0.0  T
   2   -470.0418008 -0.125973E-04  0.399E-02    1.67       1.0  T
   3   -470.0417579  0.429020E-04  0.148E-02    1.67       1.0  T
   4   -470.0418052 -0.473500E-04  0.476E-03    1.67       1.4  T
   5   -470.0418074 -0.211589E-05  0.240E-03    1.67       2.7  T
   6   -470.0418082 -0.791284E-06  0.105E-03    1.67       6.1  T
   7   -470.0418083 -0.161426E-06  0.586E-04    1.67      11.0  T
   8   -470.0418083 -0.153049E-07  0.464E-04    1.67      13.9  T
     SCC iter.                  ...        0 min,  0.608 sec
     gradient                   ...        0 min,  0.234 sec
 * total energy  :  -464.3981720 Eh     change       -0.1411268E-02 Eh
   gradient norm :     0.0089486 Eh/α   predicted    -0.1172425E-02 ( -16.92%)
   displ. norm   :     0.6182858 α      lambda       -0.1541149E-02
   maximum displ.:     0.1630230 α      in ANC's #40, #31, #25, ...

........................................................................
.............................. CYCLE    9 ..............................
........................................................................
   1   -470.0453920 -0.470045E+03  0.744E-02    1.66       0.0  T
   2   -470.0454018 -0.985518E-05  0.422E-02    1.66       1.0  T
   3   -470.0453593  0.425146E-04  0.141E-02    1.67       1.0  T
   4   -470.0454060 -0.467015E-04  0.451E-03    1.67       1.4  T
   5   -470.0454076 -0.155946E-05  0.234E-03    1.67       2.8  T
   6   -470.0454085 -0.886782E-06  0.966E-04    1.67       6.7  T
   7   -470.0454086 -0.124758E-06  0.592E-04    1.67      10.9  T
     SCC iter.                  ...        0 min,  0.544 sec
     gradient                   ...        0 min,  0.234 sec
 * total energy  :  -464.3994419 Eh     change       -0.1269869E-02 Eh
   gradient norm :     0.0079076 Eh/α   predicted    -0.1065149E-02 ( -16.12%)
   displ. norm   :     0.6541260 α      lambda       -0.1417128E-02
   maximum displ.:     0.1903451 α      in ANC's #31, #25, #40, ...

........................................................................
.............................. CYCLE   10 ..............................
........................................................................
   1   -470.0431300 -0.470043E+03  0.764E-02    1.65       0.0  T
   2   -470.0431378 -0.778205E-05  0.435E-02    1.66       1.0  T
   3   -470.0430949  0.428973E-04  0.139E-02    1.66       1.0  T
   4   -470.0431425 -0.476137E-04  0.422E-03    1.66       1.5  T
   5   -470.0431432 -0.685461E-06  0.226E-03    1.66       2.9  T
   6   -470.0431442 -0.985816E-06  0.889E-04    1.66       7.3  T
   7   -470.0431442 -0.661237E-07  0.650E-04    1.66       9.9  T
     SCC iter.                  ...        0 min,  0.540 sec
     gradient                   ...        0 min,  0.234 sec
 * total energy  :  -464.4006231 Eh     change       -0.1181171E-02 Eh
   gradient norm :     0.0087372 Eh/α   predicted    -0.1011748E-02 ( -14.34%)
   displ. norm   :     0.6729081 α      lambda       -0.1256186E-02
   maximum displ.:     0.2102294 α      in ANC's #25, #31, #33, ...

........................................................................
.............................. CYCLE   11 ..............................
........................................................................
   1   -470.0376291 -0.470038E+03  0.755E-02    1.65       0.0  T
   2   -470.0376365 -0.747602E-05  0.430E-02    1.65       1.0  T
   3   -470.0375953  0.411784E-04  0.137E-02    1.65       1.0  T
   4   -470.0376413 -0.459337E-04  0.405E-03    1.66       1.6  T
   5   -470.0376418 -0.529980E-06  0.210E-03    1.65       3.1  T
   6   -470.0376426 -0.832019E-06  0.867E-04    1.65       7.4  T
   7   -470.0376427 -0.438949E-07  0.661E-04    1.65       9.8  T
     SCC iter.                  ...        0 min,  0.548 sec
     gradient                   ...        0 min,  0.235 sec
 * total energy  :  -464.4016651 Eh     change       -0.1042049E-02 Eh
   gradient norm :     0.0084643 Eh/α   predicted    -0.9125019E-03 ( -12.43%)
   displ. norm   :     0.6678966 α      lambda       -0.1036389E-02
   maximum displ.:     0.2214074 α      in ANC's #25, #31, #33, ...

........................................................................
.............................. CYCLE   12 ..............................
........................................................................
   1   -470.0324948 -0.470032E+03  0.707E-02    1.65       0.0  T
   2   -470.0325018 -0.698624E-05  0.404E-02    1.65       1.0  T
   3   -470.0324677  0.340585E-04  0.126E-02    1.65       1.0  T
   4   -470.0325056 -0.379230E-04  0.378E-03    1.65       1.7  T
   5   -470.0325063 -0.716324E-06  0.183E-03    1.65       3.5  T
   6   -470.0325069 -0.525121E-06  0.836E-04    1.65       7.7  T
   7   -470.0325069 -0.468621E-07  0.612E-04    1.65      10.6  T
     SCC iter.                  ...        0 min,  0.537 sec
     gradient                   ...        0 min,  0.234 sec
 * total energy  :  -464.4025167 Eh     change       -0.8516086E-03 Eh
   gradient norm :     0.0066315 Eh/α   predicted    -0.7493649E-03 ( -12.01%)
   displ. norm   :     0.6483501 α      lambda       -0.8299377E-03
   maximum displ.:     0.2237786 α      in ANC's #25, #31, #24, ...

........................................................................
.............................. CYCLE   13 ..............................
........................................................................
   1   -470.0300271 -0.470030E+03  0.634E-02    1.65       0.0  T
   2   -470.0300325 -0.542133E-05  0.362E-02    1.65       1.0  T
   3   -470.0300050  0.275473E-04  0.113E-02    1.65       1.0  T
   4   -470.0300356 -0.306055E-04  0.334E-03    1.65       1.9  T
   5   -470.0300362 -0.561213E-06  0.163E-03    1.65       4.0  T
   6   -470.0300366 -0.406129E-06  0.772E-04    1.65       8.4  T
   7   -470.0300366 -0.430896E-07  0.558E-04    1.65      11.6  T
     SCC iter.                  ...        0 min,  0.535 sec
     gradient                   ...        0 min,  0.234 sec
 * total energy  :  -464.4032015 Eh     change       -0.6847933E-03 Eh
   gradient norm :     0.0054368 Eh/α   predicted    -0.5894053E-03 ( -13.93%)
   displ. norm   :     0.6407848 α      lambda       -0.7146029E-03
   maximum displ.:     0.2240236 α      in ANC's #25, #31, #24, ...

........................................................................
.............................. CYCLE   14 ..............................
........................................................................
   1   -470.0304836 -0.470030E+03  0.567E-02    1.64       0.0  T
   2   -470.0304876 -0.402531E-05  0.325E-02    1.64       1.0  T
   3   -470.0304628  0.248407E-04  0.107E-02    1.64       1.0  T
   4   -470.0304904 -0.276275E-04  0.295E-03    1.64       2.2  T
   5   -470.0304907 -0.309628E-06  0.156E-03    1.64       4.1  T
   6   -470.0304911 -0.389253E-06  0.747E-04    1.64       8.6  T
   7   -470.0304912 -0.388359E-07  0.556E-04    1.64      11.6  T
     SCC iter.                  ...        0 min,  0.533 sec
     gradient                   ...        0 min,  0.234 sec
 * total energy  :  -464.4038034 Eh     change       -0.6019108E-03 Eh
   gradient norm :     0.0060712 Eh/α   predicted    -0.5040192E-03 ( -16.26%)
   displ. norm   :     0.6617247 α      lambda       -0.6958602E-03
   maximum displ.:     0.2267034 α      in ANC's #25, #31, #24, ...

........................................................................
.............................. CYCLE   15 ..............................
........................................................................
   1   -470.0327712 -0.470033E+03  0.533E-02    1.64       0.0  T
   2   -470.0327748 -0.362187E-05  0.305E-02    1.64       1.0  T
   3   -470.0327507  0.241855E-04  0.107E-02    1.64       1.0  T
   4   -470.0327776 -0.269834E-04  0.283E-03    1.64       2.3  T
   5   -470.0327779 -0.260913E-06  0.157E-03    1.64       4.1  T
   6   -470.0327783 -0.364722E-06  0.792E-04    1.64       8.2  T
   7   -470.0327783 -0.433596E-07  0.607E-04    1.64      10.6  T
     SCC iter.                  ...        0 min,  0.549 sec
     gradient                   ...        0 min,  0.234 sec
 * total energy  :  -464.4044014 Eh     change       -0.5979525E-03 Eh
   gradient norm :     0.0068748 Eh/α   predicted    -0.5003187E-03 ( -16.33%)
   displ. norm   :     0.6879968 α      lambda       -0.7217345E-03
   maximum displ.:     0.2220354 α      in ANC's #25, #24, #3, ...

........................................................................
.............................. CYCLE   16 ..............................
........................................................................
   1   -470.0372087 -0.470037E+03  0.499E-02    1.64       0.0  T
   2   -470.0372124 -0.376806E-05  0.285E-02    1.64       1.0  T
   3   -470.0371904  0.220111E-04  0.105E-02    1.64       1.0  T
   4   -470.0372152 -0.247458E-04  0.280E-03    1.64       2.3  T
   5   -470.0372155 -0.361266E-06  0.151E-03    1.64       4.3  T
   6   -470.0372158 -0.269129E-06  0.852E-04    1.64       7.6  T
   7   -470.0372158 -0.495367E-07  0.661E-04    1.64       9.8  T
     SCC iter.                  ...        0 min,  0.541 sec
     gradient                   ...        0 min,  0.233 sec
 * total energy  :  -464.4050133 Eh     change       -0.6119414E-03 Eh
   gradient norm :     0.0076240 Eh/α   predicted    -0.5316813E-03 ( -13.12%)
   displ. norm   :     0.7225308 α      lambda       -0.7480914E-03
   maximum displ.:     0.2222034 α      in ANC's #3, #25, #24, ...

........................................................................
.............................. CYCLE   17 ..............................
........................................................................
   1   -470.0360346 -0.470036E+03  0.549E-02    1.64       0.0  T
   2   -470.0360400 -0.546375E-05  0.314E-02    1.64       1.0  T
   3   -470.0360135  0.265256E-04  0.113E-02    1.64       1.0  T
   4   -470.0360432 -0.296577E-04  0.323E-03    1.64       2.0  T
   5   -470.0360439 -0.759224E-06  0.170E-03    1.64       3.8  T
   6   -470.0360443 -0.322538E-06  0.921E-04    1.64       7.0  T
   7   -470.0360443 -0.737609E-07  0.677E-04    1.64       9.5  T
     SCC iter.                  ...        0 min,  0.537 sec
     gradient                   ...        0 min,  0.234 sec
 * total energy  :  -464.4055692 Eh     change       -0.5559018E-03 Eh
   gradient norm :     0.0085192 Eh/α   predicted    -0.5693234E-03 (   2.41%)
   displ. norm   :     0.6620635 α      lambda       -0.7292570E-03
   maximum displ.:     0.2146335 α      in ANC's #3, #24, #25, ...

........................................................................
.............................. CYCLE   18 ..............................
........................................................................
   1   -470.0419158 -0.470042E+03  0.453E-02    1.64       0.0  T
   2   -470.0419193 -0.347406E-05  0.259E-02    1.63       1.0  T
   3   -470.0418977  0.215964E-04  0.102E-02    1.64       1.0  T
   4   -470.0419218 -0.241066E-04  0.275E-03    1.63       2.3  T
   5   -470.0419222 -0.446812E-06  0.147E-03    1.63       4.4  T
   6   -470.0419225 -0.280630E-06  0.791E-04    1.63       8.2  T
   7   -470.0419226 -0.483362E-07  0.603E-04    1.63      10.7  T
     SCC iter.                  ...        0 min,  0.537 sec
     gradient                   ...        0 min,  0.233 sec
 * total energy  :  -464.4060884 Eh     change       -0.5192011E-03 Eh
   gradient norm :     0.0090062 Eh/α   predicted    -0.5244604E-03 (   1.01%)
   displ. norm   :     0.6497932 α      lambda       -0.5697045E-03
   maximum displ.:     0.2204837 α      in ANC's #3, #25, #24, ...

........................................................................
.............................. CYCLE   19 ..............................
........................................................................
   1   -470.0366509 -0.470037E+03  0.468E-02    1.63       0.0  T
   2   -470.0366537 -0.282559E-05  0.268E-02    1.63       1.0  T
   3   -470.0366257  0.280115E-04  0.114E-02    1.63       1.0  T
   4   -470.0366570 -0.313004E-04  0.245E-03    1.63       2.6  T
   5   -470.0366572 -0.220791E-06  0.146E-03    1.63       4.4  T
   6   -470.0366575 -0.315861E-06  0.696E-04    1.63       9.3  T
   7   -470.0366576 -0.447293E-07  0.500E-04    1.63      12.9  T
     SCC iter.                  ...        0 min,  0.535 sec
     gradient                   ...        0 min,  0.234 sec
 * total energy  :  -464.4064786 Eh     change       -0.3901318E-03 Eh
   gradient norm :     0.0104247 Eh/α   predicted    -0.4051280E-03 (   3.84%)
   displ. norm   :     0.5907389 α      lambda       -0.6050339E-03
   maximum displ.:     0.2147186 α      in ANC's #3, #24, #23, ...

........................................................................
.............................. CYCLE   20 ..............................
........................................................................
   1   -470.0362078 -0.470036E+03  0.390E-02    1.63       0.0  T
   2   -470.0362107 -0.294589E-05  0.223E-02    1.63       1.0  T
   3   -470.0361942  0.165192E-04  0.851E-03    1.63       1.0  T
   4   -470.0362122 -0.180153E-04  0.254E-03    1.63       2.5  T
   5   -470.0362129 -0.670496E-06  0.127E-03    1.63       5.1  T
   6   -470.0362131 -0.209528E-06  0.603E-04    1.63      10.7  T
   7   -470.0362131 -0.391420E-07  0.401E-04    1.63      16.1  T
     SCC iter.                  ...        0 min,  0.536 sec
     gradient                   ...        0 min,  0.234 sec
 * total energy  :  -464.4069493 Eh     change       -0.4707819E-03 Eh
   gradient norm :     0.0062667 Eh/α   predicted    -0.4080909E-03 ( -13.32%)
   displ. norm   :     0.6058407 α      lambda       -0.4988366E-03
   maximum displ.:     0.2353018 α      in ANC's #3, #23, #24, ...
 * RMSD in coord.:     0.5779767 α      energy gain  -0.1917828E+00 Eh

generating ANC from model Hessian ...
Using Lindh-Hessian (1995)
 Shifting diagonal of input Hessian by   9.997660814106371E-003
 Lowest  eigenvalues of input Hessian
    0.000000    0.000000    0.000000    0.000000    0.000000    0.000000
    0.010000    0.010008    0.010015    0.010024    0.010035    0.010040
    0.010065    0.010068    0.010075    0.010081    0.010092    0.010099
 Highest eigenvalues
    2.061943    2.075623    2.083251    2.095423    2.097831    2.183852
 

........................................................................
.............................. CYCLE   21 ..............................
........................................................................
   1   -470.0386220 -0.470039E+03  0.381E-02    1.62       0.0  T
   2   -470.0386252 -0.327172E-05  0.216E-02    1.62       1.0  T
   3   -470.0386107  0.145653E-04  0.821E-03    1.62       1.0  T
   4   -470.0386264 -0.157901E-04  0.266E-03    1.62       2.4  T
   5   -470.0386273 -0.838865E-06  0.123E-03    1.62       5.2  T
   6   -470.0386274 -0.163015E-06  0.634E-04    1.62      10.2  T
   7   -470.0386275 -0.463552E-07  0.421E-04    1.62      15.3  T
     SCC iter.                  ...        0 min,  0.541 sec
     gradient                   ...        0 min,  0.234 sec
 * total energy  :  -464.4073598 Eh     change       -0.4104694E-03 Eh
   gradient norm :     0.0067591 Eh/α   predicted     0.0000000E+00 (-100.00%)
   displ. norm   :     0.0950549 α      lambda       -0.1531580E-03
   maximum displ.:     0.0427046 α      in ANC's #3, #20, #35, ...

........................................................................
.............................. CYCLE   22 ..............................
........................................................................
   1   -470.0393494 -0.470039E+03  0.101E-02    1.62       0.0  T
   2   -470.0393498 -0.342411E-06  0.589E-03    1.62       1.1  T
   3   -470.0393476  0.217417E-05  0.326E-03    1.62       2.0  T
   4   -470.0393501 -0.246457E-05  0.850E-04    1.62       7.6  T
   5   -470.0393501 -0.665693E-07  0.510E-04    1.62      12.7  T
   6   -470.0393502 -0.340631E-07  0.261E-04    1.62      24.7  T
     SCC iter.                  ...        0 min,  0.460 sec
     gradient                   ...        0 min,  0.234 sec
 * total energy  :  -464.4075017 Eh     change       -0.1419085E-03 Eh
   gradient norm :     0.0035292 Eh/α   predicted    -0.8285691E-04 ( -41.61%)
   displ. norm   :     0.3495541 α      lambda       -0.4201868E-03
   maximum displ.:     0.1540760 α      in ANC's #3, #20, #34, ...

........................................................................
.............................. CYCLE   23 ..............................
........................................................................
   1   -470.0405719 -0.470041E+03  0.321E-02    1.62       0.0  T
   2   -470.0405744 -0.253753E-05  0.185E-02    1.62       1.0  T
   3   -470.0405570  0.174653E-04  0.922E-03    1.62       1.0  T
   4   -470.0405765 -0.195169E-04  0.240E-03    1.62       2.7  T
   5   -470.0405770 -0.471299E-06  0.143E-03    1.62       4.5  T
   6   -470.0405773 -0.284294E-06  0.742E-04    1.62       8.7  T
   7   -470.0405773 -0.380886E-07  0.569E-04    1.62      11.4  T
     SCC iter.                  ...        0 min,  0.534 sec
     gradient                   ...        0 min,  0.234 sec
 * total energy  :  -464.4077979 Eh     change       -0.2961519E-03 Eh
   gradient norm :     0.0053287 Eh/α   predicted    -0.2357694E-03 ( -20.39%)
   displ. norm   :     0.3443575 α      lambda       -0.2455159E-03
   maximum displ.:     0.1580977 α      in ANC's #3, #20, #15, ...

........................................................................
.............................. CYCLE   24 ..............................
........................................................................
   1   -470.0405686 -0.470041E+03  0.280E-02    1.62       0.0  T
   2   -470.0405698 -0.120104E-05  0.160E-02    1.62       1.0  T
   3   -470.0405629  0.693197E-05  0.582E-03    1.62       1.1  T
   4   -470.0405705 -0.762252E-05  0.179E-03    1.62       3.6  T
   5   -470.0405707 -0.210061E-06  0.991E-04    1.62       6.5  T
   6   -470.0405709 -0.145380E-06  0.522E-04    1.62      12.4  T
     SCC iter.                  ...        0 min,  0.458 sec
     gradient                   ...        0 min,  0.234 sec
 * total energy  :  -464.4080006 Eh     change       -0.2027660E-03 Eh
   gradient norm :     0.0080376 Eh/α   predicted    -0.1375193E-03 ( -32.18%)
   displ. norm   :     0.4849110 α      lambda       -0.3407561E-03
   maximum displ.:     0.2247593 α      in ANC's #3, #20, #15, ...

........................................................................
.............................. CYCLE   25 ..............................
........................................................................
   1   -470.0397186 -0.470040E+03  0.367E-02    1.62       0.0  T
   2   -470.0397202 -0.159086E-05  0.209E-02    1.62       1.0  T
   3   -470.0397151  0.514472E-05  0.523E-03    1.62       1.2  T
   4   -470.0397207 -0.560875E-05  0.209E-03    1.62       3.1  T
   5   -470.0397210 -0.304014E-06  0.102E-03    1.62       6.3  T
   6   -470.0397212 -0.183189E-06  0.449E-04    1.62      14.4  T
   7   -470.0397212 -0.137738E-07  0.350E-04    1.62      18.4  T
     SCC iter.                  ...        0 min,  0.535 sec
     gradient                   ...        0 min,  0.234 sec
 * total energy  :  -464.4082972 Eh     change       -0.2965966E-03 Eh
   gradient norm :     0.0081753 Eh/α   predicted    -0.2104411E-03 ( -29.05%)
   displ. norm   :     0.6052354 α      lambda       -0.4474107E-03
   maximum displ.:     0.2876658 α      in ANC's #3, #20, #15, ...

........................................................................
.............................. CYCLE   26 ..............................
........................................................................
   1   -470.0383787 -0.470038E+03  0.433E-02    1.62       0.0  T
   2   -470.0383811 -0.239597E-05  0.247E-02    1.62       1.0  T
   3   -470.0383698  0.113092E-04  0.741E-03    1.62       1.0  T
   4   -470.0383823 -0.125012E-04  0.241E-03    1.62       2.7  T
   5   -470.0383826 -0.304542E-06  0.118E-03    1.62       5.5  T
   6   -470.0383829 -0.231474E-06  0.479E-04    1.62      13.5  T
   7   -470.0383829 -0.225913E-07  0.336E-04    1.62      19.2  T
     SCC iter.                  ...        0 min,  0.535 sec
     gradient                   ...        0 min,  0.234 sec
 * total energy  :  -464.4086822 Eh     change       -0.3850105E-03 Eh
   gradient norm :     0.0058799 Eh/α   predicted    -0.3056565E-03 ( -20.61%)
   displ. norm   :     0.6426398 α      lambda       -0.4454829E-03
   maximum displ.:     0.3163591 α      in ANC's #3, #20, #15, ...

........................................................................
.............................. CYCLE   27 ..............................
........................................................................
   1   -470.0377132 -0.470038E+03  0.434E-02    1.62       0.0  T
   2   -470.0377163 -0.304222E-05  0.248E-02    1.62       1.0  T
   3   -470.0376970  0.192368E-04  0.945E-03    1.62       1.0  T
   4   -470.0377183 -0.212372E-04  0.261E-03    1.62       2.5  T
   5   -470.0377187 -0.463620E-06  0.136E-03    1.62       4.7  T
   6   -470.0377190 -0.269701E-06  0.627E-04    1.62      10.3  T
   7   -470.0377190 -0.397280E-07  0.439E-04    1.62      14.7  T
     SCC iter.                  ...        0 min,  0.534 sec
     gradient                   ...        0 min,  0.234 sec
 * total energy  :  -464.4090591 Eh     change       -0.3768380E-03 Eh
   gradient norm :     0.0043605 Eh/α   predicted    -0.3147365E-03 ( -16.48%)
   displ. norm   :     0.6446499 α      lambda       -0.3913526E-03
   maximum displ.:     0.3261930 α      in ANC's #3, #20, #15, ...

........................................................................
.............................. CYCLE   28 ..............................
........................................................................
   1   -470.0379513 -0.470038E+03  0.410E-02    1.62       0.0  T
   2   -470.0379542 -0.284110E-05  0.234E-02    1.62       1.0  T
   3   -470.0379357  0.184719E-04  0.920E-03    1.62       1.0  T
   4   -470.0379560 -0.203249E-04  0.256E-03    1.62       2.5  T
   5   -470.0379566 -0.538272E-06  0.131E-03    1.62       4.9  T
   6   -470.0379568 -0.226554E-06  0.623E-04    1.62      10.4  T
   7   -470.0379568 -0.372987E-07  0.444E-04    1.62      14.5  T
     SCC iter.                  ...        0 min,  0.535 sec
     gradient                   ...        0 min,  0.234 sec
 * total energy  :  -464.4093999 Eh     change       -0.3408308E-03 Eh
   gradient norm :     0.0053665 Eh/α   predicted    -0.2770062E-03 ( -18.73%)
   displ. norm   :     0.6511808 α      lambda       -0.3933905E-03
   maximum displ.:     0.3366614 α      in ANC's #3, #15, #20, ...

........................................................................
.............................. CYCLE   29 ..............................
........................................................................
   1   -470.0395260 -0.470040E+03  0.395E-02    1.62       0.0  T
   2   -470.0395285 -0.249685E-05  0.225E-02    1.62       1.0  T
   3   -470.0395137  0.147331E-04  0.822E-03    1.62       1.0  T
   4   -470.0395299 -0.161245E-04  0.247E-03    1.62       2.6  T
   5   -470.0395304 -0.521653E-06  0.122E-03    1.62       5.3  T
   6   -470.0395306 -0.197086E-06  0.550E-04    1.62      11.7  T
   7   -470.0395306 -0.282552E-07  0.393E-04    1.62      16.4  T
     SCC iter.                  ...        0 min,  0.535 sec
     gradient                   ...        0 min,  0.234 sec
 * total energy  :  -464.4097554 Eh     change       -0.3554994E-03 Eh
   gradient norm :     0.0063867 Eh/α   predicted    -0.2801017E-03 ( -21.21%)
   displ. norm   :     0.6865298 α      lambda       -0.4519108E-03
   maximum displ.:     0.3614397 α      in ANC's #3, #15, #20, ...

........................................................................
.............................. CYCLE   30 ..............................
........................................................................
   1   -470.0421998 -0.470042E+03  0.406E-02    1.62       0.0  T
   2   -470.0422022 -0.240600E-05  0.231E-02    1.61       1.0  T
   3   -470.0421905  0.117256E-04  0.748E-03    1.62       1.0  T
   4   -470.0422033 -0.128265E-04  0.247E-03    1.61       2.6  T
   5   -470.0422038 -0.464442E-06  0.120E-03    1.61       5.4  T
   6   -470.0422040 -0.214049E-06  0.492E-04    1.61      13.1  T
   7   -470.0422040 -0.217566E-07  0.351E-04    1.61      18.4  T
     SCC iter.                  ...        0 min,  0.536 sec
     gradient                   ...        0 min,  0.234 sec
 * total energy  :  -464.4101680 Eh     change       -0.4125983E-03 Eh
   gradient norm :     0.0064721 Eh/α   predicted    -0.3324860E-03 ( -19.42%)
   displ. norm   :     0.7309604 α      lambda       -0.5062165E-03
   maximum displ.:     0.3910257 α      in ANC's #3, #15, #20, ...

........................................................................
.............................. CYCLE   31 ..............................
........................................................................
   1   -470.0444303 -0.470044E+03  0.427E-02    1.61       0.0  T
   2   -470.0444328 -0.247740E-05  0.243E-02    1.61       1.0  T
   3   -470.0444222  0.106179E-04  0.739E-03    1.61       1.0  T
   4   -470.0444339 -0.117025E-04  0.252E-03    1.61       2.6  T
   5   -470.0444343 -0.370869E-06  0.124E-03    1.61       5.2  T
   6   -470.0444345 -0.256380E-06  0.493E-04    1.61      13.1  T
   7   -470.0444345 -0.213068E-07  0.355E-04    1.61      18.2  T
     SCC iter.                  ...        0 min,  0.534 sec
     gradient                   ...        0 min,  0.234 sec
 * total energy  :  -464.4106263 Eh     change       -0.4582767E-03 Eh
   gradient norm :     0.0057227 Eh/α   predicted    -0.3883549E-03 ( -15.26%)
   displ. norm   :     0.7590739 α      lambda       -0.5091456E-03
   maximum displ.:     0.4125890 α      in ANC's #3, #15, #4, ...

........................................................................
.............................. CYCLE   32 ..............................
........................................................................
   1   -470.0453516 -0.470045E+03  0.436E-02    1.61       0.0  T
   2   -470.0453542 -0.254231E-05  0.248E-02    1.61       1.0  T
   3   -470.0453432  0.109810E-04  0.763E-03    1.61       1.0  T
   4   -470.0453553 -0.121005E-04  0.257E-03    1.61       2.5  T
   5   -470.0453556 -0.355661E-06  0.128E-03    1.61       5.1  T
   6   -470.0453559 -0.289846E-06  0.528E-04    1.61      12.2  T
   7   -470.0453559 -0.240375E-07  0.384E-04    1.61      16.8  T
     SCC iter.                  ...        0 min,  0.533 sec
     gradient                   ...        0 min,  0.234 sec
 * total energy  :  -464.4110855 Eh     change       -0.4592307E-03 Eh
   gradient norm :     0.0049323 Eh/α   predicted    -0.4012568E-03 ( -12.62%)
   displ. norm   :     0.7705167 α      lambda       -0.4831330E-03
   maximum displ.:     0.4250144 α      in ANC's #3, #15, #4, ...

........................................................................
.............................. CYCLE   33 ..............................
........................................................................
   1   -470.0447379 -0.470045E+03  0.429E-02    1.61       0.0  T
   2   -470.0447402 -0.236957E-05  0.244E-02    1.61       1.0  T
   3   -470.0447303  0.997549E-05  0.730E-03    1.61       1.0  T
   4   -470.0447412 -0.109568E-04  0.252E-03    1.61       2.6  T
   5   -470.0447416 -0.360939E-06  0.123E-03    1.61       5.3  T
   6   -470.0447419 -0.274590E-06  0.525E-04    1.61      12.3  T
   7   -470.0447419 -0.224781E-07  0.388E-04    1.61      16.6  T
     SCC iter.                  ...        0 min,  0.531 sec
     gradient                   ...        0 min,  0.233 sec
 * total energy  :  -464.4115270 Eh     change       -0.4415210E-03 Eh
   gradient norm :     0.0045477 Eh/α   predicted    -0.3849846E-03 ( -12.80%)
   displ. norm   :     0.7686259 α      lambda       -0.4691520E-03
   maximum displ.:     0.4306589 α      in ANC's #3, #15, #4, ...

........................................................................
.............................. CYCLE   34 ..............................
........................................................................
   1   -470.0440336 -0.470044E+03  0.414E-02    1.61       0.0  T
   2   -470.0440357 -0.210762E-05  0.235E-02    1.61       1.0  T
   3   -470.0440273  0.832479E-05  0.669E-03    1.61       1.0  T
   4   -470.0440365 -0.918965E-05  0.238E-03    1.61       2.7  T
   5   -470.0440368 -0.304595E-06  0.115E-03    1.61       5.6  T
   6   -470.0440371 -0.239210E-06  0.506E-04    1.61      12.8  T
   7   -470.0440371 -0.184506E-07  0.384E-04    1.61      16.8  T
     SCC iter.                  ...        0 min,  0.531 sec
     gradient                   ...        0 min,  0.233 sec
 * total energy  :  -464.4119599 Eh     change       -0.4328137E-03 Eh
   gradient norm :     0.0043726 Eh/α   predicted    -0.3731762E-03 ( -13.78%)
   displ. norm   :     0.7798015 α      lambda       -0.4639203E-03
   maximum displ.:     0.4405790 α      in ANC's #3, #15, #4, ...

........................................................................
.............................. CYCLE   35 ..............................
........................................................................
   1   -470.0416435 -0.470042E+03  0.410E-02    1.61       0.0  T
   2   -470.0416454 -0.191830E-05  0.233E-02    1.61       1.0  T
   3   -470.0416382  0.718300E-05  0.625E-03    1.61       1.0  T
   4   -470.0416462 -0.802136E-05  0.227E-03    1.61       2.8  T
   5   -470.0416464 -0.238782E-06  0.108E-03    1.61       6.0  T
   6   -470.0416467 -0.204381E-06  0.475E-04    1.61      13.6  T
   7   -470.0416467 -0.137210E-07  0.369E-04    1.61      17.5  T
     SCC iter.                  ...        0 min,  0.542 sec
     gradient                   ...        0 min,  0.233 sec
 * total energy  :  -464.4123900 Eh     change       -0.4301502E-03 Eh
   gradient norm :     0.0044913 Eh/α   predicted    -0.3730143E-03 ( -13.28%)
   displ. norm   :     0.7693427 α      lambda       -0.4708000E-03
   maximum displ.:     0.4448655 α      in ANC's #3, #4, #15, ...

........................................................................
.............................. CYCLE   36 ..............................
........................................................................
   1   -470.0434850 -0.470043E+03  0.399E-02    1.61       0.0  T
   2   -470.0434873 -0.224693E-05  0.227E-02    1.60       1.0  T
   3   -470.0434787  0.859920E-05  0.667E-03    1.61       1.0  T
   4   -470.0434884 -0.966800E-05  0.224E-03    1.60       2.9  T
   5   -470.0434886 -0.218306E-06  0.112E-03    1.60       5.8  T
   6   -470.0434888 -0.196798E-06  0.511E-04    1.60      12.6  T
   7   -470.0434888 -0.183094E-07  0.387E-04    1.60      16.7  T
     SCC iter.                  ...        0 min,  0.538 sec
     gradient                   ...        0 min,  0.233 sec
 * total energy  :  -464.4128034 Eh     change       -0.4133512E-03 Eh
   gradient norm :     0.0050161 Eh/α   predicted    -0.3747316E-03 (  -9.34%)
   displ. norm   :     0.7916122 α      lambda       -0.4652760E-03
   maximum displ.:     0.4522077 α      in ANC's #3, #15, #4, ...

........................................................................
.............................. CYCLE   37 ..............................
........................................................................
   1   -470.0386534 -0.470039E+03  0.415E-02    1.60       0.0  T
   2   -470.0386558 -0.241006E-05  0.236E-02    1.60       1.0  T
   3   -470.0386479  0.784176E-05  0.638E-03    1.60       1.0  T
   4   -470.0386566 -0.870503E-05  0.230E-03    1.60       2.8  T
   5   -470.0386570 -0.328822E-06  0.111E-03    1.60       5.8  T
   6   -470.0386572 -0.192336E-06  0.491E-04    1.60      13.1  T
   7   -470.0386572 -0.212447E-07  0.350E-04    1.60      18.4  T
     SCC iter.                  ...        0 min,  0.537 sec
     gradient                   ...        0 min,  0.233 sec
 * total energy  :  -464.4132092 Eh     change       -0.4058859E-03 Eh
   gradient norm :     0.0051275 Eh/α   predicted    -0.3784224E-03 (  -6.77%)
   displ. norm   :     0.7379906 α      lambda       -0.4028399E-03
   maximum displ.:     0.4329230 α      in ANC's #3, #7, #4, ...

........................................................................
.............................. CYCLE   38 ..............................
........................................................................
   1   -470.0387277 -0.470039E+03  0.369E-02    1.60       0.0  T
   2   -470.0387295 -0.177831E-05  0.210E-02    1.60       1.0  T
   3   -470.0387227  0.675509E-05  0.580E-03    1.60       1.1  T
   4   -470.0387302 -0.751403E-05  0.202E-03    1.60       3.2  T
   5   -470.0387305 -0.233501E-06  0.105E-03    1.60       6.1  T
   6   -470.0387306 -0.185047E-06  0.437E-04    1.60      14.8  T
   7   -470.0387307 -0.145619E-07  0.327E-04    1.60      19.7  T
     SCC iter.                  ...        0 min,  0.536 sec
     gradient                   ...        0 min,  0.234 sec
 * total energy  :  -464.4135847 Eh     change       -0.3754988E-03 Eh
   gradient norm :     0.0045721 Eh/α   predicted    -0.3111242E-03 ( -17.14%)
   displ. norm   :     0.7352548 α      lambda       -0.4105871E-03
   maximum displ.:     0.4396612 α      in ANC's #3, #7, #4, ...

........................................................................
.............................. CYCLE   39 ..............................
........................................................................
   1   -470.0417026 -0.470042E+03  0.357E-02    1.60       0.0  T
   2   -470.0417044 -0.186075E-05  0.203E-02    1.60       1.0  T
   3   -470.0416980  0.646851E-05  0.568E-03    1.60       1.1  T
   4   -470.0417051 -0.716879E-05  0.200E-03    1.60       3.2  T
   5   -470.0417054 -0.280210E-06  0.106E-03    1.60       6.1  T
   6   -470.0417056 -0.169371E-06  0.462E-04    1.60      14.0  T
   7   -470.0417056 -0.175691E-07  0.344E-04    1.60      18.8  T
     SCC iter.                  ...        0 min,  0.537 sec
     gradient                   ...        0 min,  0.233 sec
 * total energy  :  -464.4139648 Eh     change       -0.3800603E-03 Eh
   gradient norm :     0.0033032 Eh/α   predicted    -0.3162770E-03 ( -16.78%)
   displ. norm   :     0.7612813 α      lambda       -0.3985475E-03
   maximum displ.:     0.4584721 α      in ANC's #3, #7, #4, ...

........................................................................
.............................. CYCLE   40 ..............................
........................................................................
   1   -470.0433929 -0.470043E+03  0.363E-02    1.60       0.0  T
   2   -470.0433947 -0.178418E-05  0.206E-02    1.59       1.0  T
   3   -470.0433881  0.653843E-05  0.577E-03    1.60       1.1  T
   4   -470.0433953 -0.720679E-05  0.205E-03    1.59       3.2  T
   5   -470.0433956 -0.300107E-06  0.107E-03    1.60       6.0  T
   6   -470.0433958 -0.167097E-06  0.491E-04    1.60      13.1  T
   7   -470.0433958 -0.197059E-07  0.372E-04    1.60      17.4  T
     SCC iter.                  ...        0 min,  0.536 sec
     gradient                   ...        0 min,  0.233 sec
 * total energy  :  -464.4143371 Eh     change       -0.3723407E-03 Eh
   gradient norm :     0.0029779 Eh/α   predicted    -0.3147696E-03 ( -15.46%)
   displ. norm   :     0.7459608 α      lambda       -0.3745166E-03
   maximum displ.:     0.4558813 α      in ANC's #3, #7, #12, ...

........................................................................
.............................. CYCLE   41 ..............................
........................................................................
   1   -470.0460251 -0.470046E+03  0.343E-02    1.59       0.0  T
   2   -470.0460266 -0.149017E-05  0.195E-02    1.59       1.0  T
   3   -470.0460203  0.621800E-05  0.559E-03    1.59       1.2  T
   4   -470.0460272 -0.681601E-05  0.194E-03    1.59       3.3  T
   5   -470.0460274 -0.269515E-06  0.979E-04    1.59       6.6  T
   6   -470.0460276 -0.139629E-06  0.447E-04    1.59      14.4  T
     SCC iter.                  ...        0 min,  0.459 sec
     gradient                   ...        0 min,  0.233 sec
 * total energy  :  -464.4146899 Eh     change       -0.3528015E-03 Eh
   gradient norm :     0.0032605 Eh/α   predicted    -0.2914618E-03 ( -17.39%)
   displ. norm   :     0.7422425 α      lambda       -0.3671308E-03
   maximum displ.:     0.4551254 α      in ANC's #3, #7, #12, ...

........................................................................
.............................. CYCLE   42 ..............................
........................................................................
   1   -470.0466782 -0.470047E+03  0.339E-02    1.59       0.0  T
   2   -470.0466796 -0.135479E-05  0.193E-02    1.59       1.0  T
   3   -470.0466732  0.635824E-05  0.564E-03    1.59       1.1  T
   4   -470.0466802 -0.692865E-05  0.196E-03    1.59       3.3  T
   5   -470.0466804 -0.272079E-06  0.959E-04    1.59       6.7  T
   6   -470.0466806 -0.137131E-06  0.469E-04    1.59      13.8  T
     SCC iter.                  ...        0 min,  0.458 sec
     gradient                   ...        0 min,  0.233 sec
 * total energy  :  -464.4150393 Eh     change       -0.3493572E-03 Eh
   gradient norm :     0.0035521 Eh/α   predicted    -0.2846981E-03 ( -18.51%)
   displ. norm   :     0.7432933 α      lambda       -0.3818319E-03
   maximum displ.:     0.4623921 α      in ANC's #3, #7, #12, ...
 * RMSD in coord.:     0.8799648 α      energy gain  -0.8089957E-02 Eh

generating ANC from model Hessian ...
Using Lindh-Hessian (1995)
 Shifting diagonal of input Hessian by   1.000176596815595E-002
 Lowest  eigenvalues of input Hessian
    0.010000    0.000000    0.000000    0.000000    0.000000    0.000000
    0.000000    0.010016    0.010018    0.010024    0.010037    0.010049
    0.010073    0.010079    0.010084    0.010090    0.010104    0.010119
 Highest eigenvalues
    2.062336    2.078206    2.083018    2.097163    2.097608    2.186113
 

........................................................................
.............................. CYCLE   43 ..............................
........................................................................
   1   -470.0486689 -0.470049E+03  0.331E-02    1.59       0.0  T
   2   -470.0486702 -0.125688E-05  0.189E-02    1.59       1.0  T
   3   -470.0486638  0.635947E-05  0.561E-03    1.59       1.2  T
   4   -470.0486708 -0.692972E-05  0.189E-03    1.59       3.4  T
   5   -470.0486710 -0.234996E-06  0.916E-04    1.59       7.0  T
   6   -470.0486711 -0.135417E-06  0.434E-04    1.59      14.9  T
     SCC iter.                  ...        0 min,  0.458 sec
     gradient                   ...        0 min,  0.233 sec
 * total energy  :  -464.4154038 Eh     change       -0.3644749E-03 Eh
   gradient norm :     0.0033950 Eh/α   predicted     0.0000000E+00 (-100.00%)
   displ. norm   :     0.0708052 α      lambda       -0.7175333E-04
   maximum displ.:     0.0407197 α      in ANC's #3, #2, #75, ...

........................................................................
.............................. CYCLE   44 ..............................
........................................................................
   1   -470.0479603 -0.470048E+03  0.622E-03    1.59       0.0  T
   2   -470.0479604 -0.114923E-06  0.359E-03    1.59       1.8  T
   3   -470.0479600  0.426797E-06  0.153E-03    1.59       4.2  T
   4   -470.0479605 -0.496184E-06  0.457E-04    1.59      14.1  T
   5   -470.0479605 -0.139214E-07  0.300E-04    1.59      21.5  T
     SCC iter.                  ...        0 min,  0.384 sec
     gradient                   ...        0 min,  0.233 sec
 * total energy  :  -464.4154701 Eh     change       -0.6631309E-04 Eh
   gradient norm :     0.0018864 Eh/α   predicted    -0.3673856E-04 ( -44.60%)
   displ. norm   :     0.4534762 α      lambda       -0.2481553E-03
   maximum displ.:     0.2397478 α      in ANC's #3, #2, #19, ...

........................................................................
.............................. CYCLE   45 ..............................
........................................................................
   1   -470.0436373 -0.470044E+03  0.362E-02    1.59       0.0  T
   2   -470.0436403 -0.295654E-05  0.208E-02    1.59       1.0  T
   3   -470.0436272  0.131015E-04  0.819E-03    1.59       1.0  T
   4   -470.0436421 -0.148848E-04  0.231E-03    1.59       2.8  T
   5   -470.0436424 -0.322148E-06  0.138E-03    1.59       4.7  T
   6   -470.0436426 -0.223555E-06  0.799E-04    1.59       8.1  T
   7   -470.0436427 -0.460466E-07  0.612E-04    1.59      10.5  T
     SCC iter.                  ...        0 min,  0.536 sec
     gradient                   ...        0 min,  0.233 sec
 * total energy  :  -464.4157085 Eh     change       -0.2384037E-03 Eh
   gradient norm :     0.0054394 Eh/α   predicted    -0.1354208E-03 ( -43.20%)
   displ. norm   :     0.2305934 α      lambda       -0.1248752E-03
   maximum displ.:     0.1276266 α      in ANC's #3, #2, #5, ...

........................................................................
.............................. CYCLE   46 ..............................
........................................................................
   1   -470.0429888 -0.470043E+03  0.154E-02    1.59       0.0  T
   2   -470.0429891 -0.372274E-06  0.878E-03    1.59       1.0  T
   3   -470.0429871  0.201634E-05  0.305E-03    1.59       2.1  T
   4   -470.0429894 -0.226806E-05  0.925E-04    1.59       7.0  T
   5   -470.0429894 -0.397131E-07  0.523E-04    1.59      12.3  T
   6   -470.0429895 -0.339919E-07  0.330E-04    1.59      19.6  T
     SCC iter.                  ...        0 min,  0.461 sec
     gradient                   ...        0 min,  0.233 sec
 * total energy  :  -464.4158245 Eh     change       -0.1160450E-03 Eh
   gradient norm :     0.0055658 Eh/α   predicted    -0.6576038E-04 ( -43.33%)
   displ. norm   :     0.4739578 α      lambda       -0.2854335E-03
   maximum displ.:     0.2555172 α      in ANC's #3, #2, #5, ...

........................................................................
.............................. CYCLE   47 ..............................
........................................................................
   1   -470.0431157 -0.470043E+03  0.298E-02    1.59       0.0  T
   2   -470.0431170 -0.126349E-05  0.170E-02    1.59       1.0  T
   3   -470.0431092  0.775740E-05  0.591E-03    1.59       1.1  T
   4   -470.0431179 -0.862988E-05  0.165E-03    1.59       3.9  T
   5   -470.0431179 -0.774721E-07  0.889E-04    1.59       7.3  T
   6   -470.0431181 -0.153170E-06  0.381E-04    1.59      16.9  T
     SCC iter.                  ...        0 min,  0.462 sec
     gradient                   ...        0 min,  0.233 sec
 * total energy  :  -464.4160817 Eh     change       -0.2572016E-03 Eh
   gradient norm :     0.0039749 Eh/α   predicted    -0.1747901E-03 ( -32.04%)
   displ. norm   :     0.6505510 α      lambda       -0.3698601E-03
   maximum displ.:     0.3526150 α      in ANC's #3, #2, #12, ...

........................................................................
.............................. CYCLE   48 ..............................
........................................................................
   1   -470.0440117 -0.470044E+03  0.385E-02    1.59       0.0  T
   2   -470.0440137 -0.205310E-05  0.220E-02    1.59       1.0  T
   3   -470.0440007  0.130740E-04  0.773E-03    1.59       1.0  T
   4   -470.0440153 -0.146048E-04  0.214E-03    1.59       3.0  T
   5   -470.0440154 -0.777714E-07  0.121E-03    1.59       5.3  T
   6   -470.0440156 -0.290450E-06  0.502E-04    1.59      12.9  T
   7   -470.0440157 -0.225822E-07  0.371E-04    1.59      17.4  T
     SCC iter.                  ...        0 min,  0.535 sec
     gradient                   ...        0 min,  0.233 sec
 * total energy  :  -464.4164108 Eh     change       -0.3290858E-03 Eh
   gradient norm :     0.0029940 Eh/α   predicted    -0.2632039E-03 ( -20.02%)
   displ. norm   :     0.6931460 α      lambda       -0.3696875E-03
   maximum displ.:     0.3791367 α      in ANC's #3, #2, #12, ...

........................................................................
.............................. CYCLE   49 ..............................
........................................................................
   1   -470.0457533 -0.470046E+03  0.385E-02    1.59       0.0  T
   2   -470.0457553 -0.200277E-05  0.219E-02    1.59       1.0  T
   3   -470.0457439  0.114045E-04  0.737E-03    1.59       1.0  T
   4   -470.0457567 -0.128175E-04  0.215E-03    1.59       3.0  T
   5   -470.0457568 -0.933750E-07  0.118E-03    1.59       5.5  T
   6   -470.0457571 -0.259699E-06  0.535E-04    1.59      12.1  T
   7   -470.0457571 -0.217663E-07  0.415E-04    1.59      15.6  T
     SCC iter.                  ...        0 min,  0.536 sec
     gradient                   ...        0 min,  0.233 sec
 * total energy  :  -464.4167481 Eh     change       -0.3372871E-03 Eh
   gradient norm :     0.0043162 Eh/α   predicted    -0.2736557E-03 ( -18.87%)
   displ. norm   :     0.7078147 α      lambda       -0.3926640E-03
   maximum displ.:     0.3907329 α      in ANC's #3, #2, #12, ...

........................................................................
.............................. CYCLE   50 ..............................
........................................................................
   1   -470.0484708 -0.470048E+03  0.369E-02    1.59       0.0  T
   2   -470.0484726 -0.188691E-05  0.209E-02    1.59       1.0  T
   3   -470.0484647  0.797512E-05  0.636E-03    1.59       1.0  T
   4   -470.0484736 -0.897411E-05  0.210E-03    1.59       3.1  T
   5   -470.0484738 -0.167501E-06  0.111E-03    1.59       5.8  T
   6   -470.0484740 -0.211410E-06  0.528E-04    1.59      12.2  T
   7   -470.0484740 -0.208916E-07  0.415E-04    1.59      15.5  T
     SCC iter.                  ...        0 min,  0.533 sec
     gradient                   ...        0 min,  0.233 sec
 * total energy  :  -464.4171157 Eh     change       -0.3675532E-03 Eh
   gradient norm :     0.0054845 Eh/α   predicted    -0.2946943E-03 ( -19.82%)
   displ. norm   :     0.7426947 α      lambda       -0.4541342E-03
   maximum displ.:     0.4139001 α      in ANC's #3, #2, #12, ...

........................................................................
.............................. CYCLE   51 ..............................
........................................................................
   1   -470.0515753 -0.470052E+03  0.371E-02    1.59       0.0  T
   2   -470.0515773 -0.201033E-05  0.210E-02    1.59       1.0  T
   3   -470.0515716  0.577423E-05  0.564E-03    1.59       1.1  T
   4   -470.0515780 -0.643836E-05  0.216E-03    1.59       3.0  T
   5   -470.0515783 -0.293738E-06  0.108E-03    1.59       6.0  T
   6   -470.0515785 -0.193965E-06  0.516E-04    1.59      12.5  T
   7   -470.0515785 -0.206862E-07  0.403E-04    1.59      16.0  T
     SCC iter.                  ...        0 min,  0.531 sec
     gradient                   ...        0 min,  0.232 sec
 * total energy  :  -464.4175437 Eh     change       -0.4280285E-03 Eh
   gradient norm :     0.0056274 Eh/α   predicted    -0.3523156E-03 ( -17.69%)
   displ. norm   :     0.7893722 α      lambda       -0.5167549E-03
   maximum displ.:     0.4439937 α      in ANC's #3, #2, #12, ...

........................................................................
.............................. CYCLE   52 ..............................
........................................................................
   1   -470.0534842 -0.470053E+03  0.388E-02    1.59       0.0  T
   2   -470.0534864 -0.220270E-05  0.219E-02    1.59       1.0  T
   3   -470.0534811  0.531658E-05  0.550E-03    1.59       1.2  T
   4   -470.0534870 -0.588471E-05  0.226E-03    1.59       2.9  T
   5   -470.0534874 -0.376361E-06  0.111E-03    1.59       5.8  T
   6   -470.0534876 -0.200446E-06  0.524E-04    1.59      12.3  T
   7   -470.0534876 -0.209911E-07  0.407E-04    1.59      15.9  T
     SCC iter.                  ...        0 min,  0.548 sec
     gradient                   ...        0 min,  0.233 sec
 * total energy  :  -464.4180299 Eh     change       -0.4862489E-03 Eh
   gradient norm :     0.0047418 Eh/α   predicted    -0.4193738E-03 ( -13.75%)
   displ. norm   :     0.8249500 α      lambda       -0.5499257E-03
   maximum displ.:     0.4680646 α      in ANC's #3, #2, #12, ...

........................................................................
.............................. CYCLE   53 ..............................
........................................................................
   1   -470.0534977 -0.470053E+03  0.402E-02    1.58       0.0  T
   2   -470.0535000 -0.226068E-05  0.227E-02    1.58       1.0  T
   3   -470.0534944  0.557043E-05  0.563E-03    1.58       1.1  T
   4   -470.0535007 -0.623571E-05  0.229E-03    1.58       2.8  T
   5   -470.0535010 -0.354072E-06  0.111E-03    1.58       5.8  T
   6   -470.0535012 -0.195972E-06  0.551E-04    1.58      11.7  T
   7   -470.0535012 -0.215088E-07  0.430E-04    1.58      15.0  T
     SCC iter.                  ...        0 min,  0.538 sec
     gradient                   ...        0 min,  0.233 sec
 * total energy  :  -464.4185469 Eh     change       -0.5169726E-03 Eh
   gradient norm :     0.0036125 Eh/α   predicted    -0.4620867E-03 ( -10.62%)
   displ. norm   :     0.8452425 α      lambda       -0.5566297E-03
   maximum displ.:     0.4830245 α      in ANC's #3, #2, #12, ...

........................................................................
.............................. CYCLE   54 ..............................
........................................................................
   1   -470.0521282 -0.470052E+03  0.405E-02    1.58       0.0  T
   2   -470.0521303 -0.218927E-05  0.229E-02    1.58       1.0  T
   3   -470.0521249  0.542575E-05  0.559E-03    1.58       1.2  T
   4   -470.0521310 -0.609764E-05  0.229E-03    1.58       2.8  T
   5   -470.0521314 -0.342811E-06  0.110E-03    1.58       5.9  T
   6   -470.0521315 -0.189150E-06  0.564E-04    1.58      11.4  T
   7   -470.0521316 -0.219873E-07  0.443E-04    1.58      14.6  T
     SCC iter.                  ...        0 min,  0.536 sec
     gradient                   ...        0 min,  0.233 sec
 * total energy  :  -464.4190728 Eh     change       -0.5258786E-03 Eh
   gradient norm :     0.0034952 Eh/α   predicted    -0.4771610E-03 (  -9.26%)
   displ. norm   :     0.8546443 α      lambda       -0.5608255E-03
   maximum displ.:     0.4910239 α      in ANC's #3, #2, #12, ...

........................................................................
.............................. CYCLE   55 ..............................
........................................................................
   1   -470.0503803 -0.470050E+03  0.401E-02    1.58       0.0  T
   2   -470.0503824 -0.211451E-05  0.227E-02    1.58       1.0  T
   3   -470.0503768  0.561344E-05  0.561E-03    1.58       1.1  T
   4   -470.0503830 -0.621550E-05  0.232E-03    1.58       2.8  T
   5   -470.0503834 -0.371134E-06  0.111E-03    1.58       5.8  T
   6   -470.0503836 -0.213040E-06  0.562E-04    1.58      11.5  T
   7   -470.0503836 -0.242458E-07  0.437E-04    1.58      14.8  T
     SCC iter.                  ...        0 min,  0.533 sec
     gradient                   ...        0 min,  0.233 sec
 * total energy  :  -464.4196077 Eh     change       -0.5349172E-03 Eh
   gradient norm :     0.0041359 Eh/α   predicted    -0.4852304E-03 (  -9.29%)
   displ. norm   :     0.8627698 α      lambda       -0.5788506E-03
   maximum displ.:     0.4976327 α      in ANC's #3, #2, #12, ...

........................................................................
.............................. CYCLE   56 ..............................
........................................................................
   1   -470.0489776 -0.470049E+03  0.400E-02    1.58       0.0  T
   2   -470.0489797 -0.212857E-05  0.226E-02    1.58       1.0  T
   3   -470.0489728  0.695536E-05  0.604E-03    1.58       1.1  T
   4   -470.0489803 -0.759162E-05  0.239E-03    1.58       2.7  T
   5   -470.0489807 -0.404190E-06  0.114E-03    1.58       5.6  T
   6   -470.0489810 -0.245449E-06  0.550E-04    1.58      11.7  T
   7   -470.0489810 -0.262646E-07  0.418E-04    1.58      15.5  T
     SCC iter.                  ...        0 min,  0.532 sec
     gradient                   ...        0 min,  0.233 sec
 * total energy  :  -464.4201626 Eh     change       -0.5548901E-03 Eh
   gradient norm :     0.0045341 Eh/α   predicted    -0.5048897E-03 (  -9.01%)
   displ. norm   :     0.8726918 α      lambda       -0.6085446E-03
   maximum displ.:     0.5049796 α      in ANC's #3, #2, #12, ...

........................................................................
.............................. CYCLE   57 ..............................
........................................................................
   1   -470.0484628 -0.470048E+03  0.405E-02    1.58       0.0  T
   2   -470.0484651 -0.225304E-05  0.228E-02    1.58       1.0  T
   3   -470.0484562  0.887096E-05  0.667E-03    1.58       1.0  T
   4   -470.0484659 -0.968072E-05  0.247E-03    1.58       2.6  T
   5   -470.0484663 -0.397104E-06  0.118E-03    1.58       5.5  T
   6   -470.0484666 -0.276859E-06  0.535E-04    1.58      12.1  T
   7   -470.0484666 -0.280310E-07  0.391E-04    1.58      16.5  T
     SCC iter.                  ...        0 min,  0.538 sec
     gradient                   ...        0 min,  0.232 sec
 * total energy  :  -464.4207453 Eh     change       -0.5827325E-03 Eh
   gradient norm :     0.0044400 Eh/α   predicted    -0.5360033E-03 (  -8.02%)
   displ. norm   :     0.8828358 α      lambda       -0.6355715E-03
   maximum displ.:     0.5122114 α      in ANC's #3, #2, #12, ...

........................................................................
.............................. CYCLE   58 ..............................
........................................................................
   1   -470.0487519 -0.470049E+03  0.416E-02    1.58       0.0  T
   2   -470.0487543 -0.241412E-05  0.234E-02    1.58       1.0  T
   3   -470.0487446  0.974529E-05  0.704E-03    1.58       1.0  T
   4   -470.0487553 -0.107028E-04  0.251E-03    1.58       2.6  T
   5   -470.0487556 -0.347162E-06  0.122E-03    1.58       5.3  T
   6   -470.0487560 -0.313913E-06  0.516E-04    1.58      12.5  T
   7   -470.0487560 -0.279576E-07  0.366E-04    1.58      17.6  T
     SCC iter.                  ...        0 min,  0.536 sec
     gradient                   ...        0 min,  0.233 sec
 * total energy  :  -464.4213514 Eh     change       -0.6061045E-03 Eh
   gradient norm :     0.0043317 Eh/α   predicted    -0.5654725E-03 (  -6.70%)
   displ. norm   :     0.8844632 α      lambda       -0.6517079E-03
   maximum displ.:     0.5151501 α      in ANC's #3, #2, #12, ...

........................................................................
.............................. CYCLE   59 ..............................
........................................................................
   1   -470.0503894 -0.470050E+03  0.424E-02    1.58       0.0  T
   2   -470.0503919 -0.259096E-05  0.239E-02    1.58       1.0  T
   3   -470.0503830  0.898707E-05  0.702E-03    1.58       1.0  T
   4   -470.0503929 -0.997423E-05  0.253E-03    1.58       2.6  T
   5   -470.0503932 -0.301880E-06  0.125E-03    1.58       5.2  T
   6   -470.0503936 -0.324411E-06  0.518E-04    1.58      12.5  T
   7   -470.0503936 -0.279558E-07  0.373E-04    1.58      17.3  T
     SCC iter.                  ...        0 min,  0.534 sec
     gradient                   ...        0 min,  0.233 sec
 * total energy  :  -464.4219676 Eh     change       -0.6161656E-03 Eh
   gradient norm :     0.0045908 Eh/α   predicted    -0.5807609E-03 (  -5.75%)
   displ. norm   :     0.8965935 α      lambda       -0.6527311E-03
   maximum displ.:     0.5232587 α      in ANC's #3, #2, #12, ...

........................................................................
.............................. CYCLE   60 ..............................
[...]
     7   6 C       10   6 C                                       1.3628059
    10   6 C       11  17 Cl                                      1.7197234
     5   6 C       12   6 C                                       1.3704051
    10   6 C       12   6 C                                       1.4196301
    12   6 C       13  17 Cl                                      1.7121401
     4   6 C       14   6 C                                       1.3933241
    14   6 C       15   6 C                                       1.4153990
    15   6 C       16   6 C                                       1.4042748
    17   6 C       18  16 S                                       1.7410216
    18  16 S       19   6 C                                       1.7307450
    19   6 C       20   6 C                                       1.4886149
    20   6 C       21   6 C                                       1.5304248
    19   6 C       22   6 C                                       1.3622922
    17   6 C       23   6 C                                       1.3659649
    22   6 C       23   6 C                                       1.4221415
    23   6 C       24  17 Cl                                      1.7134748
    22   6 C       25  17 Cl                                      1.7159861
     3   6 C       26   6 C                                       1.4174423
    16   6 C       26   6 C                                       1.3889205
     1   6 C       27  16 S                                       1.7274544
    26   6 C       27  16 S                                       1.7400213
    15   6 C       28   6 C                                       1.4180661
    28   6 C       29   6 C                                       1.3626972
    14   6 C       30  16 S                                       1.7397314
    29   6 C       30  16 S                                       1.7514046
    29   6 C       31   6 C                                       1.4279515
    31   6 C       32   6 C                                       1.3650123
    32   6 C       33   6 C                                       1.4180164
    33   6 C       34   6 C                                       1.4069801
    35   6 C       36  16 S                                       1.7389190
    36  16 S       37   6 C                                       1.7310250
    37   6 C       38   6 C                                       1.4890437
    38   6 C       39   6 C                                       1.5305005
    37   6 C       40   6 C                                       1.3625164
    40   6 C       41  17 Cl                                      1.7169639
    35   6 C       42   6 C                                       1.3677413
    40   6 C       42   6 C                                       1.4207210
    42   6 C       43  17 Cl                                      1.7164135
    34   6 C       44   6 C                                       1.3894771
    44   6 C       45   6 C                                       1.4149251
    45   6 C       46   6 C                                       1.4050630
    47   6 C       48  16 S                                       1.7438385
    48  16 S       49   6 C                                       1.7288377
    49   6 C       50   6 C                                       1.4897874
    50   6 C       51   6 C                                       1.5287697
    49   6 C       52   6 C                                       1.3626498
    47   6 C       53   6 C                                       1.3692497
    52   6 C       53   6 C                                       1.4193182
    53   6 C       54  17 Cl                                      1.7138354
    52   6 C       55  17 Cl                                      1.7152915
    33   6 C       56   6 C                                       1.4185195
    46   6 C       56   6 C                                       1.3909753
    31   6 C       57  16 S                                       1.7440741
    56   6 C       57  16 S                                       1.7344467
    45   6 C       58   6 C                                       1.4141567
    58   6 C       59   6 C                                       1.3644801
    44   6 C       60  16 S                                       1.7431016
    59   6 C       60  16 S                                       1.7495568
    61   6 C       62   6 C                                       1.4097411
    62   6 C       63   8 O                                       1.3511126
    63   8 O       64   6 C                                       1.4130709
    64   6 C       65   6 C                                       1.5208466
    62   6 C       66   6 C                                       1.3910674
    66   6 C       67   6 C                                       1.3928422
    67   6 C       68   8 O                                       1.3520912
    68   8 O       69   6 C                                       1.4142542
    69   6 C       70   6 C                                       1.5204364
    67   6 C       71   6 C                                       1.4070256
    61   6 C       72   6 C                                       1.3898941
    71   6 C       72   6 C                                       1.3879415
    73   6 C       74   6 C                                       1.3420733
    75   6 C       76   6 C                                       1.3639904
    76   6 C       77   6 C                                       1.4193214
    77   6 C       78   6 C                                       1.4085777
    79   6 C       80  16 S                                       1.7394309
    80  16 S       81   6 C                                       1.7307186
    81   6 C       82   6 C                                       1.4884764
    82   6 C       83   6 C                                       1.5305950
    81   6 C       84   6 C                                       1.3634643
    84   6 C       85  17 Cl                                      1.7168157
    79   6 C       86   6 C                                       1.3722267
    84   6 C       86   6 C                                       1.4186423
    86   6 C       87  17 Cl                                      1.7155075
    78   6 C       88   6 C                                       1.3933946
    88   6 C       89   6 C                                       1.4127963
    89   6 C       90   6 C                                       1.4116687
    91   6 C       92  16 S                                       1.7400664
    92  16 S       93   6 C                                       1.7300158
    93   6 C       94   6 C                                       1.4880915
    94   6 C       95   6 C                                       1.5304044
    93   6 C       96   6 C                                       1.3634143
    91   6 C       97   6 C                                       1.3729667
    96   6 C       97   6 C                                       1.4191286
    97   6 C       98  17 Cl                                      1.7168746
    96   6 C       99  17 Cl                                      1.7173035
    77   6 C      100   6 C                                       1.4139043
    90   6 C      100   6 C                                       1.3929667
    75   6 C      101  16 S                                       1.7563801 (max)
   100   6 C      101  16 S                                       1.7428109
    89   6 C      102   6 C                                       1.4235150
   102   6 C      103   6 C                                       1.3574829
    88   6 C      104  16 S                                       1.7390178
   103   6 C      104  16 S                                       1.7540177
   105   6 C      106   6 C                                       1.3549586
   106   6 C      107   6 C                                       1.4257052
   107   6 C      108   6 C                                       1.4048340
   109   6 C      110  16 S                                       1.7397661
   110  16 S      111   6 C                                       1.7302368
   111   6 C      112   6 C                                       1.4889076
   112   6 C      113   6 C                                       1.5307906
   111   6 C      114   6 C                                       1.3625958
   114   6 C      115  17 Cl                                      1.7153527
   109   6 C      116   6 C                                       1.3672675
   114   6 C      116   6 C                                       1.4208728
   116   6 C      117  17 Cl                                      1.7139755
   108   6 C      118   6 C                                       1.3898124
   118   6 C      119   6 C                                       1.4174279
   119   6 C      120   6 C                                       1.4048361
   121   6 C      122  16 S                                       1.7427042
   122  16 S      123   6 C                                       1.7278934
   123   6 C      124   6 C                                       1.4892405
   124   6 C      125   6 C                                       1.5312886
   123   6 C      126   6 C                                       1.3630957
   121   6 C      127   6 C                                       1.3703859
   126   6 C      127   6 C                                       1.4191741
   127   6 C      128  17 Cl                                      1.7101462
   126   6 C      129  17 Cl                                      1.7166121
   107   6 C      130   6 C                                       1.4161126
   120   6 C      130   6 C                                       1.3936616
   105   6 C      131  16 S                                       1.7548735
   130   6 C      131  16 S                                       1.7340707
   119   6 C      132   6 C                                       1.4155860
   132   6 C      133   6 C                                       1.3623821
   118   6 C      134  16 S                                       1.7403622
   133   6 C      134  16 S                                       1.7505170
   133   6 C      135   6 C                                       1.4244353
   135   6 C      136   6 C                                       1.3614991
   136   6 C      137   6 C                                       1.4166054
   137   6 C      138   6 C                                       1.4049364
   139   6 C      140  16 S                                       1.7404779
   140  16 S      141   6 C                                       1.7309120
   141   6 C      142   6 C                                       1.4889412
   142   6 C      143   6 C                                       1.5298305
   141   6 C      144   6 C                                       1.3624989
   144   6 C      145  17 Cl                                      1.7163488
   139   6 C      146   6 C                                       1.3664858
   144   6 C      146   6 C                                       1.4222474
   146   6 C      147  17 Cl                                      1.7134738
   138   6 C      148   6 C                                       1.3896332
   148   6 C      149   6 C                                       1.4157751
   149   6 C      150   6 C                                       1.4052551
   151   6 C      152  16 S                                       1.7391870
   152  16 S      153   6 C                                       1.7314102
   153   6 C      154   6 C                                       1.4896341
   154   6 C      155   6 C                                       1.5265294
   153   6 C      156   6 C                                       1.3624152
   151   6 C      157   6 C                                       1.3700577
   156   6 C      157   6 C                                       1.4204784
   157   6 C      158  17 Cl                                      1.7157325
   156   6 C      159  17 Cl                                      1.7148191
   137   6 C      160   6 C                                       1.4159477
   150   6 C      160   6 C                                       1.3921639
   135   6 C      161  16 S                                       1.7492396
   160   6 C      161  16 S                                       1.7405426
   149   6 C      162   6 C                                       1.4254626
   162   6 C      163   6 C                                       1.3485706
   148   6 C      164  16 S                                       1.7404192
   163   6 C      164  16 S                                       1.7284420
     1   6 C      165   1 H                                       1.0723285 (min)
     2   6 C      166   1 H                                       1.0736097
     8   6 C      167   1 H                                       1.0909806
     8   6 C      168   1 H                                       1.0916399
     9   6 C      169   1 H                                       1.0876439
     9   6 C      170   1 H                                       1.0864723
     9   6 C      171   1 H                                       1.0866675
    20   6 C      172   1 H                                       1.0913313
    20   6 C      173   1 H                                       1.0916090
    21   6 C      174   1 H                                       1.0865410
    21   6 C      175   1 H                                       1.0875629
    21   6 C      176   1 H                                       1.0871218
    28   6 C      177   1 H                                       1.0739695
    32   6 C      178   1 H                                       1.0738921
    38   6 C      179   1 H                                       1.0916375
    38   6 C      180   1 H                                       1.0913691
    39   6 C      181   1 H                                       1.0870274
    39   6 C      182   1 H                                       1.0865872
    39   6 C      183   1 H                                       1.0872493
    50   6 C      184   1 H                                       1.0914129
    50   6 C      185   1 H                                       1.0942269
    51   6 C      186   1 H                                       1.0858727
    51   6 C      187   1 H                                       1.0869561
    51   6 C      188   1 H                                       1.0869868
    58   6 C      189   1 H                                       1.0732251
    64   6 C      190   1 H                                       1.0989503
    64   6 C      191   1 H                                       1.0985249
    65   6 C      192   1 H                                       1.0861251
    65   6 C      193   1 H                                       1.0862989
    65   6 C      194   1 H                                       1.0860674
    66   6 C      195   1 H                                       1.0774709
    69   6 C      196   1 H                                       1.0987752
    69   6 C      197   1 H                                       1.0992348
    70   6 C      198   1 H                                       1.0861026
    70   6 C      199   1 H                                       1.0863889
    70   6 C      200   1 H                                       1.0862969
    72   6 C      201   1 H                                       1.0776258
    73   6 C      202   1 H                                       1.0838005
    74   6 C      203   1 H                                       1.0798937
    76   6 C      204   1 H                                       1.0749956
    82   6 C      205   1 H                                       1.0914986
    82   6 C      206   1 H                                       1.0913227
    83   6 C      207   1 H                                       1.0872027
    83   6 C      208   1 H                                       1.0874454
    83   6 C      209   1 H                                       1.0865861
    94   6 C      210   1 H                                       1.0912667
    94   6 C      211   1 H                                       1.0914681
    95   6 C      212   1 H                                       1.0873902
    95   6 C      213   1 H                                       1.0870645
    95   6 C      214   1 H                                       1.0865719
   102   6 C      215   1 H                                       1.0744161
   106   6 C      216   1 H                                       1.0746446
   112   6 C      217   1 H                                       1.0910407
   112   6 C      218   1 H                                       1.0919781
   113   6 C      219   1 H                                       1.0870116
   113   6 C      220   1 H                                       1.0874218
   113   6 C      221   1 H                                       1.0865452
   124   6 C      222   1 H                                       1.0906093
   124   6 C      223   1 H                                       1.0925387
   125   6 C      224   1 H                                       1.0864733
   125   6 C      225   1 H                                       1.0864659
   125   6 C      226   1 H                                       1.0871915
   132   6 C      227   1 H                                       1.0742700
   136   6 C      228   1 H                                       1.0746297
   142   6 C      229   1 H                                       1.0911416
   142   6 C      230   1 H                                       1.0928484
   143   6 C      231   1 H                                       1.0876688
   143   6 C      232   1 H                                       1.0874546
   143   6 C      233   1 H                                       1.0866810
   154   6 C      234   1 H                                       1.0940166
   154   6 C      235   1 H                                       1.0921342
   155   6 C      236   1 H                                       1.0875819
   155   6 C      237   1 H                                       1.0869334
   155   6 C      238   1 H                                       1.0876134
   162   6 C      239   1 H                                       1.0741520
   163   6 C      240   1 H                                       1.0725037

 * 5 distinct bonds (by element types)

   Z      Z             #   av. dist./Å        max./Å        min./Å
   1 H    6 C          76     1.0863718     1.0992348     1.0723285
   6 C    6 C         111     1.4166967     1.5312886     1.3420733
   6 C    8 O           4     1.3826322     1.4142542     1.3511126
   6 C   16 S          40     1.7391907     1.7563801     1.7274544
   6 C   17 Cl         20     1.7153395     1.7197234     1.7101462


optimized geometry written to: xtbopt.mol


           -------------------------------------------------
          | TOTAL ENERGY             -464.443906551395 Eh   |
          | GRADIENT NORM               0.000563431778 Eh/α |
          | HOMO-LUMO GAP               1.478603615135 eV   |
           -------------------------------------------------

------------------------------------------------------------------------
 * finished run on 2022/03/02 at 20:56:18.387     
------------------------------------------------------------------------
 total:
 * wall-time:     0 d,  0 h,  3 min, 36.307 sec
 *  cpu-time:     0 d,  0 h, 28 min, 47.533 sec
 * ratio c/w:     7.986 speedup
 SCF:
 * wall-time:     0 d,  0 h,  0 min,  1.699 sec
 *  cpu-time:     0 d,  0 h,  0 min, 13.568 sec
 * ratio c/w:     7.986 speedup
 ANC optimizer:
 * wall-time:     0 d,  0 h,  3 min, 34.028 sec
 *  cpu-time:     0 d,  0 h, 28 min, 31.936 sec
 * ratio c/w:     7.999 speedup

