      -----------------------------------------------------------      
     |                   =====================                   |     
     |                           x T B                           |     
     |                   =====================                   |     
     |                         S. Grimme                         |     
     |          Mulliken Center for Theoretical Chemistry        |     
     |                    University of Bonn                     |     
      -----------------------------------------------------------      

   * xtb version 6.4.1 (unknown) compiled by 'oda6@login1.crc.pitt.edu' on 2021-06-25

   xtb is free software: you can redistribute it and/or modify it under
   the terms of the GNU Lesser General Public License as published by
   the Free Software Foundation, either version 3 of the License, or
   (at your option) any later version.
   
   xtb is distributed in the hope that it will be useful,
   but WITHOUT ANY WARRANTY; without even the implied warranty of
   MERCHANTABILITY or FITNESS FOR A PARTICULAR PURPOSE.  See the
   GNU Lesser General Public License for more details.
   
   Cite this work as:
   * C. Bannwarth, E. Caldeweyher, S. Ehlert, A. Hansen, P. Pracht,
     J. Seibert, S. Spicher, S. Grimme, WIREs Comput. Mol. Sci., 2020, 11,
     e01493. DOI: 10.1002/wcms.1493
   
   for GFN2-xTB:
   * C. Bannwarth, S. Ehlert and S. Grimme., J. Chem. Theory Comput., 2019,
     15, 1652-1671. DOI: 10.1021/acs.jctc.8b01176
   for GFN1-xTB:
   * S. Grimme, C. Bannwarth, P. Shushkov, J. Chem. Theory Comput., 2017,
     13, 1989-2009. DOI: 10.1021/acs.jctc.7b00118
   for GFN0-xTB:
   * P. Pracht, E. Caldeweyher, S. Ehlert, S. Grimme, ChemRxiv, 2019, preprint.
     DOI: 10.26434/chemrxiv.8326202.v1
   for GFN-FF:
   * S. Spicher and S. Grimme, Angew. Chem. Int. Ed., 2020, 59, 15665-15673.
     DOI: 10.1002/anie.202004239
   
   for DFT-D4:
   * E. Caldeweyher, C. Bannwarth and S. Grimme, J. Chem. Phys., 2017,
     147, 034112. DOI: 10.1063/1.4993215
   * E. Caldeweyher, S. Ehlert, A. Hansen, H. Neugebauer, S. Spicher,
     C. Bannwarth and S. Grimme, J. Chem. Phys., 2019, 150, 154122.
     DOI: 10.1063/1.5090222
   * E. Caldeweyher, J.-M. Mewes, S. Ehlert and S. Grimme, Phys. Chem. Chem. Phys.
     2020, 22, 8499-8512. DOI: 10.1039/D0CP00502A
   
   for sTDA-xTB:
   * S. Grimme and C. Bannwarth, J. Chem. Phys., 2016, 145, 054103.
     DOI: 10.1063/1.4959605
   
   in the mass-spec context:
   * V. Asgeirsson, C. Bauer and S. Grimme, Chem. Sci., 2017, 8, 4879.
     DOI: 10.1039/c7sc00601b
   * J. Koopman and S. Grimme, ACS Omega 2019, 4, 12, 15120-15133.
     DOI: 10.1021/acsomega.9b02011
   
   for metadynamics refer to:
   * S. Grimme, J. Chem. Theory Comput., 2019, 155, 2847-2862
     DOI: 10.1021/acs.jctc.9b00143
   
   for SPH calculations refer to:
   * S. Spicher and S. Grimme, J. Chem. Theory Comput., 2021, 17, 1701-1714
     DOI: 10.1021/acs.jctc.0c01306
   
   with help from (in alphabetical order)
   P. Atkinson, C. Bannwarth, F. Bohle, G. Brandenburg, E. Caldeweyher
   M. Checinski, S. Dohm, S. Ehlert, S. Ehrlich, I. Gerasimov, J. Koopman
   C. Lavigne, S. Lehtola, F. März, M. Müller, F. Musil, H. Neugebauer
   J. Pisarek, C. Plett, P. Pracht, J. Seibert, P. Shushkov, S. Spicher
   M. Stahn, M. Steiner, T. Strunk, J. Stückrath, T. Rose, and J. Unsleber
   
 * started run on 2022/03/03 at 15:30:59.162     

           -------------------------------------------------
          |                Calculation Setup                |
           -------------------------------------------------

          program call               : /ihome/ghutchison/oda6/xtb/xtb-641/bin/xtb ../../FF_optimized/558_99_100111.mol -opt
          hostname                   : smp-n90
          coordinate file            : ../../FF_optimized/558_99_100111.mol
          omp threads                :                     8
          number of atoms            :                   280
          number of electrons        :                   822
          charge                     :                     0
          spin                       :                   0.0
          first test random number   :      0.88675639562974

   ID    Z sym.   atoms
    1    6 C      1-8, 10-12, 14-21, 23-26, 28, 30, 31, 33-38, 40-43, 45-54,
                  56-59, 61-72, 74-76, 78-85, 87-90, 92, 94, 95, 97-104,
                  106-108, 110-117, 119-122, 124, 126, 127, 129-136, 138-140,
                  142-149, 151-154, 156, 158, 159
    2   16 S      9, 22, 29, 32, 44, 60, 73, 86, 93, 96, 105, 118, 125, 128,
                  137, 150, 157, 160
    3    9 F      13, 27, 77, 91, 109, 123, 141, 155
    4    7 N      39, 55
    5    1 H      161-280
########################################################################
[WARNING] Please study the warnings concerning your input carefully
-1- prog_main_parseArguments: the use of '-opt' is discouraged, please use '--opt' next time
########################################################################

           -------------------------------------------------
          |                 G F N 2 - x T B                 |
           -------------------------------------------------

        Reference                      10.1021/acs.jctc.8b01176
      * Hamiltonian:
        H0-scaling (s, p, d)           1.850000    2.230000    2.230000
        zeta-weighting                 0.500000
      * Dispersion:
        s8                             2.700000
        a1                             0.520000
        a2                             5.000000
        s9                             5.000000
      * Repulsion:
        kExp                           1.500000    1.000000
        rExp                           1.000000
      * Coulomb:
        alpha                          2.000000
        third order                    shell-resolved
        anisotropic                    true
        a3                             3.000000
        a5                             4.000000
        cn-shift                       1.200000
        cn-exp                         4.000000
        max-rad                        5.000000


          ...................................................
          :                      SETUP                      :
          :.................................................:
          :  # basis functions                 868          :
          :  # atomic orbitals                 850          :
          :  # shells                          458          :
          :  # electrons                       822          :
          :  max. iterations                   250          :
          :  Hamiltonian                  GFN2-xTB          :
          :  restarted?                      false          :
          :  GBSA solvation                  false          :
          :  PC potential                    false          :
          :  electronic temp.          300.0000000     K    :
          :  accuracy                    1.0000000          :
          :  -> integral cutoff          0.2500000E+02      :
          :  -> integral neglect         0.1000000E-07      :
          :  -> SCF convergence          0.1000000E-05 Eh   :
          :  -> wf. convergence          0.1000000E-03 e    :
          :  Broyden damping             0.4000000          :
          ...................................................

 iter      E             dE          RMSdq      gap      omega  full diag
   1   -451.3586795 -0.451359E+03  0.421E+00    1.70       0.0  T
   2   -451.7774041 -0.418725E+00  0.247E+00    1.59       1.0  T
   3   -451.6014586  0.175945E+00  0.118E+00    1.10       1.0  T
   4   -451.8277970 -0.226338E+00  0.530E-01    1.03       1.0  T
   5   -451.8724355 -0.446384E-01  0.214E-01    0.98       1.0  T
   6   -451.8757656 -0.333016E-02  0.983E-02    0.98       1.0  T
   7   -451.8768269 -0.106124E-02  0.387E-02    0.99       1.0  T
   8   -451.8769834 -0.156580E-03  0.222E-02    1.00       1.0  T
   9   -451.8770522 -0.687874E-04  0.116E-02    1.00       1.0  T
  10   -451.8770706 -0.184058E-04  0.389E-03    1.00       1.5  T
  11   -451.8770718 -0.115171E-05  0.190E-03    1.00       3.1  T
  12   -451.8770720 -0.247896E-06  0.104E-03    1.00       5.7  T
  13   -451.8770722 -0.156081E-06  0.483E-04    1.00      12.4  T
  14   -451.8770722 -0.221971E-07  0.228E-04    1.00      26.2  T

   *** convergence criteria satisfied after 14 iterations ***

         #    Occupation            Energy/Eh            Energy/eV
      -------------------------------------------------------------
         1        2.0000           -0.8348286             -22.7168
       ...           ...                  ...                  ...
       405        2.0000           -0.3646469              -9.9225
       406        2.0000           -0.3639384              -9.9033
       407        2.0000           -0.3638346              -9.9004
       408        2.0000           -0.3619379              -9.8488
       409        2.0000           -0.3598657              -9.7924
       410        2.0000           -0.3555587              -9.6752
       411        2.0000           -0.3514205              -9.5626 (HOMO)
       412                         -0.3145730              -8.5600 (LUMO)
       413                         -0.2983335              -8.1181
       414                         -0.2942863              -8.0079
       415                         -0.2885043              -7.8506
       416                         -0.2760210              -7.5109
       ...                                ...                  ...
       850                          0.7724619              21.0198
      -------------------------------------------------------------
                  HL-Gap            0.0368475 Eh            1.0027 eV
             Fermi-level           -0.3329906 Eh           -9.0611 eV

 SCC (total)                   0 d,  0 h,  0 min,  1.341 sec
 SCC setup                      ...        0 min,  0.005 sec (  0.349%)
 Dispersion                     ...        0 min,  0.015 sec (  1.132%)
 classical contributions        ...        0 min,  0.001 sec (  0.052%)
 integral evaluation            ...        0 min,  0.064 sec (  4.772%)
 iterations                     ...        0 min,  0.958 sec ( 71.457%)
 molecular gradient             ...        0 min,  0.291 sec ( 21.720%)
 printout                       ...        0 min,  0.007 sec (  0.512%)

         :::::::::::::::::::::::::::::::::::::::::::::::::::::
         ::                     SUMMARY                     ::
         :::::::::::::::::::::::::::::::::::::::::::::::::::::
         :: total energy            -446.067163792759 Eh    ::
         :: gradient norm              0.324140855826 Eh/a0 ::
         :: HOMO-LUMO gap              1.002670371557 eV    ::
         ::.................................................::
         :: SCC energy              -451.877072216095 Eh    ::
         :: -> isotropic ES            0.143511634475 Eh    ::
         :: -> anisotropic ES          0.045242962765 Eh    ::
         :: -> anisotropic XC          0.196610732838 Eh    ::
         :: -> dispersion             -0.429283614901 Eh    ::
         :: repulsion energy           5.798564647117 Eh    ::
         :: add. restraining           0.000000000000 Eh    ::
         :: total charge               0.000000000098 e     ::
         :::::::::::::::::::::::::::::::::::::::::::::::::::::

      ----------------------------------------------------------- 
     |                   =====================                   |
     |                        A N C O P T                        |
     |                   =====================                   |
     |               Approximate Normal Coordinate               |
     |                Rational Function Optimizer                |
      ----------------------------------------------------------- 

          ...................................................
          :                      SETUP                      :
          :.................................................:
          :   optimization level            normal          :
          :   max. optcycles                   840          :
          :   ANC micro-cycles                  20          :
          :   degrees of freedom               834          :
          :.................................................:
          :   RF solver                   davidson          :
          :   write xtbopt.log                true          :
          :   linear?                        false          :
          :   energy convergence         0.5000000E-05 Eh   :
          :   grad. convergence          0.1000000E-02 Eh/α :
          :   maximium RF displ.         1.0000000          :
          :   Hlow (freq-cutoff)         0.1000000E-01      :
          :   Hmax (freq-cutoff)         5.0000000          :
          :   S6 in model hess.         20.0000000          :
          ...................................................

generating ANC from model Hessian ...
Using Lindh-Hessian (1995)
 Shifting diagonal of input Hessian by   1.001441959097336E-002
 Lowest  eigenvalues of input Hessian
    0.010000    0.010011    0.000000    0.000000    0.000000    0.000000
    0.000000    0.000000    0.010020    0.010030    0.010034    0.010036
    0.010054    0.010062    0.010074    0.010076    0.010085    0.010088
 Highest eigenvalues
    2.052360    2.053876    2.093359    2.094864    2.100187    2.103595
 

........................................................................
.............................. CYCLE    1 ..............................
........................................................................
   1   -451.8770722 -0.451877E+03  0.127E-04    1.00       0.0  T
   2   -451.8770722  0.136231E-08  0.128E-04    1.00      46.7  T
   3   -451.8770722 -0.530798E-08  0.419E-05    1.00     142.6  T
     SCC iter.                  ...        0 min,  0.209 sec
     gradient                   ...        0 min,  0.287 sec
 * total energy  :  -446.0671638 Eh     change       -0.6295124E-08 Eh
   gradient norm :     0.3241404 Eh/α   predicted     0.0000000E+00 (-100.00%)
   displ. norm   :     0.4853381 α      lambda       -0.1168640E+00
   maximum displ.:     0.1061001 α      in ANC's #483, #459, #493, ...

........................................................................
.............................. CYCLE    2 ..............................
........................................................................
   1   -452.1622304 -0.452162E+03  0.219E-01    0.96       0.0  T
   2   -452.1629613 -0.730923E-03  0.127E-01    0.96       1.0  T
   3   -452.1625119  0.449438E-03  0.599E-02    0.98       1.0  T
   4   -452.1631451 -0.633156E-03  0.221E-02    0.98       1.0  T
   5   -452.1632097 -0.646789E-04  0.938E-03    0.98       1.0  T
   6   -452.1632237 -0.139242E-04  0.406E-03    0.98       1.5  T
   7   -452.1632266 -0.296111E-05  0.153E-03    0.98       3.9  T
   8   -452.1632269 -0.325863E-06  0.881E-04    0.98       6.8  T
   9   -452.1632271 -0.110313E-06  0.334E-04    0.98      17.9  T
     SCC iter.                  ...        0 min,  0.602 sec
     gradient                   ...        0 min,  0.288 sec
 * total energy  :  -446.1536792 Eh     change       -0.8651544E-01 Eh
   gradient norm :     0.1656477 Eh/α   predicted    -0.7222542E-01 ( -16.52%)
   displ. norm   :     0.4534097 α      lambda       -0.5095657E-01
   maximum displ.:     0.0734430 α      in ANC's #483, #164, #461, ...

........................................................................
.............................. CYCLE    3 ..............................
........................................................................
   1   -452.3593355 -0.452359E+03  0.179E-01    0.93       0.0  T
   2   -452.3600340 -0.698477E-03  0.102E-01    0.92       1.0  T
   3   -452.3598253  0.208683E-03  0.493E-02    0.95       1.0  T
   4   -452.3601484 -0.323076E-03  0.222E-02    0.95       1.0  T
   5   -452.3602318 -0.833758E-04  0.765E-03    0.95       1.0  T
   6   -452.3602372 -0.544598E-05  0.370E-03    0.95       1.6  T
   7   -452.3602398 -0.259665E-05  0.115E-03    0.95       5.2  T
   8   -452.3602399 -0.112219E-06  0.702E-04    0.95       8.5  T
   9   -452.3602400 -0.679718E-07  0.290E-04    0.95      20.6  T
     SCC iter.                  ...        0 min,  0.608 sec
     gradient                   ...        0 min,  0.288 sec
 * total energy  :  -446.1854838 Eh     change       -0.3180453E-01 Eh
   gradient norm :     0.0456462 Eh/α   predicted    -0.3071612E-01 (  -3.42%)
   displ. norm   :     0.4767400 α      lambda       -0.1033998E-01
   maximum displ.:     0.1123910 α      in ANC's #82, #90, #72, ...

........................................................................
.............................. CYCLE    4 ..............................
........................................................................
   1   -452.4008718 -0.452401E+03  0.827E-02    0.91       0.0  T
   2   -452.4009563 -0.845038E-04  0.470E-02    0.92       1.0  T
   3   -452.4008843  0.719330E-04  0.207E-02    0.93       1.0  T
   4   -452.4009638 -0.795003E-04  0.916E-03    0.93       1.0  T
   5   -452.4009811 -0.172758E-04  0.302E-03    0.93       2.0  T
   6   -452.4009818 -0.637259E-06  0.135E-03    0.93       4.4  T
   7   -452.4009821 -0.394866E-06  0.471E-04    0.93      12.7  T
   8   -452.4009822 -0.291503E-07  0.259E-04    0.93      23.0  T
     SCC iter.                  ...        0 min,  0.540 sec
     gradient                   ...        0 min,  0.287 sec
 * total energy  :  -446.1927967 Eh     change       -0.7312917E-02 Eh
   gradient norm :     0.0197327 Eh/α   predicted    -0.6345180E-02 ( -13.23%)
   displ. norm   :     0.5261338 α      lambda       -0.4828858E-02
   maximum displ.:     0.1582544 α      in ANC's #82, #72, #90, ...

........................................................................
.............................. CYCLE    5 ..............................
........................................................................
   1   -452.4182575 -0.452418E+03  0.600E-02    0.90       0.0  T
   2   -452.4182799 -0.223718E-04  0.332E-02    0.91       1.0  T
   3   -452.4182497  0.301908E-04  0.123E-02    0.92       1.0  T
   4   -452.4182821 -0.323637E-04  0.544E-03    0.92       1.1  T
   5   -452.4182870 -0.496234E-05  0.195E-03    0.92       3.1  T
   6   -452.4182873 -0.310550E-06  0.789E-04    0.92       7.6  T
   7   -452.4182875 -0.153367E-06  0.291E-04    0.92      20.5  T
     SCC iter.                  ...        0 min,  0.473 sec
     gradient                   ...        0 min,  0.287 sec
 * total energy  :  -446.1963859 Eh     change       -0.3589174E-02 Eh
   gradient norm :     0.0116986 Eh/α   predicted    -0.3082787E-02 ( -14.11%)
   displ. norm   :     0.5617982 α      lambda       -0.2922426E-02
   maximum displ.:     0.1734424 α      in ANC's #82, #50, #72, ...

........................................................................
.............................. CYCLE    6 ..............................
........................................................................
   1   -452.4271600 -0.452427E+03  0.540E-02    0.90       0.0  T
   2   -452.4271693 -0.928736E-05  0.294E-02    0.90       1.0  T
   3   -452.4271586  0.106475E-04  0.842E-03    0.91       1.0  T
   4   -452.4271707 -0.120551E-04  0.391E-03    0.91       1.5  T
   5   -452.4271722 -0.150432E-05  0.152E-03    0.91       3.9  T
   6   -452.4271727 -0.470667E-06  0.443E-04    0.91      13.5  T
   7   -452.4271727 -0.339224E-07  0.216E-04    0.91      27.6  T
     SCC iter.                  ...        0 min,  0.465 sec
     gradient                   ...        0 min,  0.287 sec
 * total energy  :  -446.1986559 Eh     change       -0.2270027E-02 Eh
   gradient norm :     0.0121633 Eh/α   predicted    -0.1922399E-02 ( -15.31%)
   displ. norm   :     0.5993985 α      lambda       -0.2200574E-02
   maximum displ.:     0.1991831 α      in ANC's #50, #53, #82, ...

........................................................................
.............................. CYCLE    7 ..............................
........................................................................
   1   -452.4343685 -0.452434E+03  0.559E-02    0.89       0.0  T
   2   -452.4343774 -0.891086E-05  0.305E-02    0.90       1.0  T
   3   -452.4343650  0.124221E-04  0.862E-03    0.90       1.0  T
   4   -452.4343786 -0.136305E-04  0.401E-03    0.90       1.5  T
   5   -452.4343805 -0.185713E-05  0.155E-03    0.90       3.9  T
   6   -452.4343810 -0.522823E-06  0.464E-04    0.90      12.9  T
   7   -452.4343810 -0.428853E-07  0.215E-04    0.90      27.8  T
     SCC iter.                  ...        0 min,  0.483 sec
     gradient                   ...        0 min,  0.288 sec
 * total energy  :  -446.2004241 Eh     change       -0.1768253E-02 Eh
   gradient norm :     0.0122498 Eh/α   predicted    -0.1495637E-02 ( -15.42%)
   displ. norm   :     0.6337031 α      lambda       -0.1887449E-02
   maximum displ.:     0.2205251 α      in ANC's #50, #53, #72, ...

........................................................................
.............................. CYCLE    8 ..............................
........................................................................
   1   -452.4398568 -0.452440E+03  0.595E-02    0.89       0.0  T
   2   -452.4398680 -0.111744E-04  0.327E-02    0.90       1.0  T
   3   -452.4398482  0.197637E-04  0.100E-02    0.90       1.0  T
   4   -452.4398694 -0.212060E-04  0.445E-03    0.90       1.3  T
   5   -452.4398722 -0.282980E-05  0.169E-03    0.90       3.5  T
   6   -452.4398727 -0.470681E-06  0.570E-04    0.90      10.5  T
   7   -452.4398728 -0.707056E-07  0.244E-04    0.90      24.5  T
     SCC iter.                  ...        0 min,  0.481 sec
     gradient                   ...        0 min,  0.288 sec
 * total energy  :  -446.2019778 Eh     change       -0.1553687E-02 Eh
   gradient norm :     0.0097938 Eh/α   predicted    -0.1322753E-02 ( -14.86%)
   displ. norm   :     0.6633309 α      lambda       -0.1710235E-02
   maximum displ.:     0.2347424 α      in ANC's #53, #50, #52, ...

........................................................................
.............................. CYCLE    9 ..............................
........................................................................
   1   -452.4444940 -0.452444E+03  0.653E-02    0.90       0.0  T
   2   -452.4445067 -0.127202E-04  0.358E-02    0.90       1.0  T
   3   -452.4444871  0.196118E-04  0.103E-02    0.90       1.0  T
   4   -452.4445079 -0.208308E-04  0.483E-03    0.90       1.2  T
   5   -452.4445112 -0.327707E-05  0.180E-03    0.90       3.3  T
   6   -452.4445117 -0.553524E-06  0.603E-04    0.90       9.9  T
   7   -452.4445118 -0.740990E-07  0.266E-04    0.90      22.4  T
     SCC iter.                  ...        0 min,  0.473 sec
     gradient                   ...        0 min,  0.287 sec
 * total energy  :  -446.2034066 Eh     change       -0.1428807E-02 Eh
   gradient norm :     0.0077778 Eh/α   predicted    -0.1231378E-02 ( -13.82%)
   displ. norm   :     0.6924240 α      lambda       -0.1557035E-02
   maximum displ.:     0.2551962 α      in ANC's #53, #50, #52, ...

........................................................................
.............................. CYCLE   10 ..............................
........................................................................
   1   -452.4465817 -0.452447E+03  0.721E-02    0.90       0.0  T
   2   -452.4465955 -0.137790E-04  0.391E-02    0.90       1.0  T
   3   -452.4465852  0.102615E-04  0.940E-03    0.90       1.0  T
   4   -452.4465960 -0.107999E-04  0.507E-03    0.90       1.2  T
   5   -452.4465993 -0.324206E-05  0.181E-03    0.90       3.3  T
   6   -452.4466000 -0.688838E-06  0.588E-04    0.90      10.2  T
   7   -452.4466000 -0.628874E-07  0.271E-04    0.90      22.0  T
     SCC iter.                  ...        0 min,  0.475 sec
     gradient                   ...        0 min,  0.288 sec
 * total energy  :  -446.2047315 Eh     change       -0.1324829E-02 Eh
   gradient norm :     0.0088461 Eh/α   predicted    -0.1151782E-02 ( -13.06%)
   displ. norm   :     0.7205049 α      lambda       -0.1467003E-02
   maximum displ.:     0.2672538 α      in ANC's #53, #52, #32, ...

........................................................................
.............................. CYCLE   11 ..............................
........................................................................
   1   -452.4467428 -0.452447E+03  0.784E-02    0.90       0.0  T
   2   -452.4467588 -0.159820E-04  0.421E-02    0.90       1.0  T
   3   -452.4467554  0.340851E-05  0.883E-03    0.91       1.0  T
   4   -452.4467601 -0.472427E-05  0.500E-03    0.91       1.2  T
   5   -452.4467627 -0.260760E-05  0.151E-03    0.91       4.0  T
   6   -452.4467631 -0.425102E-06  0.594E-04    0.91      10.1  T
   7   -452.4467632 -0.642556E-07  0.267E-04    0.91      22.4  T
     SCC iter.                  ...        0 min,  0.474 sec
     gradient                   ...        0 min,  0.288 sec
 * total energy  :  -446.2060027 Eh     change       -0.1271256E-02 Eh
   gradient norm :     0.0098223 Eh/α   predicted    -0.1114288E-02 ( -12.35%)
   displ. norm   :     0.7409386 α      lambda       -0.1432939E-02
   maximum displ.:     0.2700522 α      in ANC's #53, #52, #32, ...

........................................................................
.............................. CYCLE   12 ..............................
........................................................................
   1   -452.4457492 -0.452446E+03  0.828E-02    0.91       0.0  T
   2   -452.4457681 -0.188758E-04  0.441E-02    0.91       1.0  T
   3   -452.4457625  0.557937E-05  0.953E-03    0.91       1.0  T
   4   -452.4457688 -0.635097E-05  0.550E-03    0.91       1.1  T
   5   -452.4457726 -0.376056E-05  0.169E-03    0.91       3.5  T
   6   -452.4457732 -0.616661E-06  0.636E-04    0.91       9.4  T
   7   -452.4457733 -0.907071E-07  0.288E-04    0.91      20.7  T
     SCC iter.                  ...        0 min,  0.469 sec
     gradient                   ...        0 min,  0.287 sec
 * total energy  :  -446.2072576 Eh     change       -0.1254857E-02 Eh
   gradient norm :     0.0090681 Eh/α   predicted    -0.1109816E-02 ( -11.56%)
   displ. norm   :     0.7516425 α      lambda       -0.1407447E-02
   maximum displ.:     0.2647628 α      in ANC's #53, #52, #32, ...

........................................................................
.............................. CYCLE   13 ..............................
........................................................................
   1   -452.4452005 -0.452445E+03  0.845E-02    0.91       0.0  T
   2   -452.4452211 -0.206006E-04  0.449E-02    0.91       1.0  T
   3   -452.4452096  0.115231E-04  0.105E-02    0.91       1.0  T
   4   -452.4452210 -0.114176E-04  0.606E-03    0.91       1.0  T
   5   -452.4452264 -0.534395E-05  0.199E-03    0.91       3.0  T
   6   -452.4452272 -0.845901E-06  0.697E-04    0.91       8.6  T
   7   -452.4452273 -0.105621E-06  0.294E-04    0.91      20.3  T
     SCC iter.                  ...        0 min,  0.475 sec
     gradient                   ...        0 min,  0.288 sec
 * total energy  :  -446.2084912 Eh     change       -0.1233628E-02 Eh
   gradient norm :     0.0078736 Eh/α   predicted    -0.1101321E-02 ( -10.73%)
   displ. norm   :     0.7583155 α      lambda       -0.1347815E-02
   maximum displ.:     0.2570229 α      in ANC's #53, #52, #32, ...

........................................................................
.............................. CYCLE   14 ..............................
........................................................................
   1   -452.4443725 -0.452444E+03  0.849E-02    0.91       0.0  T
   2   -452.4443932 -0.207375E-04  0.449E-02    0.91       1.0  T
   3   -452.4443791  0.141200E-04  0.110E-02    0.91       1.0  T
   4   -452.4443929 -0.138456E-04  0.622E-03    0.91       1.0  T
   5   -452.4443986 -0.572308E-05  0.209E-03    0.91       2.9  T
   6   -452.4443996 -0.938826E-06  0.708E-04    0.91       8.4  T
   7   -452.4443997 -0.104748E-06  0.281E-04    0.91      21.3  T
     SCC iter.                  ...        0 min,  0.471 sec
     gradient                   ...        0 min,  0.287 sec
 * total energy  :  -446.2096692 Eh     change       -0.1178003E-02 Eh
   gradient norm :     0.0082158 Eh/α   predicted    -0.1061444E-02 (  -9.89%)
   displ. norm   :     0.7534162 α      lambda       -0.1264629E-02
   maximum displ.:     0.2429270 α      in ANC's #52, #53, #32, ...

........................................................................
.............................. CYCLE   15 ..............................
........................................................................
   1   -452.4460953 -0.452446E+03  0.835E-02    0.91       0.0  T
   2   -452.4461152 -0.198937E-04  0.440E-02    0.91       1.0  T
   3   -452.4461026  0.126216E-04  0.107E-02    0.91       1.0  T
   4   -452.4461150 -0.123673E-04  0.615E-03    0.91       1.0  T
   5   -452.4461204 -0.546717E-05  0.203E-03    0.91       2.9  T
   6   -452.4461213 -0.897062E-06  0.670E-04    0.91       8.9  T
   7   -452.4461214 -0.899049E-07  0.264E-04    0.91      22.6  T
     SCC iter.                  ...        0 min,  0.473 sec
     gradient                   ...        0 min,  0.287 sec
 * total energy  :  -446.2107643 Eh     change       -0.1095146E-02 Eh
   gradient norm :     0.0091114 Eh/α   predicted    -0.9912419E-03 (  -9.49%)
   displ. norm   :     0.7689446 α      lambda       -0.1157460E-02
   maximum displ.:     0.2485181 α      in ANC's #52, #53, #32, ...

........................................................................
.............................. CYCLE   16 ..............................
........................................................................
   1   -452.4419332 -0.452442E+03  0.852E-02    0.90       0.0  T
   2   -452.4419559 -0.226402E-04  0.445E-02    0.91       1.0  T
   3   -452.4419453  0.105921E-04  0.111E-02    0.91       1.0  T
   4   -452.4419576 -0.123362E-04  0.603E-03    0.91       1.0  T
   5   -452.4419614 -0.382749E-05  0.207E-03    0.91       2.9  T
   6   -452.4419623 -0.909995E-06  0.715E-04    0.91       8.4  T
   7   -452.4419624 -0.111752E-06  0.253E-04    0.91      23.6  T
     SCC iter.                  ...        0 min,  0.474 sec
     gradient                   ...        0 min,  0.287 sec
 * total energy  :  -446.2117608 Eh     change       -0.9964617E-03 Eh
   gradient norm :     0.0093637 Eh/α   predicted    -0.9209224E-03 (  -7.58%)
   displ. norm   :     0.7297728 α      lambda       -0.1257181E-02
   maximum displ.:     0.2116040 α      in ANC's #33, #58, #32, ...

........................................................................
.............................. CYCLE   17 ..............................
........................................................................
   1   -452.4623169 -0.452462E+03  0.792E-02    0.90       0.0  T
   2   -452.4623385 -0.216107E-04  0.409E-02    0.91       1.0  T
   3   -452.4623231  0.154085E-04  0.110E-02    0.90       1.0  T
   4   -452.4623407 -0.175563E-04  0.598E-03    0.90       1.0  T
   5   -452.4623449 -0.420655E-05  0.203E-03    0.90       2.9  T
   6   -452.4623457 -0.767582E-06  0.635E-04    0.90       9.4  T
   7   -452.4623457 -0.662112E-07  0.296E-04    0.90      20.2  T
     SCC iter.                  ...        0 min,  0.470 sec
     gradient                   ...        0 min,  0.287 sec
 * total energy  :  -446.2125136 Eh     change       -0.7527777E-03 Eh
   gradient norm :     0.0116612 Eh/α   predicted    -0.9633935E-03 (  27.98%)
   displ. norm   :     0.7198636 α      lambda       -0.1207853E-02
   maximum displ.:     0.2408323 α      in ANC's #53, #52, #32, ...

........................................................................
.............................. CYCLE   18 ..............................
........................................................................
   1   -452.4441683 -0.452444E+03  0.810E-02    0.90       0.0  T
   2   -452.4441945 -0.262282E-04  0.420E-02    0.91       1.0  T
   3   -452.4441823  0.122294E-04  0.119E-02    0.90       1.0  T
   4   -452.4441992 -0.168802E-04  0.560E-03    0.90       1.1  T
   5   -452.4442010 -0.184472E-05  0.210E-03    0.91       2.8  T
   6   -452.4442019 -0.873541E-06  0.778E-04    0.90       7.7  T
   7   -452.4442020 -0.145707E-06  0.248E-04    0.90      24.1  T
     SCC iter.                  ...        0 min,  0.472 sec
     gradient                   ...        0 min,  0.287 sec
 * total energy  :  -446.2133816 Eh     change       -0.8679702E-03 Eh
   gradient norm :     0.0094251 Eh/α   predicted    -0.9168849E-03 (   5.64%)
   displ. norm   :     0.6116056 α      lambda       -0.7415770E-03
   maximum displ.:     0.1821480 α      in ANC's #52, #32, #58, ...

........................................................................
.............................. CYCLE   19 ..............................
........................................................................
   1   -452.4402781 -0.452440E+03  0.657E-02    0.90       0.0  T
   2   -452.4402939 -0.157197E-04  0.333E-02    0.91       1.0  T
   3   -452.4402891  0.474538E-05  0.856E-03    0.91       1.0  T
   4   -452.4402961 -0.695261E-05  0.453E-03    0.91       1.3  T
   5   -452.4402977 -0.164693E-05  0.139E-03    0.91       4.3  T
   6   -452.4402981 -0.373912E-06  0.548E-04    0.91      10.9  T
   7   -452.4402982 -0.693956E-07  0.188E-04    0.91      31.8  T
     SCC iter.                  ...        0 min,  0.472 sec
     gradient                   ...        0 min,  0.287 sec
 * total energy  :  -446.2140250 Eh     change       -0.6434429E-03 Eh
   gradient norm :     0.0105738 Eh/α   predicted    -0.5094885E-03 ( -20.82%)
   displ. norm   :     0.6224950 α      lambda       -0.1129781E-02
   maximum displ.:     0.1766887 α      in ANC's #33, #32, #58, ...

........................................................................
.............................. CYCLE   20 ..............................
........................................................................
   1   -452.4503573 -0.452450E+03  0.662E-02    0.91       0.0  T
   2   -452.4503741 -0.168475E-04  0.332E-02    0.91       1.0  T
   3   -452.4503663  0.786231E-05  0.892E-03    0.91       1.0  T
   4   -452.4503756 -0.937116E-05  0.502E-03    0.91       1.2  T
   5   -452.4503784 -0.277605E-05  0.176E-03    0.91       3.4  T
   6   -452.4503791 -0.680405E-06  0.551E-04    0.91      10.8  T
   7   -452.4503792 -0.542287E-07  0.244E-04    0.91      24.5  T
     SCC iter.                  ...        0 min,  0.477 sec
     gradient                   ...        0 min,  0.287 sec
 * total energy  :  -446.2149079 Eh     change       -0.8829124E-03 Eh
   gradient norm :     0.0093903 Eh/α   predicted    -0.7837896E-03 ( -11.23%)
   displ. norm   :     0.7404228 α      lambda       -0.1047568E-02
   maximum displ.:     0.2335678 α      in ANC's #33, #32, #58, ...
 * RMSD in coord.:     0.6119140 α      energy gain  -0.1477441E+00 Eh

generating ANC from model Hessian ...
Using Lindh-Hessian (1995)
 Shifting diagonal of input Hessian by   1.000581669295230E-002
 Lowest  eigenvalues of input Hessian
    0.010000    0.010006    0.000000    0.000000    0.000000    0.000000
    0.000000    0.000000    0.010011    0.010019    0.010025    0.010028
    0.010047    0.010057    0.010064    0.010071    0.010075    0.010081
 Highest eigenvalues
    2.095140    2.097160    2.109501    2.112111    2.112587    2.115388
 

........................................................................
.............................. CYCLE   21 ..............................
........................................................................
   1   -452.4491030 -0.452449E+03  0.820E-02    0.91       0.0  T
   2   -452.4491287 -0.257462E-04  0.404E-02    0.91       1.0  T
   3   -452.4491263  0.241749E-05  0.932E-03    0.91       1.0  T
   4   -452.4491311 -0.482577E-05  0.544E-03    0.91       1.1  T
   5   -452.4491341 -0.296882E-05  0.177E-03    0.91       3.4  T
   6   -452.4491347 -0.609154E-06  0.681E-04    0.91       8.8  T
   7   -452.4491348 -0.100668E-06  0.269E-04    0.91      22.2  T
     SCC iter.                  ...        0 min,  0.470 sec
     gradient                   ...        0 min,  0.287 sec
 * total energy  :  -446.2157121 Eh     change       -0.8041465E-03 Eh
   gradient norm :     0.0115311 Eh/α   predicted     0.0000000E+00 (-100.00%)
   displ. norm   :     0.1441749 α      lambda       -0.5189466E-03
   maximum displ.:     0.0578463 α      in ANC's #32, #53, #62, ...

........................................................................
.............................. CYCLE   22 ..............................
........................................................................
   1   -452.4541132 -0.452454E+03  0.211E-02    0.91       0.0  T
   2   -452.4541151 -0.192233E-05  0.112E-02    0.91       1.0  T
   3   -452.4541139  0.115898E-05  0.317E-03    0.91       1.9  T
   4   -452.4541154 -0.143195E-05  0.159E-03    0.91       3.8  T
   5   -452.4541156 -0.209710E-06  0.614E-04    0.91       9.7  T
   6   -452.4541156 -0.622828E-07  0.239E-04    0.91      25.0  T
     SCC iter.                  ...        0 min,  0.405 sec
     gradient                   ...        0 min,  0.287 sec
 * total energy  :  -446.2161241 Eh     change       -0.4119916E-03 Eh
   gradient norm :     0.0050266 Eh/α   predicted    -0.2649057E-03 ( -35.70%)
   displ. norm   :     0.3760279 α      lambda       -0.7415631E-03
   maximum displ.:     0.1580244 α      in ANC's #32, #53, #62, ...

........................................................................
.............................. CYCLE   23 ..............................
........................................................................
   1   -452.4586427 -0.452459E+03  0.486E-02    0.91       0.0  T
   2   -452.4586508 -0.811026E-05  0.248E-02    0.91       1.0  T
   3   -452.4586473  0.346156E-05  0.622E-03    0.91       1.0  T
   4   -452.4586517 -0.439908E-05  0.349E-03    0.91       1.7  T
   5   -452.4586529 -0.115799E-05  0.112E-03    0.91       5.3  T
   6   -452.4586531 -0.264044E-06  0.390E-04    0.91      15.3  T
   7   -452.4586532 -0.302887E-07  0.168E-04    0.91      35.6  T
     SCC iter.                  ...        0 min,  0.481 sec
     gradient                   ...        0 min,  0.288 sec
 * total energy  :  -446.2166832 Eh     change       -0.5591557E-03 Eh
   gradient norm :     0.0061445 Eh/α   predicted    -0.4232247E-03 ( -24.31%)
   displ. norm   :     0.5069992 α      lambda       -0.6762647E-03
   maximum displ.:     0.2139093 α      in ANC's #32, #53, #62, ...

........................................................................
.............................. CYCLE   24 ..............................
........................................................................
   1   -452.4580703 -0.452458E+03  0.638E-02    0.91       0.0  T
   2   -452.4580833 -0.129404E-04  0.318E-02    0.92       1.0  T
   3   -452.4580814  0.188390E-05  0.696E-03    0.92       1.0  T
   4   -452.4580843 -0.292372E-05  0.422E-03    0.92       1.4  T
   5   -452.4580864 -0.208245E-05  0.111E-03    0.92       5.4  T
   6   -452.4580866 -0.253589E-06  0.402E-04    0.92      14.9  T
   7   -452.4580867 -0.307031E-07  0.164E-04    0.92      36.4  T
     SCC iter.                  ...        0 min,  0.471 sec
     gradient                   ...        0 min,  0.287 sec
 * total energy  :  -446.2172687 Eh     change       -0.5854653E-03 Eh
   gradient norm :     0.0102720 Eh/α   predicted    -0.4251160E-03 ( -27.39%)
   displ. norm   :     0.7071686 α      lambda       -0.9098505E-03
   maximum displ.:     0.2968056 α      in ANC's #32, #53, #62, ...

........................................................................
.............................. CYCLE   25 ..............................
........................................................................
   1   -452.4524754 -0.452452E+03  0.885E-02    0.92       0.0  T
   2   -452.4525011 -0.257018E-04  0.435E-02    0.92       1.0  T
   3   -452.4525002  0.856337E-06  0.909E-03    0.92       1.0  T
   4   -452.4525031 -0.292645E-05  0.551E-03    0.92       1.1  T
   5   -452.4525068 -0.364273E-05  0.144E-03    0.92       4.1  T
   6   -452.4525072 -0.415774E-06  0.567E-04    0.92      10.5  T
   7   -452.4525073 -0.726037E-07  0.223E-04    0.92      26.8  T
     SCC iter.                  ...        0 min,  0.470 sec
     gradient                   ...        0 min,  0.287 sec
 * total energy  :  -446.2180460 Eh     change       -0.7772899E-03 Eh
   gradient norm :     0.0116805 Eh/α   predicted    -0.6824289E-03 ( -12.20%)
   displ. norm   :     0.6758313 α      lambda       -0.8708228E-03
   maximum displ.:     0.2921291 α      in ANC's #32, #62, #53, ...

........................................................................
.............................. CYCLE   26 ..............................
........................................................................
   1   -452.4479455 -0.452448E+03  0.817E-02    0.92       0.0  T
   2   -452.4479684 -0.228864E-04  0.400E-02    0.93       1.0  T
   3   -452.4479660  0.238186E-05  0.884E-03    0.92       1.0  T
   4   -452.4479703 -0.429713E-05  0.530E-03    0.93       1.1  T
   5   -452.4479734 -0.315446E-05  0.159E-03    0.92       3.8  T
   6   -452.4479740 -0.562954E-06  0.593E-04    0.92      10.1  T
   7   -452.4479741 -0.788623E-07  0.225E-04    0.92      26.6  T
     SCC iter.                  ...        0 min,  0.472 sec
     gradient                   ...        0 min,  0.287 sec
 * total energy  :  -446.2187402 Eh     change       -0.6942456E-03 Eh
   gradient norm :     0.0119711 Eh/α   predicted    -0.6342890E-03 (  -8.64%)
   displ. norm   :     0.5310718 α      lambda       -0.8073217E-03
   maximum displ.:     0.2418538 α      in ANC's #32, #62, #33, ...

........................................................................
.............................. CYCLE   27 ..............................
........................................................................
   1   -452.4516823 -0.452452E+03  0.595E-02    0.93       0.0  T
   2   -452.4516955 -0.132029E-04  0.293E-02    0.93       1.0  T
   3   -452.4516885  0.706788E-05  0.803E-03    0.93       1.0  T
   4   -452.4516975 -0.904603E-05  0.429E-03    0.93       1.4  T
   5   -452.4516991 -0.163642E-05  0.151E-03    0.93       4.0  T
   6   -452.4516997 -0.515942E-06  0.470E-04    0.93      12.7  T
   7   -452.4516997 -0.392077E-07  0.206E-04    0.93      29.1  T
     SCC iter.                  ...        0 min,  0.472 sec
     gradient                   ...        0 min,  0.287 sec
 * total energy  :  -446.2193694 Eh     change       -0.6291657E-03 Eh
   gradient norm :     0.0103732 Eh/α   predicted    -0.5175083E-03 ( -17.75%)
   displ. norm   :     0.5819911 α      lambda       -0.7518110E-03
   maximum displ.:     0.2632098 α      in ANC's #32, #34, #33, ...

........................................................................
.............................. CYCLE   28 ..............................
........................................................................
   1   -452.4537129 -0.452454E+03  0.638E-02    0.93       0.0  T
   2   -452.4537275 -0.146135E-04  0.314E-02    0.94       1.0  T
   3   -452.4537200  0.744602E-05  0.839E-03    0.93       1.0  T
   4   -452.4537291 -0.909906E-05  0.463E-03    0.93       1.3  T
   5   -452.4537314 -0.228216E-05  0.155E-03    0.93       3.9  T
   6   -452.4537320 -0.526511E-06  0.486E-04    0.93      12.3  T
   7   -452.4537320 -0.449184E-07  0.200E-04    0.93      29.9  T
     SCC iter.                  ...        0 min,  0.475 sec
     gradient                   ...        0 min,  0.287 sec
 * total energy  :  -446.2200037 Eh     change       -0.6343396E-03 Eh
   gradient norm :     0.0107096 Eh/α   predicted    -0.5032310E-03 ( -20.67%)
   displ. norm   :     0.6106454 α      lambda       -0.8573848E-03
   maximum displ.:     0.2691687 α      in ANC's #32, #34, #33, ...

........................................................................
.............................. CYCLE   29 ..............................
........................................................................
   1   -452.4606974 -0.452461E+03  0.634E-02    0.93       0.0  T
   2   -452.4607124 -0.149583E-04  0.314E-02    0.94       1.0  T
   3   -452.4607058  0.661397E-05  0.821E-03    0.94       1.0  T
   4   -452.4607137 -0.795002E-05  0.464E-03    0.94       1.3  T
   5   -452.4607162 -0.250314E-05  0.153E-03    0.94       3.9  T
   6   -452.4607167 -0.499124E-06  0.524E-04    0.94      11.4  T
   7   -452.4607168 -0.576078E-07  0.208E-04    0.94      28.7  T
     SCC iter.                  ...        0 min,  0.474 sec
     gradient                   ...        0 min,  0.287 sec
 * total energy  :  -446.2206813 Eh     change       -0.6775801E-03 Eh
   gradient norm :     0.0095754 Eh/α   predicted    -0.5885538E-03 ( -13.14%)
   displ. norm   :     0.7870732 α      lambda       -0.8366990E-03
   maximum displ.:     0.3444988 α      in ANC's #32, #47, #34, ...

........................................................................
.............................. CYCLE   30 ..............................
........................................................................
   1   -452.4511853 -0.452451E+03  0.887E-02    0.94       0.0  T
   2   -452.4512136 -0.282102E-04  0.435E-02    0.94       1.0  T
   3   -452.4512106  0.294600E-05  0.975E-03    0.94       1.0  T
   4   -452.4512159 -0.528478E-05  0.574E-03    0.94       1.0  T
   5   -452.4512196 -0.373658E-05  0.171E-03    0.94       3.5  T
   6   -452.4512202 -0.568453E-06  0.686E-04    0.94       8.7  T
   7   -452.4512203 -0.120794E-06  0.252E-04    0.94      23.7  T
     SCC iter.                  ...        0 min,  0.476 sec
     gradient                   ...        0 min,  0.287 sec
 * total energy  :  -446.2213121 Eh     change       -0.6307870E-03 Eh
   gradient norm :     0.0118452 Eh/α   predicted    -0.6775105E-03 (   7.41%)
   displ. norm   :     0.5706022 α      lambda       -0.8840989E-03
   maximum displ.:     0.2241828 α      in ANC's #32, #47, #24, ...

........................................................................
.............................. CYCLE   31 ..............................
........................................................................
   1   -452.4601331 -0.452460E+03  0.587E-02    0.93       0.0  T
   2   -452.4601451 -0.119754E-04  0.294E-02    0.94       1.0  T
   3   -452.4601423  0.277736E-05  0.696E-03    0.94       1.0  T
   4   -452.4601462 -0.389211E-05  0.411E-03    0.94       1.5  T
   5   -452.4601480 -0.181060E-05  0.118E-03    0.94       5.0  T
   6   -452.4601483 -0.238362E-06  0.462E-04    0.94      12.9  T
   7   -452.4601483 -0.412782E-07  0.198E-04    0.94      30.1  T
     SCC iter.                  ...        0 min,  0.471 sec
     gradient                   ...        0 min,  0.287 sec
 * total energy  :  -446.2219404 Eh     change       -0.6283060E-03 Eh
   gradient norm :     0.0085367 Eh/α   predicted    -0.5859770E-03 (  -6.74%)
   displ. norm   :     0.7078919 α      lambda       -0.7382757E-03
   maximum displ.:     0.2916720 α      in ANC's #32, #47, #33, ...

........................................................................
.............................. CYCLE   32 ..............................
........................................................................
   1   -452.4558813 -0.452456E+03  0.748E-02    0.93       0.0  T
   2   -452.4559022 -0.208615E-04  0.367E-02    0.94       1.0  T
   3   -452.4559004  0.177392E-05  0.825E-03    0.94       1.0  T
   4   -452.4559041 -0.369409E-05  0.490E-03    0.94       1.2  T
   5   -452.4559067 -0.258279E-05  0.135E-03    0.94       4.4  T
   6   -452.4559070 -0.258669E-06  0.585E-04    0.94      10.2  T
   7   -452.4559070 -0.775328E-07  0.191E-04    0.94      31.3  T
     SCC iter.                  ...        0 min,  0.470 sec
     gradient                   ...        0 min,  0.287 sec
 * total energy  :  -446.2224718 Eh     change       -0.5313655E-03 Eh
   gradient norm :     0.0103962 Eh/α   predicted    -0.5541189E-03 (   4.28%)
   displ. norm   :     0.5977030 α      lambda       -0.6990879E-03
   maximum displ.:     0.2293192 α      in ANC's #32, #47, #24, ...

........................................................................
.............................. CYCLE   33 ..............................
........................................................................
   1   -452.4582329 -0.452458E+03  0.620E-02    0.93       0.0  T
   2   -452.4582465 -0.135417E-04  0.305E-02    0.94       1.0  T
   3   -452.4582430  0.348059E-05  0.731E-03    0.94       1.0  T
   4   -452.4582477 -0.476657E-05  0.426E-03    0.94       1.4  T
   5   -452.4582497 -0.192408E-05  0.133E-03    0.94       4.5  T
   6   -452.4582500 -0.334899E-06  0.468E-04    0.94      12.8  T
   7   -452.4582501 -0.468250E-07  0.171E-04    0.94      35.0  T
     SCC iter.                  ...        0 min,  0.470 sec
     gradient                   ...        0 min,  0.287 sec
 * total energy  :  -446.2230357 Eh     change       -0.5639260E-03 Eh
   gradient norm :     0.0083356 Eh/α   predicted    -0.4744242E-03 ( -15.87%)
   displ. norm   :     0.5947870 α      lambda       -0.7308974E-03
   maximum displ.:     0.1728024 α      in ANC's #32, #24, #47, ...

........................................................................
.............................. CYCLE   34 ..............................
........................................................................
   1   -452.4682631 -0.452468E+03  0.576E-02    0.93       0.0  T
   2   -452.4682741 -0.109986E-04  0.295E-02    0.93       1.0  T
   3   -452.4682684  0.567537E-05  0.747E-03    0.94       1.0  T
   4   -452.4682748 -0.636882E-05  0.425E-03    0.94       1.4  T
   5   -452.4682770 -0.217118E-05  0.141E-03    0.94       4.2  T
   6   -452.4682773 -0.370528E-06  0.452E-04    0.94      13.2  T
   7   -452.4682774 -0.396601E-07  0.191E-04    0.94      31.3  T
     SCC iter.                  ...        0 min,  0.472 sec
     gradient                   ...        0 min,  0.287 sec
 * total energy  :  -446.2235628 Eh     change       -0.5270899E-03 Eh
   gradient norm :     0.0084022 Eh/α   predicted    -0.4947401E-03 (  -6.14%)
   displ. norm   :     0.7809824 α      lambda       -0.7227762E-03
   maximum displ.:     0.2716905 α      in ANC's #32, #24, #47, ...

........................................................................
.............................. CYCLE   35 ..............................
........................................................................
   1   -452.4578843 -0.452458E+03  0.793E-02    0.93       0.0  T
   2   -452.4579071 -0.227747E-04  0.392E-02    0.94       1.0  T
   3   -452.4579052  0.187240E-05  0.882E-03    0.94       1.0  T
   4   -452.4579093 -0.408605E-05  0.508E-03    0.94       1.2  T
   5   -452.4579118 -0.249906E-05  0.149E-03    0.94       4.0  T
   6   -452.4579122 -0.384578E-06  0.574E-04    0.94      10.4  T
   7   -452.4579123 -0.824328E-07  0.209E-04    0.94      28.6  T
     SCC iter.                  ...        0 min,  0.471 sec
     gradient                   ...        0 min,  0.287 sec
 * total energy  :  -446.2241045 Eh     change       -0.5417780E-03 Eh
   gradient norm :     0.0111149 Eh/α   predicted    -0.5818129E-03 (   7.39%)
   displ. norm   :     0.5722890 α      lambda       -0.7125706E-03
   maximum displ.:     0.1809153 α      in ANC's #24, #17, #22, ...

........................................................................
.............................. CYCLE   36 ..............................
........................................................................
   1   -452.4593292 -0.452459E+03  0.530E-02    0.94       0.0  T
   2   -452.4593401 -0.108633E-04  0.272E-02    0.94       1.0  T
   3   -452.4593382  0.186361E-05  0.651E-03    0.94       1.0  T
   4   -452.4593408 -0.261430E-05  0.365E-03    0.94       1.6  T
   5   -452.4593421 -0.128503E-05  0.129E-03    0.94       4.6  T
   6   -452.4593424 -0.310866E-06  0.514E-04    0.94      11.6  T
   7   -452.4593425 -0.683848E-07  0.186E-04    0.94      32.1  T
     SCC iter.                  ...        0 min,  0.470 sec
     gradient                   ...        0 min,  0.287 sec
 * total energy  :  -446.2245519 Eh     change       -0.4473506E-03 Eh
   gradient norm :     0.0114080 Eh/α   predicted    -0.4729758E-03 (   5.73%)
   displ. norm   :     0.6174138 α      lambda       -0.7982114E-03
   maximum displ.:     0.1887548 α      in ANC's #24, #47, #32, ...

........................................................................
.............................. CYCLE   37 ..............................
........................................................................
   1   -452.4542576 -0.452454E+03  0.576E-02    0.94       0.0  T
   2   -452.4542705 -0.129029E-04  0.292E-02    0.94       1.0  T
   3   -452.4542672  0.328118E-05  0.729E-03    0.94       1.0  T
   4   -452.4542712 -0.399998E-05  0.417E-03    0.94       1.4  T
   5   -452.4542730 -0.183748E-05  0.149E-03    0.94       4.0  T
   6   -452.4542735 -0.478245E-06  0.579E-04    0.94      10.3  T
   7   -452.4542736 -0.831819E-07  0.209E-04    0.94      28.6  T
     SCC iter.                  ...        0 min,  0.471 sec
     gradient                   ...        0 min,  0.286 sec
 * total energy  :  -446.2250949 Eh     change       -0.5430314E-03 Eh
   gradient norm :     0.0099032 Eh/α   predicted    -0.5512477E-03 (   1.51%)
   displ. norm   :     0.6190729 α      lambda       -0.5548506E-03
   maximum displ.:     0.1985678 α      in ANC's #24, #47, #17, ...

........................................................................
.............................. CYCLE   38 ..............................
........................................................................
   1   -452.4535904 -0.452454E+03  0.552E-02    0.94       0.0  T
   2   -452.4535999 -0.950505E-05  0.279E-02    0.94       1.0  T
   3   -452.4535979  0.199307E-05  0.646E-03    0.94       1.0  T
   4   -452.4536006 -0.265691E-05  0.371E-03    0.94       1.6  T
   5   -452.4536021 -0.147873E-05  0.113E-03    0.94       5.3  T
   6   -452.4536024 -0.306684E-06  0.410E-04    0.94      14.6  T
   7   -452.4536024 -0.438099E-07  0.153E-04    0.94      39.2  T
     SCC iter.                  ...        0 min,  0.470 sec
     gradient                   ...        0 min,  0.287 sec
 * total energy  :  -446.2255619 Eh     change       -0.4669525E-03 Eh
   gradient norm :     0.0090844 Eh/α   predicted    -0.3837542E-03 ( -17.82%)
   displ. norm   :     0.6335045 α      lambda       -0.7966852E-03
   maximum displ.:     0.2095374 α      in ANC's #24, #17, #22, ...

........................................................................
.............................. CYCLE   39 ..............................
........................................................................
   1   -452.4653056 -0.452465E+03  0.537E-02    0.94       0.0  T
   2   -452.4653154 -0.980163E-05  0.281E-02    0.94       1.0  T
   3   -452.4653106  0.477921E-05  0.713E-03    0.94       1.0  T
   4   -452.4653160 -0.541236E-05  0.390E-03    0.94       1.5  T
   5   -452.4653177 -0.164855E-05  0.152E-03    0.94       3.9  T
   6   -452.4653182 -0.549218E-06  0.488E-04    0.94      12.2  T
   7   -452.4653183 -0.506477E-07  0.205E-04    0.94      29.1  T
     SCC iter.                  ...        0 min,  0.471 sec
     gradient                   ...        0 min,  0.287 sec
 * total energy  :  -446.2260427 Eh     change       -0.4808239E-03 Eh
   gradient norm :     0.0096178 Eh/α   predicted    -0.5582197E-03 (  16.10%)
   displ. norm   :     0.7470357 α      lambda       -0.7651801E-03
   maximum displ.:     0.2386468 α      in ANC's #24, #17, #32, ...

........................................................................
.............................. CYCLE   40 ..............................
........................................................................
   1   -452.4571714 -0.452457E+03  0.700E-02    0.94       0.0  T
   2   -452.4571886 -0.171827E-04  0.348E-02    0.94       1.0  T
   3   -452.4571873  0.124408E-05  0.773E-03    0.94       1.0  T
   4   -452.4571890 -0.165963E-05  0.476E-03    0.94       1.3  T
   5   -452.4571921 -0.311242E-05  0.130E-03    0.94       4.6  T
   6   -452.4571924 -0.287978E-06  0.501E-04    0.94      11.9  T
   7   -452.4571924 -0.518563E-07  0.185E-04    0.94      32.4  T
     SCC iter.                  ...        0 min,  0.481 sec
     gradient                   ...        0 min,  0.288 sec
 * total energy  :  -446.2265263 Eh     change       -0.4835525E-03 Eh
   gradient norm :     0.0111058 Eh/α   predicted    -0.5961038E-03 (  23.28%)
   displ. norm   :     0.5893276 α      lambda       -0.6575945E-03
   maximum displ.:     0.1920073 α      in ANC's #24, #17, #22, ...

........................................................................
.............................. CYCLE   41 ..............................
........................................................................
   1   -452.4536664 -0.452454E+03  0.555E-02    0.94       0.0  T
   2   -452.4536802 -0.138184E-04  0.277E-02    0.94       1.0  T
   3   -452.4536796  0.627623E-06  0.648E-03    0.94       1.0  T
   4   -452.4536809 -0.128142E-05  0.370E-03    0.94       1.6  T
   5   -452.4536823 -0.147022E-05  0.148E-03    0.94       4.0  T
   6   -452.4536828 -0.429255E-06  0.429E-04    0.94      13.9  T
   7   -452.4536828 -0.326154E-07  0.189E-04    0.94      31.6  T
     SCC iter.                  ...        0 min,  0.469 sec
     gradient                   ...        0 min,  0.287 sec
 * total energy  :  -446.2268168 Eh     change       -0.2905543E-03 Eh
   gradient norm :     0.0142152 Eh/α   predicted    -0.4429927E-03 (  52.46%)
   displ. norm   :     0.4428252 α      lambda       -0.8059513E-03
   maximum displ.:     0.1391229 α      in ANC's #24, #17, #22, ...

........................................................................
.............................. CYCLE   42 ..............................
........................................................................
   1   -452.4668160 -0.452467E+03  0.391E-02    0.94       0.0  T
   2   -452.4668249 -0.898277E-05  0.211E-02    0.94       1.0  T
   3   -452.4668237  0.120672E-05  0.505E-03    0.94       1.2  T
   4   -452.4668254 -0.162357E-05  0.274E-03    0.94       2.2  T
   5   -452.4668262 -0.849823E-06  0.122E-03    0.94       4.9  T
   6   -452.4668265 -0.257181E-06  0.392E-04    0.94      15.2  T
   7   -452.4668265 -0.266409E-07  0.178E-04    0.94      33.6  T
     SCC iter.                  ...        0 min,  0.470 sec
     gradient                   ...        0 min,  0.287 sec
 * total energy  :  -446.2271642 Eh     change       -0.3473868E-03 Eh
   gradient norm :     0.0120882 Eh/α   predicted    -0.4819915E-03 (  38.75%)
   displ. norm   :     0.5257624 α      lambda       -0.8973586E-03
   maximum displ.:     0.1691993 α      in ANC's #24, #17, #22, ...
 * RMSD in coord.:     0.6834762 α      energy gain  -0.1225628E-01 Eh

generating ANC from model Hessian ...
Using Lindh-Hessian (1995)
 Shifting diagonal of input Hessian by   1.001428059835669E-002
 Lowest  eigenvalues of input Hessian
    0.010000    0.010013    0.000000    0.000000    0.000000    0.000000
    0.000000    0.000000    0.010020    0.010028    0.010031    0.010037
    0.010052    0.010062    0.010069    0.010073    0.010083    0.010086
 Highest eigenvalues
    2.093013    2.095914    2.108084    2.112141    2.112425    2.113028
 

........................................................................
.............................. CYCLE   43 ..............................
........................................................................
   1   -452.4598301 -0.452460E+03  0.507E-02    0.94       0.0  T
   2   -452.4598435 -0.133823E-04  0.261E-02    0.94       1.0  T
   3   -452.4598427  0.831854E-06  0.643E-03    0.94       1.0  T
   4   -452.4598448 -0.210619E-05  0.347E-03    0.94       1.7  T
   5   -452.4598458 -0.103839E-05  0.127E-03    0.94       4.7  T
   6   -452.4598461 -0.242278E-06  0.490E-04    0.94      12.2  T
   7   -452.4598461 -0.499257E-07  0.208E-04    0.94      28.8  T
     SCC iter.                  ...        0 min,  0.472 sec
     gradient                   ...        0 min,  0.287 sec
 * total energy  :  -446.2274503 Eh     change       -0.2861184E-03 Eh
   gradient norm :     0.0138298 Eh/α   predicted     0.0000000E+00 (-100.00%)
   displ. norm   :     0.0973943 α      lambda       -0.5112729E-03
   maximum displ.:     0.0240869 α      in ANC's #58, #31, #19, ...

........................................................................
.............................. CYCLE   44 ..............................
........................................................................
   1   -452.4646584 -0.452465E+03  0.175E-02    0.94       0.0  T
   2   -452.4646618 -0.339317E-05  0.924E-03    0.94       1.0  T
   3   -452.4646615  0.357385E-06  0.280E-03    0.94       2.1  T
   4   -452.4646619 -0.409245E-06  0.148E-03    0.94       4.0  T
   5   -452.4646622 -0.330144E-06  0.671E-04    0.94       8.9  T
   6   -452.4646622 -0.452892E-07  0.287E-04    0.94      20.8  T
     SCC iter.                  ...        0 min,  0.406 sec
     gradient                   ...        0 min,  0.287 sec
 * total energy  :  -446.2277884 Eh     change       -0.3381354E-03 Eh
   gradient norm :     0.0038130 Eh/α   predicted    -0.2580617E-03 ( -23.68%)
   displ. norm   :     0.1468644 α      lambda       -0.1982945E-03
   maximum displ.:     0.0399696 α      in ANC's #58, #31, #19, ...

........................................................................
.............................. CYCLE   45 ..............................
........................................................................
   1   -452.4670020 -0.452467E+03  0.189E-02    0.94       0.0  T
   2   -452.4670037 -0.164353E-05  0.945E-03    0.94       1.0  T
   3   -452.4670031  0.596750E-06  0.253E-03    0.94       2.4  T
   4   -452.4670038 -0.762314E-06  0.140E-03    0.95       4.3  T
   5   -452.4670040 -0.193408E-06  0.544E-04    0.94      11.0  T
   6   -452.4670041 -0.486524E-07  0.214E-04    0.94      27.9  T
     SCC iter.                  ...        0 min,  0.405 sec
     gradient                   ...        0 min,  0.286 sec
 * total energy  :  -446.2279409 Eh     change       -0.1524769E-03 Eh
   gradient norm :     0.0030428 Eh/α   predicted    -0.1012954E-03 ( -33.57%)
   displ. norm   :     0.3259347 α      lambda       -0.2916237E-03
   maximum displ.:     0.0885649 α      in ANC's #58, #31, #19, ...

........................................................................
.............................. CYCLE   46 ..............................
........................................................................
   1   -452.4681688 -0.452468E+03  0.389E-02    0.95       0.0  T
   2   -452.4681744 -0.558342E-05  0.193E-02    0.95       1.0  T
   3   -452.4681725  0.187698E-05  0.482E-03    0.95       1.2  T
   4   -452.4681750 -0.256774E-05  0.271E-03    0.95       2.2  T
   5   -452.4681757 -0.661349E-06  0.961E-04    0.95       6.2  T
   6   -452.4681759 -0.203119E-06  0.314E-04    0.95      19.0  T
     SCC iter.                  ...        0 min,  0.406 sec
     gradient                   ...        0 min,  0.287 sec
 * total energy  :  -446.2281826 Eh     change       -0.2416329E-03 Eh
   gradient norm :     0.0075245 Eh/α   predicted    -0.1613425E-03 ( -33.23%)
   displ. norm   :     0.5959449 α      lambda       -0.4730240E-03
   maximum displ.:     0.1657885 α      in ANC's #31, #58, #19, ...

........................................................................
.............................. CYCLE   47 ..............................
........................................................................
   1   -452.4659076 -0.452466E+03  0.681E-02    0.95       0.0  T
   2   -452.4659247 -0.171009E-04  0.338E-02    0.95       1.0  T
   3   -452.4659204  0.436347E-05  0.816E-03    0.95       1.0  T
   4   -452.4659267 -0.636286E-05  0.467E-03    0.95       1.3  T
   5   -452.4659288 -0.203562E-05  0.158E-03    0.95       3.8  T
   6   -452.4659293 -0.546022E-06  0.525E-04    0.95      11.4  T
   7   -452.4659294 -0.585987E-07  0.185E-04    0.95      32.3  T
     SCC iter.                  ...        0 min,  0.470 sec
     gradient                   ...        0 min,  0.286 sec
 * total energy  :  -446.2285874 Eh     change       -0.4048144E-03 Eh
   gradient norm :     0.0097367 Eh/α   predicted    -0.3205120E-03 ( -20.82%)
   displ. norm   :     0.6873003 α      lambda       -0.5347466E-03
   maximum displ.:     0.1974988 α      in ANC's #31, #19, #58, ...

........................................................................
.............................. CYCLE   48 ..............................
........................................................................
   1   -452.4611681 -0.452461E+03  0.743E-02    0.96       0.0  T
   2   -452.4611896 -0.214771E-04  0.369E-02    0.96       1.0  T
   3   -452.4611852  0.441036E-05  0.888E-03    0.96       1.0  T
   4   -452.4611921 -0.695002E-05  0.506E-03    0.96       1.2  T
   5   -452.4611946 -0.244928E-05  0.158E-03    0.96       3.8  T
   6   -452.4611951 -0.474583E-06  0.599E-04    0.96      10.0  T
   7   -452.4611951 -0.798699E-07  0.203E-04    0.96      29.5  T
     SCC iter.                  ...        0 min,  0.466 sec
     gradient                   ...        0 min,  0.286 sec
 * total energy  :  -446.2290041 Eh     change       -0.4167242E-03 Eh
   gradient norm :     0.0092489 Eh/α   predicted    -0.3936804E-03 (  -5.53%)
   displ. norm   :     0.4990870 α      lambda       -0.4338469E-03
   maximum displ.:     0.1501143 α      in ANC's #31, #19, #22, ...

........................................................................
.............................. CYCLE   49 ..............................
........................................................................
   1   -452.4614129 -0.452461E+03  0.491E-02    0.96       0.0  T
   2   -452.4614222 -0.936590E-05  0.245E-02    0.96       1.0  T
   3   -452.4614196  0.262209E-05  0.615E-03    0.96       1.0  T
   4   -452.4614235 -0.385646E-05  0.340E-03    0.96       1.8  T
   5   -452.4614246 -0.111218E-05  0.101E-03    0.96       5.9  T
   6   -452.4614248 -0.201633E-06  0.382E-04    0.96      15.7  T
   7   -452.4614248 -0.344805E-07  0.150E-04    0.96      39.9  T
     SCC iter.                  ...        0 min,  0.464 sec
     gradient                   ...        0 min,  0.287 sec
 * total energy  :  -446.2293396 Eh     change       -0.3354743E-03 Eh
   gradient norm :     0.0077696 Eh/α   predicted    -0.2709581E-03 ( -19.23%)
   displ. norm   :     0.4506011 α      lambda       -0.4353057E-03
   maximum displ.:     0.1377378 α      in ANC's #19, #31, #22, ...

........................................................................
.............................. CYCLE   50 ..............................
........................................................................
   1   -452.4659540 -0.452466E+03  0.410E-02    0.96       0.0  T
   2   -452.4659607 -0.669205E-05  0.205E-02    0.97       1.0  T
   3   -452.4659575  0.321708E-05  0.558E-03    0.96       1.1  T
   4   -452.4659616 -0.409475E-05  0.299E-03    0.96       2.0  T
   5   -452.4659625 -0.890201E-06  0.103E-03    0.96       5.8  T
   6   -452.4659627 -0.226624E-06  0.354E-04    0.96      16.9  T
   7   -452.4659627 -0.287062E-07  0.149E-04    0.96      40.0  T
     SCC iter.                  ...        0 min,  0.466 sec
     gradient                   ...        0 min,  0.286 sec
 * total energy  :  -446.2296786 Eh     change       -0.3390073E-03 Eh
   gradient norm :     0.0072403 Eh/α   predicted    -0.2618480E-03 ( -22.76%)
   displ. norm   :     0.6583113 α      lambda       -0.4645872E-03
   maximum displ.:     0.1994623 α      in ANC's #19, #31, #22, ...

........................................................................
.............................. CYCLE   51 ..............................
........................................................................
   1   -452.4646002 -0.452465E+03  0.618E-02    0.97       0.0  T
   2   -452.4646149 -0.147791E-04  0.305E-02    0.97       1.0  T
   3   -452.4646108  0.410254E-05  0.765E-03    0.97       1.0  T
   4   -452.4646165 -0.565776E-05  0.429E-03    0.97       1.4  T
   5   -452.4646184 -0.194117E-05  0.140E-03    0.97       4.3  T
   6   -452.4646189 -0.430344E-06  0.477E-04    0.97      12.5  T
   7   -452.4646189 -0.514436E-07  0.196E-04    0.97      30.5  T
     SCC iter.                  ...        0 min,  0.465 sec
     gradient                   ...        0 min,  0.287 sec
 * total energy  :  -446.2300740 Eh     change       -0.3954687E-03 Eh
   gradient norm :     0.0081725 Eh/α   predicted    -0.3329788E-03 ( -15.80%)
   displ. norm   :     0.6085372 α      lambda       -0.6302586E-03
   maximum displ.:     0.1874275 α      in ANC's #19, #22, #7, ...

........................................................................
.............................. CYCLE   52 ..............................
........................................................................
   1   -452.4726068 -0.452473E+03  0.532E-02    0.97       0.0  T
   2   -452.4726179 -0.110060E-04  0.267E-02    0.97       1.0  T
   3   -452.4726115  0.638634E-05  0.730E-03    0.97       1.0  T
   4   -452.4726189 -0.744032E-05  0.395E-03    0.97       1.5  T
   5   -452.4726207 -0.180707E-05  0.140E-03    0.97       4.3  T
   6   -452.4726211 -0.425964E-06  0.454E-04    0.97      13.2  T
   7   -452.4726212 -0.467687E-07  0.177E-04    0.97      33.7  T
     SCC iter.                  ...        0 min,  0.481 sec
     gradient                   ...        0 min,  0.287 sec
 * total energy  :  -446.2304830 Eh     change       -0.4089430E-03 Eh
   gradient norm :     0.0074384 Eh/α   predicted    -0.4318406E-03 (   5.60%)
   displ. norm   :     0.7390302 α      lambda       -0.5232582E-03
   maximum displ.:     0.2305652 α      in ANC's #19, #31, #22, ...

........................................................................
.............................. CYCLE   53 ..............................
........................................................................
   1   -452.4642600 -0.452464E+03  0.704E-02    0.97       0.0  T
   2   -452.4642799 -0.199282E-04  0.346E-02    0.97       1.0  T
   3   -452.4642785  0.145909E-05  0.785E-03    0.97       1.0  T
   4   -452.4642818 -0.332511E-05  0.459E-03    0.97       1.3  T
   5   -452.4642841 -0.224421E-05  0.148E-03    0.97       4.0  T
   6   -452.4642845 -0.453000E-06  0.510E-04    0.97      11.7  T
   7   -452.4642846 -0.603317E-07  0.201E-04    0.97      29.8  T
     SCC iter.                  ...        0 min,  0.475 sec
     gradient                   ...        0 min,  0.286 sec
 * total energy  :  -446.2308643 Eh     change       -0.3813431E-03 Eh
   gradient norm :     0.0088165 Eh/α   predicted    -0.4045325E-03 (   6.08%)
   displ. norm   :     0.4862483 α      lambda       -0.4175130E-03
   maximum displ.:     0.1567386 α      in ANC's #19, #22, #7, ...

........................................................................
.............................. CYCLE   54 ..............................
........................................................................
   1   -452.4632280 -0.452463E+03  0.428E-02    0.97       0.0  T
   2   -452.4632345 -0.646227E-05  0.212E-02    0.97       1.0  T
   3   -452.4632344  0.147471E-06  0.449E-03    0.97       1.3  T
   4   -452.4632346 -0.283949E-06  0.283E-03    0.97       2.1  T
   5   -452.4632358 -0.115332E-05  0.885E-04    0.97       6.8  T
   6   -452.4632360 -0.174718E-06  0.283E-04    0.97      21.1  T
   7   -452.4632360 -0.160842E-07  0.116E-04    0.97      51.7  T
     SCC iter.                  ...        0 min,  0.474 sec
     gradient                   ...        0 min,  0.286 sec
 * total energy  :  -446.2311995 Eh     change       -0.3351691E-03 Eh
   gradient norm :     0.0079798 Eh/α   predicted    -0.2581154E-03 ( -22.99%)
   displ. norm   :     0.5084720 α      lambda       -0.4993181E-03
   maximum displ.:     0.1618360 α      in ANC's #19, #7, #22, ...

........................................................................
.............................. CYCLE   55 ..............................
........................................................................
   1   -452.4675166 -0.452468E+03  0.422E-02    0.97       0.0  T
   2   -452.4675220 -0.536981E-05  0.216E-02    0.97       1.0  T
   3   -452.4675204  0.159670E-05  0.495E-03    0.97       1.2  T
   4   -452.4675220 -0.155039E-05  0.310E-03    0.97       1.9  T
   5   -452.4675233 -0.133257E-05  0.938E-04    0.97       6.4  T
   6   -452.4675235 -0.191366E-06  0.264E-04    0.97      22.6  T
   7   -452.4675235 -0.944215E-08  0.135E-04    0.97      44.2  T
     SCC iter.                  ...        0 min,  0.469 sec
     gradient                   ...        0 min,  0.286 sec
 * total energy  :  -446.2315647 Eh     change       -0.3652281E-03 Eh
   gradient norm :     0.0054299 Eh/α   predicted    -0.3142119E-03 ( -13.97%)
   displ. norm   :     0.7427277 α      lambda       -0.4102173E-03
   maximum displ.:     0.2453228 α      in ANC's #19, #7, #22, ...

........................................................................
.............................. CYCLE   56 ..............................
........................................................................
   1   -452.4644474 -0.452464E+03  0.626E-02    0.97       0.0  T
   2   -452.4644609 -0.134354E-04  0.309E-02    0.97       1.0  T
   3   -452.4644597  0.120477E-05  0.685E-03    0.97       1.0  T
   4   -452.4644618 -0.211934E-05  0.413E-03    0.97       1.4  T
   5   -452.4644638 -0.203235E-05  0.121E-03    0.97       4.9  T
   6   -452.4644641 -0.301843E-06  0.395E-04    0.97      15.1  T
   7   -452.4644641 -0.298435E-07  0.164E-04    0.97      36.5  T
     SCC iter.                  ...        0 min,  0.471 sec
     gradient                   ...        0 min,  0.286 sec
 * total energy  :  -446.2318971 Eh     change       -0.3324000E-03 Eh
   gradient norm :     0.0068425 Eh/α   predicted    -0.3182586E-03 (  -4.25%)
   displ. norm   :     0.6090615 α      lambda       -0.4518044E-03
   maximum displ.:     0.1988707 α      in ANC's #19, #7, #22, ...

........................................................................
.............................. CYCLE   57 ..............................
........................................................................
   1   -452.4704483 -0.452470E+03  0.477E-02    0.97       0.0  T
   2   -452.4704556 -0.732228E-05  0.241E-02    0.97       1.0  T
   3   -452.4704520  0.358357E-05  0.614E-03    0.97       1.0  T
   4   -452.4704562 -0.418182E-05  0.348E-03    0.97       1.7  T
   5   -452.4704575 -0.130701E-05  0.116E-03    0.97       5.2  T
   6   -452.4704578 -0.293112E-06  0.333E-04    0.97      17.9  T
   7   -452.4704578 -0.219399E-07  0.143E-04    0.97      41.7  T
     SCC iter.                  ...        0 min,  0.472 sec
     gradient                   ...        0 min,  0.286 sec
 * total energy  :  -446.2322347 Eh     change       -0.3375692E-03 Eh
   gradient norm :     0.0057790 Eh/α   predicted    -0.3097082E-03 (  -8.25%)
   displ. norm   :     0.7116117 α      lambda       -0.3746918E-03
   maximum displ.:     0.2424610 α      in ANC's #19, #7, #22, ...

........................................................................
.............................. CYCLE   58 ..............................
........................................................................
   1   -452.4693996 -0.452469E+03  0.567E-02    0.97       0.0  T
   2   -452.4694113 -0.116376E-04  0.280E-02    0.97       1.0  T
   3   -452.4694087  0.258956E-05  0.671E-03    0.97       1.0  T
   4   -452.4694124 -0.370552E-05  0.386E-03    0.97       1.5  T
   5   -452.4694140 -0.160285E-05  0.111E-03    0.97       5.4  T
   6   -452.4694142 -0.232986E-06  0.431E-04    0.97      13.9  T
   7   -452.4694143 -0.459842E-07  0.146E-04    0.97      40.9  T
     SCC iter.                  ...        0 min,  0.472 sec
     gradient                   ...        0 min,  0.287 sec
 * total energy  :  -446.2325106 Eh     change       -0.2758494E-03 Eh
   gradient norm :     0.0076324 Eh/α   predicted    -0.2822308E-03 (   2.31%)
   displ. norm   :     0.5921699 α      lambda       -0.3655505E-03
   maximum displ.:     0.1970531 α      in ANC's #7, #19, #6, ...

........................................................................
.............................. CYCLE   59 ..............................
........................................................................
   1   -452.4696843 -0.452470E+03  0.459E-02    0.98       0.0  T
   2   -452.4696916 -0.732495E-05  0.228E-02    0.98       1.0  T
   3   -452.4696887  0.292127E-05  0.587E-03    0.98       1.0  T
   4   -452.4696927 -0.407615E-05  0.311E-03    0.98       1.9  T
   5   -452.4696936 -0.817523E-06  0.937E-04    0.98       6.4  T
   6   -452.4696937 -0.176412E-06  0.342E-04    0.98      17.5  T
     SCC iter.                  ...        0 min,  0.405 sec
     gradient                   ...        0 min,  0.286 sec
 * total energy  :  -446.2327920 Eh     change       -0.2814853E-03 Eh
   gradient norm :     0.0063080 Eh/α   predicted    -0.2468692E-03 ( -12.30%)
   displ. norm   :     0.5988319 α      lambda       -0.3404865E-03
   maximum displ.:     0.2061608 α      in ANC's #7, #19, #6, ...

........................................................................
.............................. CYCLE   60 ..............................
........................................................................
   1   -452.4728491 -0.452473E+03  0.459E-02    0.98       0.0  T
   2   -452.4728570 -0.789685E-05  0.230E-02    0.98       1.0  T
   3   -452.4728547  0.228209E-05  0.569E-03    0.98       1.1  T
   4   -452.4728579 -0.319446E-05  0.309E-03    0.98       1.9  T
   5   -452.4728588 -0.900380E-06  0.963E-04    0.98       6.2  T
   6   -452.4728590 -0.177118E-06  0.375E-04    0.98      15.9  T
     SCC iter.                  ...        0 min,  0.401 sec
     gradient                   ...        0 min,  0.286 sec
 * total energy  :  -446.2330251 Eh     change       -0.2331083E-03 Eh
   gradient norm :     0.0065984 Eh/α   predicted    -0.2312933E-03 (  -0.78%)
   displ. norm   :     0.6461192 α      lambda       -0.3303502E-03
   maximum displ.:     0.2232001 α      in ANC's #7, #19, #6, ...

........................................................................
.............................. CYCLE   61 ..............................
........................................................................
[...]
    23   6 C       24   6 C                                       1.5152561
    21   6 C       25   6 C                                       1.3914255
    18   6 C       26   6 C                                       1.3916597
    25   6 C       26   6 C                                       1.3795775
     3   6 C       28   6 C                                       1.4133834
    17   6 C       28   6 C                                       1.3886074
     1   6 C       29  16 S                                       1.7303988
    28   6 C       29  16 S                                       1.7451304
    16   6 C       30   6 C                                       1.4274165
    30   6 C       31   6 C                                       1.3522610
    15   6 C       32  16 S                                       1.7419811
    31   6 C       32  16 S                                       1.7462215
    34   6 C       35   6 C                                       1.5251860
    35   6 C       36   6 C                                       1.5305131
    36   6 C       37   6 C                                       1.5408752
    33   6 C       38   6 C                                       1.5386740
    37   6 C       38   6 C                                       1.5352983
    36   6 C       39   7 N                                       1.4513169
    39   7 N       40   6 C                                       1.4549154
    40   6 C       41   6 C                                       1.5268003
    39   7 N       42   6 C                                       1.4478475
    42   6 C       43   6 C                                       1.5351725
    43   6 C       45   6 C                                       1.5214524
    46   6 C       47   6 C                                       1.5350847
    48   6 C       49   6 C                                       1.5335245
    50   6 C       51   6 C                                       1.5316082
    51   6 C       52   6 C                                       1.5305290
    52   6 C       53   6 C                                       1.5390359
    49   6 C       54   6 C                                       1.5313994
    53   6 C       54   6 C                                       1.5356563
    52   6 C       55   7 N                                       1.4505013
    55   7 N       56   6 C                                       1.4575904
    56   6 C       57   6 C                                       1.5258754
    55   7 N       58   6 C                                       1.4462977
    58   6 C       59   6 C                                       1.5277754
    59   6 C       61   6 C                                       1.5280414
    61   6 C       62   6 C                                       1.5394540
    62   6 C       63   6 C                                       1.5324423
    64   6 C       65   6 C                                       1.4874983
    65   6 C       66   6 C                                       1.3546056
    66   6 C       67   6 C                                       1.4286673
    67   6 C       68   6 C                                       1.4061886
    69   6 C       70   6 C                                       1.3953213
    70   6 C       71   6 C                                       1.3776724
    71   6 C       72   6 C                                       1.3938216
    74   6 C       75   6 C                                       1.5153528
    72   6 C       76   6 C                                       1.3913635
    69   6 C       78   6 C                                       1.3907062
    76   6 C       78   6 C                                       1.3800863
    68   6 C       79   6 C                                       1.3903730
    79   6 C       80   6 C                                       1.4162272
    80   6 C       81   6 C                                       1.4012835
    82   6 C       83   6 C                                       1.3960437
    83   6 C       84   6 C                                       1.3765267
    84   6 C       85   6 C                                       1.3951158
    87   6 C       88   6 C                                       1.5149355
    85   6 C       89   6 C                                       1.3912280
    82   6 C       90   6 C                                       1.3886192
    89   6 C       90   6 C                                       1.3818214
    67   6 C       92   6 C                                       1.4163938
    81   6 C       92   6 C                                       1.3847121
    65   6 C       93  16 S                                       1.7439700
    92   6 C       93  16 S                                       1.7353621
    80   6 C       94   6 C                                       1.4132300
    94   6 C       95   6 C                                       1.3638797
    79   6 C       96  16 S                                       1.7495980
    95   6 C       96  16 S                                       1.7527693 (max)
    95   6 C       97   6 C                                       1.4285267
    97   6 C       98   6 C                                       1.3655842
    98   6 C       99   6 C                                       1.4136227
    99   6 C      100   6 C                                       1.4057753
   101   6 C      102   6 C                                       1.3945428
   102   6 C      103   6 C                                       1.3775254
   103   6 C      104   6 C                                       1.3954380
   106   6 C      107   6 C                                       1.5142060
   104   6 C      108   6 C                                       1.3914520
   101   6 C      110   6 C                                       1.3924393
   108   6 C      110   6 C                                       1.3798035
   100   6 C      111   6 C                                       1.3862197
   111   6 C      112   6 C                                       1.4182909
   112   6 C      113   6 C                                       1.4053664
   114   6 C      115   6 C                                       1.3932161
   115   6 C      116   6 C                                       1.3789248
   116   6 C      117   6 C                                       1.3926264
   119   6 C      120   6 C                                       1.5153256
   117   6 C      121   6 C                                       1.3912596
   114   6 C      122   6 C                                       1.3919926
   121   6 C      122   6 C                                       1.3795605
    99   6 C      124   6 C                                       1.4175818
   113   6 C      124   6 C                                       1.3868987
    97   6 C      125  16 S                                       1.7501803
   124   6 C      125  16 S                                       1.7471009
   112   6 C      126   6 C                                       1.4193808
   126   6 C      127   6 C                                       1.3625357
   111   6 C      128  16 S                                       1.7392755
   127   6 C      128  16 S                                       1.7499677
   127   6 C      129   6 C                                       1.4240398
   129   6 C      130   6 C                                       1.3614325
   130   6 C      131   6 C                                       1.4163131
   131   6 C      132   6 C                                       1.4027787
   133   6 C      134   6 C                                       1.3941843
   134   6 C      135   6 C                                       1.3794939
   135   6 C      136   6 C                                       1.3895094
   138   6 C      139   6 C                                       1.5162384
   136   6 C      140   6 C                                       1.3906973
   133   6 C      142   6 C                                       1.3904840
   140   6 C      142   6 C                                       1.3809395
   132   6 C      143   6 C                                       1.3864573
   143   6 C      144   6 C                                       1.4174158
   144   6 C      145   6 C                                       1.4016644
   146   6 C      147   6 C                                       1.3935682
   147   6 C      148   6 C                                       1.3788237
   148   6 C      149   6 C                                       1.3933111
   151   6 C      152   6 C                                       1.5151844
   149   6 C      153   6 C                                       1.3916081
   146   6 C      154   6 C                                       1.3907713
   153   6 C      154   6 C                                       1.3795588
   131   6 C      156   6 C                                       1.4148232
   145   6 C      156   6 C                                       1.3868615
   129   6 C      157  16 S                                       1.7514158
   156   6 C      157  16 S                                       1.7456305
   144   6 C      158   6 C                                       1.4266085
   158   6 C      159   6 C                                       1.3482379
   143   6 C      160  16 S                                       1.7442109
   159   6 C      160  16 S                                       1.7309812
     1   6 C      161   1 H                                       1.0723017 (min)
     2   6 C      162   1 H                                       1.0743473
     6   6 C      163   1 H                                       1.0785844
     7   6 C      164   1 H                                       1.0776858
    10   6 C      165   1 H                                       1.0892791
    10   6 C      166   1 H                                       1.0890019
    11   6 C      167   1 H                                       1.0883926
    11   6 C      168   1 H                                       1.0879975
    11   6 C      169   1 H                                       1.0881948
    14   6 C      170   1 H                                       1.0786292
    19   6 C      171   1 H                                       1.0794277
    20   6 C      172   1 H                                       1.0789819
    23   6 C      173   1 H                                       1.0877412
    23   6 C      174   1 H                                       1.0900644
    24   6 C      175   1 H                                       1.0880979
    24   6 C      176   1 H                                       1.0886527
    24   6 C      177   1 H                                       1.0881677
    26   6 C      178   1 H                                       1.0790188
    30   6 C      179   1 H                                       1.0752405
    33   6 C      180   1 H                                       1.0947374
    34   6 C      181   1 H                                       1.0905437
    34   6 C      182   1 H                                       1.0916035
    35   6 C      183   1 H                                       1.0939975
    36   6 C      184   1 H                                       1.0951622
    37   6 C      185   1 H                                       1.0905286
    37   6 C      186   1 H                                       1.0902428
    38   6 C      187   1 H                                       1.0914881
    38   6 C      188   1 H                                       1.0911571
    40   6 C      189   1 H                                       1.0913428
    40   6 C      190   1 H                                       1.1018445
    41   6 C      191   1 H                                       1.0867329
    41   6 C      192   1 H                                       1.0871277
    41   6 C      193   1 H                                       1.0869789
    42   6 C      194   1 H                                       1.0912774
    43   6 C      195   1 H                                       1.0952342
    45   6 C      196   1 H                                       1.0910410
    45   6 C      197   1 H                                       1.0913243
    46   6 C      198   1 H                                       1.0912056
    46   6 C      199   1 H                                       1.0910932
    47   6 C      200   1 H                                       1.0908038
    47   6 C      201   1 H                                       1.0919079
    48   6 C      202   1 H                                       1.0970199
    49   6 C      203   1 H                                       1.0947872
    50   6 C      204   1 H                                       1.0912805
    50   6 C      205   1 H                                       1.0904822
    51   6 C      206   1 H                                       1.0943024
    52   6 C      207   1 H                                       1.0922235
    53   6 C      208   1 H                                       1.0907022
    53   6 C      209   1 H                                       1.0902902
    54   6 C      210   1 H                                       1.0915287
    54   6 C      211   1 H                                       1.0904661
    56   6 C      212   1 H                                       1.1039725
    56   6 C      213   1 H                                       1.0920212
    57   6 C      214   1 H                                       1.0865922
    57   6 C      215   1 H                                       1.0875186
    57   6 C      216   1 H                                       1.0845870
    58   6 C      217   1 H                                       1.0929193
    59   6 C      218   1 H                                       1.0951778
    61   6 C      219   1 H                                       1.0909075
    61   6 C      220   1 H                                       1.0916447
    62   6 C      221   1 H                                       1.0912669
    62   6 C      222   1 H                                       1.0910884
    63   6 C      223   1 H                                       1.0915919
    63   6 C      224   1 H                                       1.0913190
    64   6 C      225   1 H                                       1.0956062
    66   6 C      226   1 H                                       1.0758541
    70   6 C      227   1 H                                       1.0794684
    71   6 C      228   1 H                                       1.0789243
    74   6 C      229   1 H                                       1.0877194
    74   6 C      230   1 H                                       1.0900773
    75   6 C      231   1 H                                       1.0881015
    75   6 C      232   1 H                                       1.0881114
    75   6 C      233   1 H                                       1.0886045
    78   6 C      234   1 H                                       1.0785198
    83   6 C      235   1 H                                       1.0793374
    84   6 C      236   1 H                                       1.0791200
    87   6 C      237   1 H                                       1.0872957
    87   6 C      238   1 H                                       1.0904480
    88   6 C      239   1 H                                       1.0885623
    88   6 C      240   1 H                                       1.0883917
    88   6 C      241   1 H                                       1.0878979
    90   6 C      242   1 H                                       1.0786920
    94   6 C      243   1 H                                       1.0737359
    98   6 C      244   1 H                                       1.0735380
   102   6 C      245   1 H                                       1.0786332
   103   6 C      246   1 H                                       1.0789586
   106   6 C      247   1 H                                       1.0891043
   106   6 C      248   1 H                                       1.0879348
   107   6 C      249   1 H                                       1.0871062
   107   6 C      250   1 H                                       1.0873221
   107   6 C      251   1 H                                       1.0873998
   110   6 C      252   1 H                                       1.0792228
   115   6 C      253   1 H                                       1.0789799
   116   6 C      254   1 H                                       1.0787040
   119   6 C      255   1 H                                       1.0877645
   119   6 C      256   1 H                                       1.0898292
   120   6 C      257   1 H                                       1.0879496
   120   6 C      258   1 H                                       1.0881732
   120   6 C      259   1 H                                       1.0886836
   122   6 C      260   1 H                                       1.0791889
   126   6 C      261   1 H                                       1.0751642
   130   6 C      262   1 H                                       1.0745338
   134   6 C      263   1 H                                       1.0791565
   135   6 C      264   1 H                                       1.0790936
   138   6 C      265   1 H                                       1.0892456
   138   6 C      266   1 H                                       1.0878945
   139   6 C      267   1 H                                       1.0891853
   139   6 C      268   1 H                                       1.0880353
   139   6 C      269   1 H                                       1.0883135
   142   6 C      270   1 H                                       1.0788207
   147   6 C      271   1 H                                       1.0794569
   148   6 C      272   1 H                                       1.0789030
   151   6 C      273   1 H                                       1.0900312
   151   6 C      274   1 H                                       1.0878060
   152   6 C      275   1 H                                       1.0885880
   152   6 C      276   1 H                                       1.0880887
   152   6 C      277   1 H                                       1.0880125
   154   6 C      278   1 H                                       1.0788099
   158   6 C      279   1 H                                       1.0749262
   159   6 C      280   1 H                                       1.0725416

 * 4 distinct bonds (by element types)

   Z      Z             #   av. dist./Å        max./Å        min./Å
   1 H    6 C         120     1.0866703     1.1039725     1.0723017
   6 C    6 C         119     1.4253198     1.5408752     1.3470135
   6 C    7 N           6     1.4514115     1.4575904     1.4462977
   6 C   16 S          16     1.7440121     1.7527693     1.7303988


optimized geometry written to: xtbopt.mol


           -------------------------------------------------
          | TOTAL ENERGY             -446.273712102102 Eh   |
          | GRADIENT NORM               0.000762247101 Eh/α |
          | HOMO-LUMO GAP               0.949033789605 eV   |
           -------------------------------------------------

------------------------------------------------------------------------
 * finished run on 2022/03/03 at 15:35:37.869     
------------------------------------------------------------------------
 total:
 * wall-time:     0 d,  0 h,  4 min, 38.706 sec
 *  cpu-time:     0 d,  0 h, 37 min,  1.358 sec
 * ratio c/w:     7.970 speedup
 SCF:
 * wall-time:     0 d,  0 h,  0 min,  1.344 sec
 *  cpu-time:     0 d,  0 h,  0 min, 10.722 sec
 * ratio c/w:     7.981 speedup
 ANC optimizer:
 * wall-time:     0 d,  0 h,  4 min, 36.931 sec
 *  cpu-time:     0 d,  0 h, 36 min, 48.638 sec
 * ratio c/w:     7.975 speedup

