      -----------------------------------------------------------      
     |                   =====================                   |     
     |                           x T B                           |     
     |                   =====================                   |     
     |                         S. Grimme                         |     
     |          Mulliken Center for Theoretical Chemistry        |     
     |                    University of Bonn                     |     
      -----------------------------------------------------------      

   * xtb version 6.4.1 (unknown) compiled by 'oda6@login1.crc.pitt.edu' on 2021-06-25

   xtb is free software: you can redistribute it and/or modify it under
   the terms of the GNU Lesser General Public License as published by
   the Free Software Foundation, either version 3 of the License, or
   (at your option) any later version.
   
   xtb is distributed in the hope that it will be useful,
   but WITHOUT ANY WARRANTY; without even the implied warranty of
   MERCHANTABILITY or FITNESS FOR A PARTICULAR PURPOSE.  See the
   GNU Lesser General Public License for more details.
   
   Cite this work as:
   * C. Bannwarth, E. Caldeweyher, S. Ehlert, A. Hansen, P. Pracht,
     J. Seibert, S. Spicher, S. Grimme, WIREs Comput. Mol. Sci., 2020, 11,
     e01493. DOI: 10.1002/wcms.1493
   
   for GFN2-xTB:
   * C. Bannwarth, S. Ehlert and S. Grimme., J. Chem. Theory Comput., 2019,
     15, 1652-1671. DOI: 10.1021/acs.jctc.8b01176
   for GFN1-xTB:
   * S. Grimme, C. Bannwarth, P. Shushkov, J. Chem. Theory Comput., 2017,
     13, 1989-2009. DOI: 10.1021/acs.jctc.7b00118
   for GFN0-xTB:
   * P. Pracht, E. Caldeweyher, S. Ehlert, S. Grimme, ChemRxiv, 2019, preprint.
     DOI: 10.26434/chemrxiv.8326202.v1
   for GFN-FF:
   * S. Spicher and S. Grimme, Angew. Chem. Int. Ed., 2020, 59, 15665-15673.
     DOI: 10.1002/anie.202004239
   
   for DFT-D4:
   * E. Caldeweyher, C. Bannwarth and S. Grimme, J. Chem. Phys., 2017,
     147, 034112. DOI: 10.1063/1.4993215
   * E. Caldeweyher, S. Ehlert, A. Hansen, H. Neugebauer, S. Spicher,
     C. Bannwarth and S. Grimme, J. Chem. Phys., 2019, 150, 154122.
     DOI: 10.1063/1.5090222
   * E. Caldeweyher, J.-M. Mewes, S. Ehlert and S. Grimme, Phys. Chem. Chem. Phys.
     2020, 22, 8499-8512. DOI: 10.1039/D0CP00502A
   
   for sTDA-xTB:
   * S. Grimme and C. Bannwarth, J. Chem. Phys., 2016, 145, 054103.
     DOI: 10.1063/1.4959605
   
   in the mass-spec context:
   * V. Asgeirsson, C. Bauer and S. Grimme, Chem. Sci., 2017, 8, 4879.
     DOI: 10.1039/c7sc00601b
   * J. Koopman and S. Grimme, ACS Omega 2019, 4, 12, 15120-15133.
     DOI: 10.1021/acsomega.9b02011
   
   for metadynamics refer to:
   * S. Grimme, J. Chem. Theory Comput., 2019, 155, 2847-2862
     DOI: 10.1021/acs.jctc.9b00143
   
   for SPH calculations refer to:
   * S. Spicher and S. Grimme, J. Chem. Theory Comput., 2021, 17, 1701-1714
     DOI: 10.1021/acs.jctc.0c01306
   
   with help from (in alphabetical order)
   P. Atkinson, C. Bannwarth, F. Bohle, G. Brandenburg, E. Caldeweyher
   M. Checinski, S. Dohm, S. Ehlert, S. Ehrlich, I. Gerasimov, J. Koopman
   C. Lavigne, S. Lehtola, F. März, M. Müller, F. Musil, H. Neugebauer
   J. Pisarek, C. Plett, P. Pracht, J. Seibert, P. Shushkov, S. Spicher
   M. Stahn, M. Steiner, T. Strunk, J. Stückrath, T. Rose, and J. Unsleber
   
 * started run on 2022/03/01 at 14:38:41.340     

           -------------------------------------------------
          |                Calculation Setup                |
           -------------------------------------------------

          program call               : /ihome/ghutchison/oda6/xtb/xtb-641/bin/xtb ../../FF_optimized/577_61_101111.mol -opt
          hostname                   : smp-n90
          coordinate file            : ../../FF_optimized/577_61_101111.mol
          omp threads                :                     8
          number of atoms            :                   225
          number of electrons        :                   804
          charge                     :                     0
          spin                       :                   0.0
          first test random number   :      0.34821894280548

   ID    Z sym.   atoms
    1    6 C      1-5, 7-10, 12, 14-17, 19-23, 26, 28, 29, 31-38, 40-44,
                  46-49, 51, 53-56, 58-62, 65, 67, 68, 70-74, 76-79, 81,
                  83-86, 88-92, 95, 97, 98, 100-104, 106-109, 111, 113-116,
                  118-122, 125, 127, 128, 130-134, 136-139, 141, 143-146,
                  148-152, 155, 157, 158
    2   16 S      6, 18, 27, 30, 39, 45, 57, 66, 69, 75, 87, 96, 99, 105,
                  117, 126, 129, 135, 147, 156, 159
    3   17 Cl     11, 13, 24, 25, 50, 52, 63, 64, 80, 82, 93, 94, 110, 112,
                  123, 124, 140, 142, 153, 154
    4    1 H      160-225
########################################################################
[WARNING] Please study the warnings concerning your input carefully
-1- prog_main_parseArguments: the use of '-opt' is discouraged, please use '--opt' next time
########################################################################

           -------------------------------------------------
          |                 G F N 2 - x T B                 |
           -------------------------------------------------

        Reference                      10.1021/acs.jctc.8b01176
      * Hamiltonian:
        H0-scaling (s, p, d)           1.850000    2.230000    2.230000
        zeta-weighting                 0.500000
      * Dispersion:
        s8                             2.700000
        a1                             0.520000
        a2                             5.000000
        s9                             5.000000
      * Repulsion:
        kExp                           1.500000    1.000000
        rExp                           1.000000
      * Coulomb:
        alpha                          2.000000
        third order                    shell-resolved
        anisotropic                    true
        a3                             3.000000
        a5                             4.000000
        cn-shift                       1.200000
        cn-exp                         4.000000
        max-rad                        5.000000


          ...................................................
          :                      SETUP                      :
          :.................................................:
          :  # basis functions                 948          :
          :  # atomic orbitals                 907          :
          :  # shells                          425          :
          :  # electrons                       804          :
          :  max. iterations                   250          :
          :  Hamiltonian                  GFN2-xTB          :
          :  restarted?                      false          :
          :  GBSA solvation                  false          :
          :  PC potential                    false          :
          :  electronic temp.          300.0000000     K    :
          :  accuracy                    1.0000000          :
          :  -> integral cutoff          0.2500000E+02      :
          :  -> integral neglect         0.1000000E-07      :
          :  -> SCF convergence          0.1000000E-05 Eh   :
          :  -> wf. convergence          0.1000000E-03 e    :
          :  Broyden damping             0.4000000          :
          ...................................................

 iter      E             dE          RMSdq      gap      omega  full diag
   1   -450.5923366 -0.450592E+03  0.419E+00    1.39       0.0  T
   2   -450.8314842 -0.239148E+00  0.239E+00    1.35       1.0  T
   3   -450.5728577  0.258627E+00  0.131E+00    1.38       1.0  T
   4   -450.8588732 -0.286015E+00  0.568E-01    1.35       1.0  T
   5   -450.9068874 -0.480143E-01  0.197E-01    1.36       1.0  T
   6   -450.9083023 -0.141487E-02  0.126E-01    1.36       1.0  T
   7   -450.9096147 -0.131245E-02  0.890E-02    1.36       1.0  T
   8   -450.9103474 -0.732653E-03  0.652E-02    1.36       1.0  T
   9   -450.9106084 -0.260973E-03  0.479E-02    1.36       1.0  T
  10   -450.9108163 -0.207981E-03  0.263E-02    1.36       1.0  T
  11   -450.9108811 -0.647777E-04  0.146E-02    1.36       1.0  T
  12   -450.9108993 -0.181812E-04  0.850E-03    1.36       1.0  T
  13   -450.9109065 -0.724009E-05  0.448E-03    1.36       1.5  T
  14   -450.9109088 -0.227198E-05  0.240E-03    1.36       2.8  T
  15   -450.9109093 -0.461692E-06  0.175E-03    1.36       3.8  T
  16   -450.9109094 -0.170833E-06  0.125E-03    1.36       5.3  T
  17   -450.9109096 -0.139871E-06  0.805E-04    1.36       8.3  T
  18   -450.9109096 -0.583538E-07  0.511E-04    1.36      13.0  T

   *** convergence criteria satisfied after 18 iterations ***

         #    Occupation            Energy/Eh            Energy/eV
      -------------------------------------------------------------
         1        2.0000           -1.0656809             -28.9987
       ...           ...                  ...                  ...
       396        2.0000           -0.3909488             -10.6383
       397        2.0000           -0.3782442             -10.2925
       398        2.0000           -0.3732715             -10.1572
       399        2.0000           -0.3726093             -10.1392
       400        2.0000           -0.3706706             -10.0865
       401        2.0000           -0.3668539              -9.9826
       402        2.0000           -0.3626355              -9.8678 (HOMO)
       403                         -0.3126373              -8.5073 (LUMO)
       404                         -0.3038163              -8.2673
       405                         -0.2966699              -8.0728
       406                         -0.2920886              -7.9481
       407                         -0.2884147              -7.8482
       ...                                ...                  ...
       907                          0.7917572              21.5448
      -------------------------------------------------------------
                  HL-Gap            0.0499981 Eh            1.3605 eV
             Fermi-level           -0.3376292 Eh           -9.1874 eV

 SCC (total)                   0 d,  0 h,  0 min,  1.623 sec
 SCC setup                      ...        0 min,  0.004 sec (  0.252%)
 Dispersion                     ...        0 min,  0.011 sec (  0.691%)
 classical contributions        ...        0 min,  0.000 sec (  0.028%)
 integral evaluation            ...        0 min,  0.069 sec (  4.255%)
 iterations                     ...        0 min,  1.328 sec ( 81.853%)
 molecular gradient             ...        0 min,  0.203 sec ( 12.486%)
 printout                       ...        0 min,  0.007 sec (  0.428%)

         :::::::::::::::::::::::::::::::::::::::::::::::::::::
         ::                     SUMMARY                     ::
         :::::::::::::::::::::::::::::::::::::::::::::::::::::
         :: total energy            -445.666989208876 Eh    ::
         :: gradient norm              0.414065921324 Eh/a0 ::
         :: HOMO-LUMO gap              1.360518442885 eV    ::
         ::.................................................::
         :: SCC energy              -450.910909644828 Eh    ::
         :: -> isotropic ES            0.093883992719 Eh    ::
         :: -> anisotropic ES         -0.023272302495 Eh    ::
         :: -> anisotropic XC          0.120327639031 Eh    ::
         :: -> dispersion             -0.446616318292 Eh    ::
         :: repulsion energy           5.232823678214 Eh    ::
         :: add. restraining           0.000000000000 Eh    ::
         :: total charge               0.000000000000 e     ::
         :::::::::::::::::::::::::::::::::::::::::::::::::::::

      ----------------------------------------------------------- 
     |                   =====================                   |
     |                        A N C O P T                        |
     |                   =====================                   |
     |               Approximate Normal Coordinate               |
     |                Rational Function Optimizer                |
      ----------------------------------------------------------- 

          ...................................................
          :                      SETUP                      :
          :.................................................:
          :   optimization level            normal          :
          :   max. optcycles                   675          :
          :   ANC micro-cycles                  20          :
          :   degrees of freedom               669          :
          :.................................................:
          :   RF solver                   davidson          :
          :   write xtbopt.log                true          :
          :   linear?                        false          :
          :   energy convergence         0.5000000E-05 Eh   :
          :   grad. convergence          0.1000000E-02 Eh/α :
          :   maximium RF displ.         1.0000000          :
          :   Hlow (freq-cutoff)         0.1000000E-01      :
          :   Hmax (freq-cutoff)         5.0000000          :
          :   S6 in model hess.         20.0000000          :
          ...................................................

generating ANC from model Hessian ...
Using Lindh-Hessian (1995)
 Shifting diagonal of input Hessian by   1.000469383663922E-002
 Lowest  eigenvalues of input Hessian
    0.010000    0.000000    0.000000    0.000000    0.000000    0.000000
    0.000000    0.010009    0.010016    0.010030    0.010038    0.010047
    0.010055    0.010071    0.010073    0.010084    0.010097    0.010108
 Highest eigenvalues
    2.062045    2.089548    2.097236    2.102227    2.103273    2.106600
 

........................................................................
.............................. CYCLE    1 ..............................
........................................................................
   1   -450.9109097 -0.450911E+03  0.326E-04    1.36       0.0  T
   2   -450.9109097 -0.392788E-09  0.291E-04    1.36      22.9  T
   3   -450.9109097 -0.861297E-08  0.220E-04    1.36      30.2  T
     SCC iter.                  ...        0 min,  0.227 sec
     gradient                   ...        0 min,  0.199 sec
 * total energy  :  -445.6669892 Eh     change       -0.3067498E-07 Eh
   gradient norm :     0.4140671 Eh/α   predicted     0.0000000E+00 (-100.00%)
   displ. norm   :     0.4200807 α      lambda       -0.1381613E+00
   maximum displ.:     0.1406249 α      in ANC's #566, #488, #461, ...

........................................................................
.............................. CYCLE    2 ..............................
........................................................................
   1   -451.0551067 -0.451055E+03  0.279E-01    1.34       0.0  T
   2   -451.0567386 -0.163191E-02  0.165E-01    1.35       1.0  T
   3   -451.0565909  0.147665E-03  0.902E-02    1.35       1.0  T
   4   -451.0575782 -0.987282E-03  0.425E-02    1.35       1.0  T
   5   -451.0577107 -0.132477E-03  0.222E-02    1.35       1.0  T
   6   -451.0577532 -0.425565E-04  0.143E-02    1.35       1.0  T
   7   -451.0577738 -0.205306E-04  0.968E-03    1.35       1.0  T
   8   -451.0577807 -0.697130E-05  0.732E-03    1.35       1.0  T
   9   -451.0577848 -0.410630E-05  0.444E-03    1.35       1.5  T
  10   -451.0577874 -0.252383E-05  0.210E-03    1.35       3.2  T
  11   -451.0577877 -0.345726E-06  0.117E-03    1.35       5.7  T
  12   -451.0577878 -0.134303E-06  0.725E-04    1.35       9.2  T
  13   -451.0577879 -0.333102E-07  0.447E-04    1.35      14.9  T
     SCC iter.                  ...        0 min,  0.943 sec
     gradient                   ...        0 min,  0.200 sec
 * total energy  :  -445.7736235 Eh     change       -0.1066342E+00 Eh
   gradient norm :     0.2340983 Eh/α   predicted    -0.8127984E-01 ( -23.78%)
   displ. norm   :     0.4246018 α      lambda       -0.8148221E-01
   maximum displ.:     0.1557528 α      in ANC's #566, #488, #240, ...

........................................................................
.............................. CYCLE    3 ..............................
........................................................................
   1   -451.1700530 -0.451170E+03  0.289E-01    1.33       0.0  T
   2   -451.1724613 -0.240822E-02  0.170E-01    1.34       1.0  T
   3   -451.1727538 -0.292569E-03  0.912E-02    1.34       1.0  T
   4   -451.1735538 -0.799954E-03  0.495E-02    1.34       1.0  T
   5   -451.1737428 -0.189011E-03  0.237E-02    1.34       1.0  T
   6   -451.1737618 -0.190463E-04  0.179E-02    1.34       1.0  T
   7   -451.1737975 -0.356401E-04  0.117E-02    1.34       1.0  T
   8   -451.1738049 -0.742528E-05  0.911E-03    1.34       1.0  T
   9   -451.1738136 -0.865381E-05  0.482E-03    1.34       1.4  T
  10   -451.1738163 -0.277491E-05  0.240E-03    1.34       2.8  T
  11   -451.1738169 -0.593681E-06  0.112E-03    1.34       5.9  T
  12   -451.1738170 -0.774741E-07  0.777E-04    1.34       8.6  T
  13   -451.1738170 -0.383769E-07  0.479E-04    1.34      13.9  T
     SCC iter.                  ...        0 min,  0.946 sec
     gradient                   ...        0 min,  0.200 sec
 * total energy  :  -445.8237165 Eh     change       -0.5009303E-01 Eh
   gradient norm :     0.0613755 Eh/α   predicted    -0.4809126E-01 (  -4.00%)
   displ. norm   :     0.4089629 α      lambda       -0.1169543E-01
   maximum displ.:     0.1321207 α      in ANC's #101, #104, #139, ...

........................................................................
.............................. CYCLE    4 ..............................
........................................................................
   1   -451.2057447 -0.451206E+03  0.119E-01    1.31       0.0  T
   2   -451.2059683 -0.223576E-03  0.671E-02    1.32       1.0  T
   3   -451.2058905  0.777252E-04  0.362E-02    1.32       1.0  T
   4   -451.2060645 -0.173918E-03  0.167E-02    1.32       1.0  T
   5   -451.2060871 -0.226416E-04  0.811E-03    1.32       1.0  T
   6   -451.2060868  0.292466E-06  0.645E-03    1.32       1.0  T
   7   -451.2060922 -0.538121E-05  0.419E-03    1.32       1.6  T
   8   -451.2060928 -0.573050E-06  0.334E-03    1.32       2.0  T
   9   -451.2060941 -0.129359E-05  0.172E-03    1.32       3.9  T
  10   -451.2060944 -0.357036E-06  0.855E-04    1.32       7.8  T
  11   -451.2060945 -0.931296E-07  0.416E-04    1.32      16.0  T
     SCC iter.                  ...        0 min,  0.810 sec
     gradient                   ...        0 min,  0.199 sec
 * total energy  :  -445.8315554 Eh     change       -0.7838852E-02 Eh
   gradient norm :     0.0223950 Eh/α   predicted    -0.6825756E-02 ( -12.92%)
   displ. norm   :     0.4403026 α      lambda       -0.4107663E-02
   maximum displ.:     0.1468311 α      in ANC's #101, #104, #102, ...

........................................................................
.............................. CYCLE    5 ..............................
........................................................................
   1   -451.2287521 -0.451229E+03  0.720E-02    1.30       0.0  T
   2   -451.2287731 -0.209599E-04  0.392E-02    1.30       1.0  T
   3   -451.2287431  0.300068E-04  0.146E-02    1.30       1.0  T
   4   -451.2287778 -0.347075E-04  0.699E-03    1.30       1.0  T
   5   -451.2287808 -0.302015E-05  0.393E-03    1.30       1.7  T
   6   -451.2287824 -0.160069E-05  0.248E-03    1.30       2.7  T
   7   -451.2287833 -0.843231E-06  0.163E-03    1.30       4.1  T
   8   -451.2287834 -0.120014E-06  0.128E-03    1.30       5.2  T
   9   -451.2287835 -0.144896E-06  0.699E-04    1.30       9.5  T
  10   -451.2287836 -0.668866E-07  0.339E-04    1.30      19.7  T
     SCC iter.                  ...        0 min,  0.729 sec
     gradient                   ...        0 min,  0.199 sec
 * total energy  :  -445.8345050 Eh     change       -0.2949614E-02 Eh
   gradient norm :     0.0119986 Eh/α   predicted    -0.2452123E-02 ( -16.87%)
   displ. norm   :     0.4522155 α      lambda       -0.2151524E-02
   maximum displ.:     0.1225422 α      in ANC's #101, #39, #104, ...

........................................................................
.............................. CYCLE    6 ..............................
........................................................................
   1   -451.2494040 -0.451249E+03  0.620E-02    1.29       0.0  T
   2   -451.2494112 -0.724187E-05  0.338E-02    1.29       1.0  T
   3   -451.2493900  0.212032E-04  0.113E-02    1.29       1.0  T
   4   -451.2494123 -0.222737E-04  0.508E-03    1.29       1.3  T
   5   -451.2494125 -0.266454E-06  0.348E-03    1.29       1.9  T
   6   -451.2494153 -0.280773E-05  0.121E-03    1.29       5.5  T
   7   -451.2494156 -0.223181E-06  0.723E-04    1.29       9.2  T
   8   -451.2494156 -0.201184E-07  0.556E-04    1.29      12.0  T
     SCC iter.                  ...        0 min,  0.597 sec
     gradient                   ...        0 min,  0.200 sec
 * total energy  :  -445.8360740 Eh     change       -0.1568970E-02 Eh
   gradient norm :     0.0114780 Eh/α   predicted    -0.1295841E-02 ( -17.41%)
   displ. norm   :     0.4460649 α      lambda       -0.1294809E-02
   maximum displ.:     0.1468884 α      in ANC's #39, #65, #43, ...

........................................................................
.............................. CYCLE    7 ..............................
........................................................................
   1   -451.2635436 -0.451264E+03  0.583E-02    1.29       0.0  T
   2   -451.2635521 -0.850586E-05  0.322E-02    1.28       1.0  T
   3   -451.2635274  0.247118E-04  0.119E-02    1.29       1.0  T
   4   -451.2635535 -0.261092E-04  0.482E-03    1.28       1.4  T
   5   -451.2635547 -0.119293E-05  0.301E-03    1.28       2.2  T
   6   -451.2635565 -0.181069E-05  0.127E-03    1.28       5.3  T
   7   -451.2635568 -0.293482E-06  0.632E-04    1.28      10.6  T
   8   -451.2635568 -0.261192E-07  0.492E-04    1.28      13.6  T
     SCC iter.                  ...        0 min,  0.587 sec
     gradient                   ...        0 min,  0.199 sec
 * total energy  :  -445.8370556 Eh     change       -0.9816885E-03 Eh
   gradient norm :     0.0101506 Eh/α   predicted    -0.7763120E-03 ( -20.92%)
   displ. norm   :     0.4841481 α      lambda       -0.1029938E-02
   maximum displ.:     0.1827369 α      in ANC's #39, #65, #28, ...

........................................................................
.............................. CYCLE    8 ..............................
........................................................................
   1   -451.2706863 -0.451271E+03  0.612E-02    1.28       0.0  T
   2   -451.2706951 -0.878572E-05  0.339E-02    1.28       1.0  T
   3   -451.2706695  0.255344E-04  0.118E-02    1.28       1.0  T
   4   -451.2706959 -0.263845E-04  0.493E-03    1.28       1.4  T
   5   -451.2706979 -0.198490E-05  0.281E-03    1.28       2.4  T
   6   -451.2706993 -0.135680E-05  0.133E-03    1.28       5.0  T
   7   -451.2706996 -0.335675E-06  0.667E-04    1.28      10.0  T
   8   -451.2706996 -0.346051E-07  0.507E-04    1.28      13.1  T
     SCC iter.                  ...        0 min,  0.582 sec
     gradient                   ...        0 min,  0.200 sec
 * total energy  :  -445.8378626 Eh     change       -0.8069873E-03 Eh
   gradient norm :     0.0071008 Eh/α   predicted    -0.6356862E-03 ( -21.23%)
   displ. norm   :     0.5356972 α      lambda       -0.9312235E-03
   maximum displ.:     0.2116497 α      in ANC's #39, #28, #65, ...

........................................................................
.............................. CYCLE    9 ..............................
........................................................................
   1   -451.2711065 -0.451271E+03  0.656E-02    1.28       0.0  T
   2   -451.2711141 -0.760208E-05  0.365E-02    1.28       1.0  T
   3   -451.2710887  0.254014E-04  0.117E-02    1.28       1.0  T
   4   -451.2711154 -0.266596E-04  0.478E-03    1.28       1.4  T
   5   -451.2711168 -0.141922E-05  0.275E-03    1.28       2.4  T
   6   -451.2711182 -0.136531E-05  0.123E-03    1.28       5.4  T
   7   -451.2711184 -0.273427E-06  0.689E-04    1.28       9.7  T
   8   -451.2711185 -0.375506E-07  0.519E-04    1.28      12.9  T
     SCC iter.                  ...        0 min,  0.579 sec
     gradient                   ...        0 min,  0.200 sec
 * total energy  :  -445.8386078 Eh     change       -0.7451933E-03 Eh
   gradient norm :     0.0064761 Eh/α   predicted    -0.5992313E-03 ( -19.59%)
   displ. norm   :     0.5745667 α      lambda       -0.8591905E-03
   maximum displ.:     0.2223730 α      in ANC's #39, #28, #25, ...

........................................................................
.............................. CYCLE   10 ..............................
........................................................................
   1   -451.2667451 -0.451267E+03  0.688E-02    1.28       0.0  T
   2   -451.2667519 -0.687536E-05  0.384E-02    1.28       1.0  T
   3   -451.2667273  0.246248E-04  0.117E-02    1.28       1.0  T
   4   -451.2667542 -0.268622E-04  0.455E-03    1.28       1.5  T
   5   -451.2667547 -0.496696E-06  0.274E-03    1.28       2.4  T
   6   -451.2667562 -0.152127E-05  0.106E-03    1.28       6.3  T
   7   -451.2667563 -0.144275E-06  0.746E-04    1.28       8.9  T
   8   -451.2667564 -0.433401E-07  0.556E-04    1.28      12.0  T
     SCC iter.                  ...        0 min,  0.608 sec
     gradient                   ...        0 min,  0.200 sec
 * total energy  :  -445.8393022 Eh     change       -0.6943421E-03 Eh
   gradient norm :     0.0083017 Eh/α   predicted    -0.5714233E-03 ( -17.70%)
   displ. norm   :     0.5900877 α      lambda       -0.7697519E-03
   maximum displ.:     0.2120025 α      in ANC's #39, #28, #25, ...

........................................................................
.............................. CYCLE   11 ..............................
........................................................................
   1   -451.2608818 -0.451261E+03  0.693E-02    1.27       0.0  T
   2   -451.2608892 -0.733002E-05  0.387E-02    1.27       1.0  T
   3   -451.2608660  0.231666E-04  0.116E-02    1.27       1.0  T
   4   -451.2608916 -0.256345E-04  0.448E-03    1.27       1.5  T
   5   -451.2608925 -0.810245E-06  0.243E-03    1.27       2.7  T
   6   -451.2608935 -0.109164E-05  0.999E-04    1.27       6.7  T
   7   -451.2608936 -0.742793E-07  0.793E-04    1.27       8.4  T
   8   -451.2608937 -0.463888E-07  0.617E-04    1.27      10.8  T
     SCC iter.                  ...        0 min,  0.601 sec
     gradient                   ...        0 min,  0.201 sec
 * total energy  :  -445.8399241 Eh     change       -0.6218928E-03 Eh
   gradient norm :     0.0084941 Eh/α   predicted    -0.5189156E-03 ( -16.56%)
   displ. norm   :     0.5857011 α      lambda       -0.6680900E-03
   maximum displ.:     0.1852441 α      in ANC's #39, #25, #28, ...

........................................................................
.............................. CYCLE   12 ..............................
........................................................................
   1   -451.2565635 -0.451257E+03  0.665E-02    1.27       0.0  T
   2   -451.2565706 -0.709963E-05  0.371E-02    1.27       1.0  T
   3   -451.2565511  0.195019E-04  0.108E-02    1.27       1.0  T
   4   -451.2565724 -0.212570E-04  0.437E-03    1.27       1.5  T
   5   -451.2565737 -0.131471E-05  0.211E-03    1.27       3.2  T
   6   -451.2565744 -0.733488E-06  0.926E-04    1.27       7.2  T
   7   -451.2565745 -0.790928E-07  0.672E-04    1.27       9.9  T
     SCC iter.                  ...        0 min,  0.527 sec
     gradient                   ...        0 min,  0.200 sec
 * total energy  :  -445.8404647 Eh     change       -0.5406602E-03 Eh
   gradient norm :     0.0069595 Eh/α   predicted    -0.4486602E-03 ( -17.02%)
   displ. norm   :     0.5781460 α      lambda       -0.5937609E-03
   maximum displ.:     0.1803805 α      in ANC's #25, #28, #15, ...

........................................................................
.............................. CYCLE   13 ..............................
........................................................................
   1   -451.2554403 -0.451255E+03  0.620E-02    1.27       0.0  T
   2   -451.2554460 -0.564560E-05  0.346E-02    1.27       1.0  T
   3   -451.2554295  0.164688E-04  0.983E-03    1.27       1.0  T
   4   -451.2554465 -0.169748E-04  0.437E-03    1.27       1.5  T
   5   -451.2554477 -0.118031E-05  0.249E-03    1.27       2.7  T
   6   -451.2554489 -0.122023E-05  0.112E-03    1.27       6.0  T
   7   -451.2554491 -0.185955E-06  0.727E-04    1.27       9.2  T
   8   -451.2554491 -0.355111E-07  0.560E-04    1.27      11.9  T
     SCC iter.                  ...        0 min,  0.594 sec
     gradient                   ...        0 min,  0.200 sec
 * total energy  :  -445.8409511 Eh     change       -0.4863597E-03 Eh
   gradient norm :     0.0062325 Eh/α   predicted    -0.3961169E-03 ( -18.55%)
   displ. norm   :     0.5902344 α      lambda       -0.5688386E-03
   maximum displ.:     0.1920843 α      in ANC's #25, #28, #15, ...

........................................................................
.............................. CYCLE   14 ..............................
........................................................................
   1   -451.2572376 -0.451257E+03  0.587E-02    1.26       0.0  T
   2   -451.2572420 -0.441093E-05  0.327E-02    1.26       1.0  T
   3   -451.2572305  0.114326E-04  0.851E-03    1.26       1.0  T
   4   -451.2572421 -0.115977E-04  0.408E-03    1.27       1.6  T
   5   -451.2572431 -0.967235E-06  0.232E-03    1.26       2.9  T
   6   -451.2572442 -0.112489E-05  0.992E-04    1.26       6.7  T
   7   -451.2572444 -0.129516E-06  0.696E-04    1.26       9.6  T
   8   -451.2572444 -0.292420E-07  0.538E-04    1.26      12.4  T
     SCC iter.                  ...        0 min,  0.590 sec
     gradient                   ...        0 min,  0.200 sec
 * total energy  :  -445.8414243 Eh     change       -0.4732064E-03 Eh
   gradient norm :     0.0073509 Eh/α   predicted    -0.3835500E-03 ( -18.95%)
   displ. norm   :     0.6132670 α      lambda       -0.5719851E-03
   maximum displ.:     0.2029754 α      in ANC's #25, #15, #16, ...

........................................................................
.............................. CYCLE   15 ..............................
........................................................................
   1   -451.2608017 -0.451261E+03  0.566E-02    1.26       0.0  T
   2   -451.2608059 -0.418884E-05  0.315E-02    1.26       1.0  T
   3   -451.2607958  0.100984E-04  0.821E-03    1.26       1.0  T
   4   -451.2608059 -0.101560E-04  0.402E-03    1.26       1.7  T
   5   -451.2608068 -0.873078E-06  0.238E-03    1.26       2.8  T
   6   -451.2608080 -0.116074E-05  0.103E-03    1.26       6.5  T
   7   -451.2608081 -0.142363E-06  0.722E-04    1.26       9.2  T
   8   -451.2608081 -0.292611E-07  0.564E-04    1.26      11.8  T
     SCC iter.                  ...        0 min,  0.588 sec
     gradient                   ...        0 min,  0.199 sec
 * total energy  :  -445.8419045 Eh     change       -0.4802273E-03 Eh
   gradient norm :     0.0080947 Eh/α   predicted    -0.3935560E-03 ( -18.05%)
   displ. norm   :     0.6366546 α      lambda       -0.5683416E-03
   maximum displ.:     0.2107049 α      in ANC's #25, #15, #16, ...

........................................................................
.............................. CYCLE   16 ..............................
........................................................................
   1   -451.2639024 -0.451264E+03  0.554E-02    1.26       0.0  T
   2   -451.2639071 -0.471241E-05  0.308E-02    1.26       1.0  T
   3   -451.2638965  0.106529E-04  0.841E-03    1.26       1.0  T
   4   -451.2639073 -0.108592E-04  0.397E-03    1.26       1.7  T
   5   -451.2639084 -0.111185E-05  0.218E-03    1.26       3.1  T
   6   -451.2639092 -0.796062E-06  0.109E-03    1.26       6.1  T
   7   -451.2639094 -0.197756E-06  0.677E-04    1.26       9.9  T
   8   -451.2639095 -0.268269E-07  0.537E-04    1.26      12.4  T
     SCC iter.                  ...        0 min,  0.589 sec
     gradient                   ...        0 min,  0.200 sec
 * total energy  :  -445.8423819 Eh     change       -0.4774389E-03 Eh
   gradient norm :     0.0074586 Eh/α   predicted    -0.3993574E-03 ( -16.35%)
   displ. norm   :     0.6483855 α      lambda       -0.5411225E-03
   maximum displ.:     0.2122917 α      in ANC's #25, #15, #16, ...

........................................................................
.............................. CYCLE   17 ..............................
........................................................................
   1   -451.2657491 -0.451266E+03  0.534E-02    1.26       0.0  T
   2   -451.2657535 -0.439496E-05  0.298E-02    1.26       1.0  T
   3   -451.2657429  0.105806E-04  0.820E-03    1.26       1.0  T
   4   -451.2657538 -0.108686E-04  0.377E-03    1.26       1.8  T
   5   -451.2657549 -0.115219E-05  0.196E-03    1.26       3.4  T
   6   -451.2657555 -0.581108E-06  0.102E-03    1.26       6.5  T
   7   -451.2657557 -0.172944E-06  0.636E-04    1.26      10.5  T
   8   -451.2657557 -0.256583E-07  0.499E-04    1.26      13.4  T
     SCC iter.                  ...        0 min,  0.588 sec
     gradient                   ...        0 min,  0.200 sec
 * total energy  :  -445.8428365 Eh     change       -0.4545235E-03 Eh
   gradient norm :     0.0068219 Eh/α   predicted    -0.3843121E-03 ( -15.45%)
   displ. norm   :     0.6649555 α      lambda       -0.5093922E-03
   maximum displ.:     0.2165572 α      in ANC's #15, #25, #16, ...

........................................................................
.............................. CYCLE   18 ..............................
........................................................................
   1   -451.2646461 -0.451265E+03  0.531E-02    1.26       0.0  T
   2   -451.2646499 -0.378604E-05  0.297E-02    1.26       1.0  T
   3   -451.2646398  0.100465E-04  0.789E-03    1.26       1.0  T
   4   -451.2646502 -0.103319E-04  0.366E-03    1.26       1.8  T
   5   -451.2646513 -0.111690E-05  0.184E-03    1.26       3.6  T
   6   -451.2646518 -0.525275E-06  0.952E-04    1.26       7.0  T
   7   -451.2646519 -0.118781E-06  0.663E-04    1.26      10.1  T
     SCC iter.                  ...        0 min,  0.514 sec
     gradient                   ...        0 min,  0.200 sec
 * total energy  :  -445.8432701 Eh     change       -0.4336251E-03 Eh
   gradient norm :     0.0073724 Eh/α   predicted    -0.3673156E-03 ( -15.29%)
   displ. norm   :     0.6550207 α      lambda       -0.5153280E-03
   maximum displ.:     0.2202833 α      in ANC's #15, #16, #25, ...

........................................................................
.............................. CYCLE   19 ..............................
........................................................................
   1   -451.2667853 -0.451267E+03  0.497E-02    1.26       0.0  T
   2   -451.2667887 -0.343309E-05  0.280E-02    1.26       1.0  T
   3   -451.2667777  0.110164E-04  0.786E-03    1.26       1.0  T
   4   -451.2667894 -0.117314E-04  0.342E-03    1.26       1.9  T
   5   -451.2667904 -0.100108E-05  0.171E-03    1.26       3.9  T
   6   -451.2667908 -0.389186E-06  0.975E-04    1.26       6.8  T
   7   -451.2667909 -0.680350E-07  0.778E-04    1.26       8.6  T
     SCC iter.                  ...        0 min,  0.508 sec
     gradient                   ...        0 min,  0.200 sec
 * total energy  :  -445.8436884 Eh     change       -0.4183179E-03 Eh
   gradient norm :     0.0084556 Eh/α   predicted    -0.3682255E-03 ( -11.97%)
   displ. norm   :     0.7426103 α      lambda       -0.5347568E-03
   maximum displ.:     0.2473446 α      in ANC's #15, #16, #25, ...

........................................................................
.............................. CYCLE   20 ..............................
........................................................................
   1   -451.2562446 -0.451256E+03  0.624E-02    1.26       0.0  T
   2   -451.2562505 -0.588241E-05  0.350E-02    1.26       1.0  T
   3   -451.2562271  0.234014E-04  0.112E-02    1.26       1.0  T
   4   -451.2562525 -0.254015E-04  0.443E-03    1.26       1.5  T
   5   -451.2562539 -0.139331E-05  0.231E-03    1.26       2.9  T
   6   -451.2562546 -0.705463E-06  0.126E-03    1.26       5.3  T
   7   -451.2562547 -0.101590E-06  0.102E-03    1.26       6.5  T
   8   -451.2562547 -0.319502E-07  0.824E-04    1.26       8.1  T
   9   -451.2562548 -0.876724E-07  0.402E-04    1.26      16.6  T
     SCC iter.                  ...        0 min,  0.654 sec
     gradient                   ...        0 min,  0.200 sec
 * total energy  :  -445.8440620 Eh     change       -0.3735428E-03 Eh
   gradient norm :     0.0097972 Eh/α   predicted    -0.4148438E-03 (  11.06%)
   displ. norm   :     0.5420933 α      lambda       -0.4941438E-03
   maximum displ.:     0.1870794 α      in ANC's #15, #16, #1, ...
 * RMSD in coord.:     0.5599740 α      energy gain  -0.1770728E+00 Eh

generating ANC from model Hessian ...
Using Lindh-Hessian (1995)
 Shifting diagonal of input Hessian by   1.001331237190088E-002
 Lowest  eigenvalues of input Hessian
    0.010000    0.000000    0.000000    0.000000    0.000000    0.000000
    0.000000    0.010018    0.010025    0.010043    0.010047    0.010061
    0.010067    0.010078    0.010084    0.010096    0.010108    0.010120
 Highest eigenvalues
    2.056907    2.070067    2.076884    2.083901    2.084959    2.105329
 

........................................................................
.............................. CYCLE   21 ..............................
........................................................................
   1   -451.2605985 -0.451261E+03  0.417E-02    1.25       0.0  T
   2   -451.2606030 -0.452357E-05  0.235E-02    1.25       1.0  T
   3   -451.2605869  0.161498E-04  0.927E-03    1.25       1.0  T
   4   -451.2606045 -0.175799E-04  0.336E-03    1.25       2.0  T
   5   -451.2606056 -0.117610E-05  0.169E-03    1.25       3.9  T
   6   -451.2606058 -0.207413E-06  0.109E-03    1.25       6.1  T
   7   -451.2606060 -0.151645E-06  0.741E-04    1.25       9.0  T
   8   -451.2606060 -0.244232E-07  0.609E-04    1.25      11.0  T
     SCC iter.                  ...        0 min,  0.589 sec
     gradient                   ...        0 min,  0.200 sec
 * total energy  :  -445.8444196 Eh     change       -0.3575992E-03 Eh
   gradient norm :     0.0071522 Eh/α   predicted     0.0000000E+00 (-100.00%)
   displ. norm   :     0.0792497 α      lambda       -0.1240659E-03
   maximum displ.:     0.0208393 α      in ANC's #1, #11, #3, ...

........................................................................
.............................. CYCLE   22 ..............................
........................................................................
   1   -451.2630785 -0.451263E+03  0.103E-02    1.25       0.0  T
   2   -451.2630790 -0.492059E-06  0.592E-03    1.25       1.1  T
   3   -451.2630773  0.173425E-05  0.323E-03    1.25       2.1  T
   4   -451.2630793 -0.204791E-05  0.102E-03    1.25       6.5  T
   5   -451.2630794 -0.644230E-07  0.663E-04    1.25      10.0  T
   6   -451.2630795 -0.529400E-07  0.416E-04    1.25      16.0  T
     SCC iter.                  ...        0 min,  0.439 sec
     gradient                   ...        0 min,  0.199 sec
 * total energy  :  -445.8445403 Eh     change       -0.1207860E-03 Eh
   gradient norm :     0.0042614 Eh/α   predicted    -0.7182210E-04 ( -40.54%)
   displ. norm   :     0.2634047 α      lambda       -0.3045536E-03
   maximum displ.:     0.0741000 α      in ANC's #1, #11, #3, ...

........................................................................
.............................. CYCLE   23 ..............................
........................................................................
   1   -451.2667576 -0.451267E+03  0.281E-02    1.25       0.0  T
   2   -451.2667608 -0.313536E-05  0.160E-02    1.25       1.0  T
   3   -451.2667477  0.130729E-04  0.846E-03    1.25       1.0  T
   4   -451.2667620 -0.143419E-04  0.295E-03    1.25       2.3  T
   5   -451.2667627 -0.685311E-06  0.202E-03    1.25       3.3  T
   6   -451.2667634 -0.643164E-06  0.114E-03    1.25       5.8  T
   7   -451.2667635 -0.114066E-06  0.843E-04    1.25       7.9  T
   8   -451.2667635 -0.516167E-07  0.649E-04    1.25      10.3  T
     SCC iter.                  ...        0 min,  0.582 sec
     gradient                   ...        0 min,  0.199 sec
 * total energy  :  -445.8447387 Eh     change       -0.1983107E-03 Eh
   gradient norm :     0.0035474 Eh/α   predicted    -0.1628431E-03 ( -17.88%)
   displ. norm   :     0.2095171 α      lambda       -0.1205387E-03
   maximum displ.:     0.0641299 α      in ANC's #1, #11, #3, ...

........................................................................
.............................. CYCLE   24 ..............................
........................................................................
   1   -451.2671423 -0.451267E+03  0.181E-02    1.25       0.0  T
   2   -451.2671431 -0.801888E-06  0.102E-02    1.25       1.0  T
   3   -451.2671393  0.375414E-05  0.435E-03    1.25       1.5  T
   4   -451.2671434 -0.403388E-05  0.155E-03    1.25       4.3  T
   5   -451.2671435 -0.114648E-06  0.108E-03    1.25       6.2  T
   6   -451.2671437 -0.209669E-06  0.561E-04    1.25      11.9  T
   7   -451.2671437 -0.290281E-07  0.420E-04    1.25      15.9  T
     SCC iter.                  ...        0 min,  0.510 sec
     gradient                   ...        0 min,  0.199 sec
 * total energy  :  -445.8448390 Eh     change       -0.1003733E-03 Eh
   gradient norm :     0.0054642 Eh/α   predicted    -0.6321526E-04 ( -37.02%)
   displ. norm   :     0.4156604 α      lambda       -0.2318243E-03
   maximum displ.:     0.1306525 α      in ANC's #1, #11, #3, ...

........................................................................
.............................. CYCLE   25 ..............................
........................................................................
   1   -451.2656764 -0.451266E+03  0.325E-02    1.25       0.0  T
   2   -451.2656781 -0.173762E-05  0.183E-02    1.25       1.0  T
   3   -451.2656703  0.777646E-05  0.613E-03    1.25       1.1  T
   4   -451.2656788 -0.840542E-05  0.219E-03    1.25       3.0  T
   5   -451.2656790 -0.227042E-06  0.126E-03    1.25       5.3  T
   6   -451.2656793 -0.280155E-06  0.643E-04    1.25      10.4  T
   7   -451.2656793 -0.562175E-07  0.438E-04    1.25      15.2  T
     SCC iter.                  ...        0 min,  0.509 sec
     gradient                   ...        0 min,  0.199 sec
 * total energy  :  -445.8450294 Eh     change       -0.1903465E-03 Eh
   gradient norm :     0.0066978 Eh/α   predicted    -0.1359398E-03 ( -28.58%)
   displ. norm   :     0.5296502 α      lambda       -0.2817748E-03
   maximum displ.:     0.1723768 α      in ANC's #1, #11, #3, ...

........................................................................
.............................. CYCLE   26 ..............................
........................................................................
   1   -451.2627435 -0.451263E+03  0.384E-02    1.25       0.0  T
   2   -451.2627456 -0.201643E-05  0.217E-02    1.25       1.0  T
   3   -451.2627377  0.784605E-05  0.628E-03    1.25       1.1  T
   4   -451.2627464 -0.865476E-05  0.229E-03    1.25       2.9  T
   5   -451.2627466 -0.261934E-06  0.112E-03    1.25       5.9  T
   6   -451.2627468 -0.222349E-06  0.484E-04    1.25      13.8  T
   7   -451.2627469 -0.179652E-07  0.370E-04    1.25      18.0  T
     SCC iter.                  ...        0 min,  0.509 sec
     gradient                   ...        0 min,  0.199 sec
 * total energy  :  -445.8452608 Eh     change       -0.2314214E-03 Eh
   gradient norm :     0.0062138 Eh/α   predicted    -0.1804133E-03 ( -22.04%)
   displ. norm   :     0.5518499 α      lambda       -0.2867490E-03
   maximum displ.:     0.1873576 α      in ANC's #1, #11, #3, ...

........................................................................
.............................. CYCLE   27 ..............................
........................................................................
   1   -451.2606253 -0.451261E+03  0.375E-02    1.25       0.0  T
   2   -451.2606274 -0.210813E-05  0.212E-02    1.25       1.0  T
   3   -451.2606193  0.812664E-05  0.640E-03    1.25       1.0  T
   4   -451.2606281 -0.876322E-05  0.241E-03    1.25       2.8  T
   5   -451.2606283 -0.260180E-06  0.146E-03    1.25       4.6  T
   6   -451.2606287 -0.397532E-06  0.733E-04    1.25       9.1  T
   7   -451.2606288 -0.793391E-07  0.468E-04    1.25      14.2  T
     SCC iter.                  ...        0 min,  0.509 sec
     gradient                   ...        0 min,  0.199 sec
 * total energy  :  -445.8454941 Eh     change       -0.2333382E-03 Eh
   gradient norm :     0.0046568 Eh/α   predicted    -0.1870463E-03 ( -19.84%)
   displ. norm   :     0.5434739 α      lambda       -0.2644146E-03
   maximum displ.:     0.1924559 α      in ANC's #1, #3, #11, ...

........................................................................
.............................. CYCLE   28 ..............................
........................................................................
   1   -451.2605705 -0.451261E+03  0.350E-02    1.25       0.0  T
   2   -451.2605725 -0.206692E-05  0.198E-02    1.25       1.0  T
   3   -451.2605656  0.698101E-05  0.608E-03    1.25       1.1  T
   4   -451.2605730 -0.746829E-05  0.241E-03    1.25       2.8  T
   5   -451.2605736 -0.547838E-06  0.124E-03    1.25       5.4  T
   6   -451.2605738 -0.185559E-06  0.760E-04    1.25       8.8  T
   7   -451.2605738 -0.564141E-07  0.568E-04    1.25      11.7  T
     SCC iter.                  ...        0 min,  0.509 sec
     gradient                   ...        0 min,  0.199 sec
 * total energy  :  -445.8457093 Eh     change       -0.2151237E-03 Eh
   gradient norm :     0.0041542 Eh/α   predicted    -0.1712805E-03 ( -20.38%)
   displ. norm   :     0.5590471 α      lambda       -0.2464418E-03
   maximum displ.:     0.2039877 α      in ANC's #1, #3, #11, ...

........................................................................
.............................. CYCLE   29 ..............................
........................................................................
   1   -451.2618474 -0.451262E+03  0.341E-02    1.25       0.0  T
   2   -451.2618491 -0.163905E-05  0.193E-02    1.25       1.0  T
   3   -451.2618436  0.544799E-05  0.548E-03    1.25       1.2  T
   4   -451.2618494 -0.579971E-05  0.227E-03    1.25       2.9  T
   5   -451.2618499 -0.503495E-06  0.108E-03    1.25       6.1  T
   6   -451.2618501 -0.145158E-06  0.643E-04    1.25      10.4  T
   7   -451.2618501 -0.252135E-07  0.521E-04    1.25      12.8  T
     SCC iter.                  ...        0 min,  0.528 sec
     gradient                   ...        0 min,  0.199 sec
 * total energy  :  -445.8459168 Eh     change       -0.2075760E-03 Eh
   gradient norm :     0.0050848 Eh/α   predicted    -0.1617552E-03 ( -22.07%)
   displ. norm   :     0.5943683 α      lambda       -0.2659621E-03
   maximum displ.:     0.2220405 α      in ANC's #1, #3, #11, ...

........................................................................
.............................. CYCLE   30 ..............................
........................................................................
   1   -451.2644065 -0.451264E+03  0.345E-02    1.25       0.0  T
   2   -451.2644078 -0.132720E-05  0.196E-02    1.25       1.0  T
   3   -451.2644025  0.532387E-05  0.547E-03    1.25       1.2  T
   4   -451.2644081 -0.562469E-05  0.219E-03    1.25       3.0  T
   5   -451.2644083 -0.208463E-06  0.134E-03    1.25       5.0  T
   6   -451.2644087 -0.355261E-06  0.639E-04    1.25      10.4  T
   7   -451.2644087 -0.458435E-07  0.469E-04    1.25      14.2  T
     SCC iter.                  ...        0 min,  0.523 sec
     gradient                   ...        0 min,  0.199 sec
 * total energy  :  -445.8461458 Eh     change       -0.2289677E-03 Eh
   gradient norm :     0.0057849 Eh/α   predicted    -0.1800052E-03 ( -21.38%)
   displ. norm   :     0.6433562 α      lambda       -0.2987121E-03
   maximum displ.:     0.2438167 α      in ANC's #1, #3, #11, ...

........................................................................
.............................. CYCLE   31 ..............................
........................................................................
   1   -451.2669922 -0.451267E+03  0.364E-02    1.25       0.0  T
   2   -451.2669936 -0.143348E-05  0.206E-02    1.25       1.0  T
   3   -451.2669875  0.612856E-05  0.588E-03    1.25       1.1  T
   4   -451.2669941 -0.655930E-05  0.222E-03    1.25       3.0  T
   5   -451.2669942 -0.140711E-06  0.136E-03    1.25       4.9  T
   6   -451.2669946 -0.389478E-06  0.606E-04    1.25      11.0  T
   7   -451.2669946 -0.418819E-07  0.430E-04    1.25      15.5  T
     SCC iter.                  ...        0 min,  0.519 sec
     gradient                   ...        0 min,  0.199 sec
 * total energy  :  -445.8464062 Eh     change       -0.2604257E-03 Eh
   gradient norm :     0.0055823 Eh/α   predicted    -0.2112093E-03 ( -18.90%)
   displ. norm   :     0.6763695 α      lambda       -0.3247441E-03
   maximum displ.:     0.2588041 α      in ANC's #1, #3, #11, ...

........................................................................
.............................. CYCLE   32 ..............................
........................................................................
   1   -451.2687983 -0.451269E+03  0.381E-02    1.25       0.0  T
   2   -451.2688002 -0.188234E-05  0.216E-02    1.25       1.0  T
   3   -451.2687922  0.799969E-05  0.663E-03    1.25       1.0  T
   4   -451.2688007 -0.854798E-05  0.244E-03    1.25       2.7  T
   5   -451.2688010 -0.305977E-06  0.144E-03    1.25       4.6  T
   6   -451.2688014 -0.368271E-06  0.738E-04    1.25       9.0  T
   7   -451.2688015 -0.718630E-07  0.498E-04    1.25      13.4  T
     SCC iter.                  ...        0 min,  0.513 sec
     gradient                   ...        0 min,  0.199 sec
 * total energy  :  -445.8466882 Eh     change       -0.2819567E-03 Eh
   gradient norm :     0.0048336 Eh/α   predicted    -0.2366536E-03 ( -16.07%)
   displ. norm   :     0.7054006 α      lambda       -0.3260257E-03
   maximum displ.:     0.2721295 α      in ANC's #1, #3, #11, ...

........................................................................
.............................. CYCLE   33 ..............................
........................................................................
   1   -451.2680933 -0.451268E+03  0.397E-02    1.24       0.0  T
   2   -451.2680954 -0.216442E-05  0.224E-02    1.24       1.0  T
   3   -451.2680865  0.887508E-05  0.698E-03    1.24       1.0  T
   4   -451.2680960 -0.946094E-05  0.265E-03    1.24       2.5  T
   5   -451.2680965 -0.473453E-06  0.150E-03    1.24       4.4  T
   6   -451.2680968 -0.336051E-06  0.876E-04    1.24       7.6  T
   7   -451.2680969 -0.995306E-07  0.609E-04    1.24      10.9  T
     SCC iter.                  ...        0 min,  0.516 sec
     gradient                   ...        0 min,  0.198 sec
 * total energy  :  -445.8469720 Eh     change       -0.2838476E-03 Eh
   gradient norm :     0.0044180 Eh/α   predicted    -0.2441280E-03 ( -13.99%)
   displ. norm   :     0.6969110 α      lambda       -0.3182676E-03
   maximum displ.:     0.2713518 α      in ANC's #1, #3, #11, ...

........................................................................
.............................. CYCLE   34 ..............................
........................................................................
   1   -451.2673573 -0.451267E+03  0.401E-02    1.24       0.0  T
   2   -451.2673593 -0.205423E-05  0.226E-02    1.24       1.0  T
   3   -451.2673510  0.837831E-05  0.692E-03    1.24       1.0  T
   4   -451.2673601 -0.913977E-05  0.266E-03    1.24       2.5  T
   5   -451.2673606 -0.485655E-06  0.137E-03    1.24       4.9  T
   6   -451.2673608 -0.242847E-06  0.840E-04    1.24       7.9  T
   7   -451.2673609 -0.431633E-07  0.698E-04    1.24       9.6  T
     SCC iter.                  ...        0 min,  0.518 sec
     gradient                   ...        0 min,  0.199 sec
 * total energy  :  -445.8472427 Eh     change       -0.2707106E-03 Eh
   gradient norm :     0.0048457 Eh/α   predicted    -0.2364251E-03 ( -12.67%)
   displ. norm   :     0.7515990 α      lambda       -0.3033289E-03
   maximum displ.:     0.2962690 α      in ANC's #1, #3, #11, ...

........................................................................
.............................. CYCLE   35 ..............................
........................................................................
   1   -451.2617036 -0.451262E+03  0.407E-02    1.25       0.0  T
   2   -451.2617057 -0.201996E-05  0.230E-02    1.25       1.0  T
   3   -451.2616996  0.600796E-05  0.611E-03    1.25       1.1  T
   4   -451.2617062 -0.652245E-05  0.260E-03    1.25       2.6  T
   5   -451.2617065 -0.371811E-06  0.146E-03    1.25       4.6  T
   6   -451.2617069 -0.321120E-06  0.863E-04    1.25       7.7  T
   7   -451.2617069 -0.692772E-07  0.672E-04    1.25       9.9  T
     SCC iter.                  ...        0 min,  0.515 sec
     gradient                   ...        0 min,  0.198 sec
 * total energy  :  -445.8474945 Eh     change       -0.2517094E-03 Eh
   gradient norm :     0.0057396 Eh/α   predicted    -0.2373754E-03 (  -5.69%)
   displ. norm   :     0.6543204 α      lambda       -0.3422111E-03
   maximum displ.:     0.2566978 α      in ANC's #1, #3, #5, ...

........................................................................
.............................. CYCLE   36 ..............................
........................................................................
   1   -451.2631342 -0.451263E+03  0.417E-02    1.25       0.0  T
   2   -451.2631368 -0.254295E-05  0.235E-02    1.25       1.0  T
   3   -451.2631274  0.940000E-05  0.748E-03    1.25       1.0  T
   4   -451.2631378 -0.104088E-04  0.287E-03    1.25       2.3  T
   5   -451.2631382 -0.455750E-06  0.156E-03    1.25       4.3  T
   6   -451.2631386 -0.324843E-06  0.954E-04    1.25       7.0  T
   7   -451.2631386 -0.504900E-07  0.791E-04    1.25       8.4  T
     SCC iter.                  ...        0 min,  0.516 sec
     gradient                   ...        0 min,  0.198 sec
 * total energy  :  -445.8477364 Eh     change       -0.2419530E-03 Eh
   gradient norm :     0.0059103 Eh/α   predicted    -0.2443930E-03 (   1.01%)
   displ. norm   :     0.6959786 α      lambda       -0.2733331E-03
   maximum displ.:     0.2812039 α      in ANC's #1, #3, #11, ...

........................................................................
.............................. CYCLE   37 ..............................
........................................................................
   1   -451.2595896 -0.451260E+03  0.359E-02    1.25       0.0  T
   2   -451.2595912 -0.165231E-05  0.202E-02    1.25       1.0  T
   3   -451.2595886  0.258536E-05  0.447E-03    1.25       1.5  T
   4   -451.2595914 -0.271856E-05  0.234E-03    1.25       2.8  T
   5   -451.2595919 -0.545799E-06  0.110E-03    1.25       6.1  T
   6   -451.2595920 -0.131276E-06  0.719E-04    1.25       9.3  T
   7   -451.2595921 -0.276751E-07  0.598E-04    1.25      11.1  T
     SCC iter.                  ...        0 min,  0.509 sec
     gradient                   ...        0 min,  0.198 sec
 * total energy  :  -445.8479794 Eh     change       -0.2429794E-03 Eh
   gradient norm :     0.0050598 Eh/α   predicted    -0.2028663E-03 ( -16.51%)
   displ. norm   :     0.6615303 α      lambda       -0.3237737E-03
   maximum displ.:     0.2709776 α      in ANC's #1, #3, #5, ...

........................................................................
.............................. CYCLE   38 ..............................
........................................................................
   1   -451.2609510 -0.451261E+03  0.356E-02    1.25       0.0  T
   2   -451.2609529 -0.189419E-05  0.201E-02    1.25       1.0  T
   3   -451.2609421  0.107568E-04  0.739E-03    1.25       1.0  T
   4   -451.2609532 -0.110645E-04  0.281E-03    1.25       2.4  T
   5   -451.2609537 -0.514130E-06  0.194E-03    1.25       3.4  T
   6   -451.2609544 -0.708204E-06  0.935E-04    1.25       7.1  T
   7   -451.2609545 -0.836151E-07  0.698E-04    1.25       9.5  T
     SCC iter.                  ...        0 min,  0.510 sec
     gradient                   ...        0 min,  0.198 sec
 * total energy  :  -445.8482490 Eh     change       -0.2696050E-03 Eh
   gradient norm :     0.0041626 Eh/α   predicted    -0.2327364E-03 ( -13.68%)
   displ. norm   :     0.7158534 α      lambda       -0.2789473E-03
   maximum displ.:     0.2972879 α      in ANC's #1, #3, #5, ...

........................................................................
.............................. CYCLE   39 ..............................
........................................................................
   1   -451.2616452 -0.451262E+03  0.373E-02    1.25       0.0  T
   2   -451.2616469 -0.168944E-05  0.210E-02    1.25       1.0  T
   3   -451.2616413  0.558167E-05  0.585E-03    1.25       1.1  T
   4   -451.2616473 -0.607278E-05  0.252E-03    1.25       2.6  T
   5   -451.2616478 -0.452273E-06  0.130E-03    1.25       5.1  T
   6   -451.2616480 -0.233462E-06  0.806E-04    1.25       8.3  T
   7   -451.2616481 -0.277001E-07  0.696E-04    1.25       9.6  T
     SCC iter.                  ...        0 min,  0.522 sec
     gradient                   ...        0 min,  0.199 sec
 * total energy  :  -445.8484858 Eh     change       -0.2367658E-03 Eh
   gradient norm :     0.0046328 Eh/α   predicted    -0.2109500E-03 ( -10.90%)
   displ. norm   :     0.6983725 α      lambda       -0.2426935E-03
   maximum displ.:     0.2927202 α      in ANC's #1, #3, #5, ...

........................................................................
.............................. CYCLE   40 ..............................
........................................................................
   1   -451.2634811 -0.451263E+03  0.350E-02    1.24       0.0  T
   2   -451.2634825 -0.133964E-05  0.196E-02    1.24       1.0  T
   3   -451.2634762  0.628090E-05  0.582E-03    1.24       1.1  T
   4   -451.2634826 -0.646482E-05  0.254E-03    1.24       2.6  T
   5   -451.2634828 -0.206751E-06  0.173E-03    1.24       3.9  T
   6   -451.2634835 -0.648293E-06  0.762E-04    1.24       8.7  T
   7   -451.2634835 -0.414796E-07  0.620E-04    1.24      10.8  T
     SCC iter.                  ...        0 min,  0.518 sec
     gradient                   ...        0 min,  0.198 sec
 * total energy  :  -445.8486942 Eh     change       -0.2084729E-03 Eh
   gradient norm :     0.0045204 Eh/α   predicted    -0.1805391E-03 ( -13.40%)
   displ. norm   :     0.7188221 α      lambda       -0.2279952E-03
   maximum displ.:     0.3056644 α      in ANC's #1, #3, #5, ...

........................................................................
.............................. CYCLE   41 ..............................
........................................................................
   1   -451.2640042 -0.451264E+03  0.338E-02    1.24       0.0  T
   2   -451.2640055 -0.132940E-05  0.190E-02    1.24       1.0  T
   3   -451.2639985  0.700570E-05  0.602E-03    1.24       1.1  T
   4   -451.2640058 -0.732630E-05  0.243E-03    1.24       2.7  T
   5   -451.2640060 -0.205730E-06  0.165E-03    1.24       4.0  T
   6   -451.2640066 -0.549666E-06  0.806E-04    1.24       8.3  T
   7   -451.2640066 -0.610399E-07  0.623E-04    1.24      10.7  T
     SCC iter.                  ...        0 min,  0.518 sec
     gradient                   ...        0 min,  0.198 sec
 * total energy  :  -445.8488936 Eh     change       -0.1993817E-03 Eh
   gradient norm :     0.0035896 Eh/α   predicted    -0.1729045E-03 ( -13.28%)
   displ. norm   :     0.6831840 α      lambda       -0.2316684E-03
   maximum displ.:     0.2943536 α      in ANC's #1, #3, #5, ...

........................................................................
.............................. CYCLE   42 ..............................
........................................................................
   1   -451.2672660 -0.451267E+03  0.306E-02    1.24       0.0  T
   2   -451.2672673 -0.131393E-05  0.173E-02    1.24       1.0  T
   3   -451.2672576  0.979280E-05  0.672E-03    1.24       1.0  T
   4   -451.2672676 -0.100556E-04  0.251E-03    1.24       2.7  T
   5   -451.2672681 -0.480064E-06  0.169E-03    1.24       3.9  T
   6   -451.2672686 -0.503954E-06  0.864E-04    1.24       7.7  T
   7   -451.2672687 -0.661441E-07  0.661E-04    1.24      10.1  T
     SCC iter.                  ...        0 min,  0.514 sec
     gradient                   ...        0 min,  0.198 sec
 * total energy  :  -445.8490843 Eh     change       -0.1906937E-03 Eh
   gradient norm :     0.0032276 Eh/α   predicted    -0.1699001E-03 ( -10.90%)
   displ. norm   :     0.7176246 α      lambda       -0.2166201E-03
   maximum displ.:     0.3128579 α      in ANC's #1, #3, #5, ...
 * RMSD in coord.:     0.7963475 α      energy gain  -0.5022344E-02 Eh

generating ANC from model Hessian ...
Using Lindh-Hessian (1995)
 Shifting diagonal of input Hessian by   1.001297947350193E-002
 Lowest  eigenvalues of input Hessian
    0.010000    0.000000    0.000000    0.000000    0.000000    0.000000
    0.000000    0.010019    0.010029    0.010042    0.010048    0.010062
    0.010070    0.010081    0.010090    0.010115    0.010118    0.010127
 Highest eigenvalues
    2.057510    2.070675    2.076902    2.085263    2.086244    2.106502
 

........................................................................
.............................. CYCLE   43 ..............................
........................................................................
   1   -451.2662551 -0.451266E+03  0.310E-02    1.24       0.0  T
   2   -451.2662563 -0.122398E-05  0.176E-02    1.24       1.0  T
   3   -451.2662469  0.944289E-05  0.648E-03    1.24       1.0  T
   4   -451.2662564 -0.957006E-05  0.248E-03    1.24       2.7  T
   5   -451.2662570 -0.590815E-06  0.160E-03    1.24       4.2  T
   6   -451.2662575 -0.427415E-06  0.838E-04    1.24       8.0  T
   7   -451.2662575 -0.589167E-07  0.650E-04    1.24      10.3  T
     SCC iter.                  ...        0 min,  0.523 sec
     gradient                   ...        0 min,  0.198 sec
 * total energy  :  -445.8492657 Eh     change       -0.1814435E-03 Eh
   gradient norm :     0.0042021 Eh/α   predicted     0.0000000E+00 (-100.00%)
   displ. norm   :     0.0530010 α      lambda       -0.5196989E-04
   maximum displ.:     0.0160721 α      in ANC's #5, #4, #3, ...

........................................................................
.............................. CYCLE   44 ..............................
........................................................................
   1   -451.2661111 -0.451266E+03  0.584E-03    1.24       0.0  T
   2   -451.2661113 -0.158481E-06  0.334E-03    1.24       2.0  T
   3   -451.2661107  0.588776E-06  0.188E-03    1.24       3.6  T
   4   -451.2661114 -0.687278E-06  0.598E-04    1.24      11.2  T
   5   -451.2661114 -0.233547E-07  0.402E-04    1.24      16.6  T
     SCC iter.                  ...        0 min,  0.368 sec
     gradient                   ...        0 min,  0.198 sec
 * total energy  :  -445.8493131 Eh     change       -0.4734742E-04 Eh
   gradient norm :     0.0023375 Eh/α   predicted    -0.2780802E-04 ( -41.27%)
   displ. norm   :     0.2039834 α      lambda       -0.1415979E-03
   maximum displ.:     0.0642253 α      in ANC's #5, #4, #3, ...

........................................................................
.............................. CYCLE   45 ..............................
........................................................................
   1   -451.2653143 -0.451265E+03  0.192E-02    1.24       0.0  T
   2   -451.2653153 -0.107858E-05  0.109E-02    1.24       1.0  T
   3   -451.2653094  0.593247E-05  0.579E-03    1.24       1.2  T
   4   -451.2653162 -0.684689E-05  0.161E-03    1.24       4.2  T
   5   -451.2653164 -0.177044E-06  0.929E-04    1.24       7.2  T
   6   -451.2653165 -0.762748E-07  0.594E-04    1.24      11.2  T
     SCC iter.                  ...        0 min,  0.440 sec
     gradient                   ...        0 min,  0.198 sec
 * total energy  :  -445.8494077 Eh     change       -0.9460113E-04 Eh
   gradient norm :     0.0030523 Eh/α   predicted    -0.7374530E-04 ( -22.05%)
   displ. norm   :     0.1796905 α      lambda       -0.6849050E-04
   maximum displ.:     0.0605993 α      in ANC's #5, #4, #3, ...

........................................................................
.............................. CYCLE   46 ..............................
........................................................................
   1   -451.2648595 -0.451265E+03  0.145E-02    1.24       0.0  T
   2   -451.2648599 -0.377617E-06  0.819E-03    1.25       1.0  T
   3   -451.2648577  0.221267E-05  0.345E-03    1.24       1.9  T
   4   -451.2648600 -0.237644E-05  0.124E-03    1.25       5.4  T
   5   -451.2648601 -0.591534E-07  0.910E-04    1.25       7.3  T
   6   -451.2648602 -0.141040E-06  0.505E-04    1.25      13.2  T
     SCC iter.                  ...        0 min,  0.440 sec
     gradient                   ...        0 min,  0.198 sec
 * total energy  :  -445.8494642 Eh     change       -0.5649720E-04 Eh
   gradient norm :     0.0045537 Eh/α   predicted    -0.3564298E-04 ( -36.91%)
   displ. norm   :     0.3237019 α      lambda       -0.1208777E-03
   maximum displ.:     0.1127717 α      in ANC's #5, #4, #3, ...

........................................................................
.............................. CYCLE   47 ..............................
........................................................................
   1   -451.2645064 -0.451265E+03  0.239E-02    1.25       0.0  T
   2   -451.2645071 -0.760246E-06  0.135E-02    1.25       1.0  T
   3   -451.2645049  0.224791E-05  0.379E-03    1.25       1.8  T
   4   -451.2645074 -0.249000E-05  0.154E-03    1.25       4.3  T
   5   -451.2645074 -0.608889E-07  0.942E-04    1.25       7.1  T
   6   -451.2645076 -0.153936E-06  0.526E-04    1.25      12.7  T
     SCC iter.                  ...        0 min,  0.440 sec
     gradient                   ...        0 min,  0.197 sec
 * total energy  :  -445.8495628 Eh     change       -0.9863493E-04 Eh
   gradient norm :     0.0051047 Eh/α   predicted    -0.6677307E-04 ( -32.30%)
   displ. norm   :     0.4307842 α      lambda       -0.1535379E-03
   maximum displ.:     0.1557425 α      in ANC's #5, #4, #3, ...

........................................................................
.............................. CYCLE   48 ..............................
........................................................................
   1   -451.2646376 -0.451265E+03  0.295E-02    1.25       0.0  T
   2   -451.2646387 -0.105081E-05  0.167E-02    1.25       1.0  T
   3   -451.2646355  0.316629E-05  0.432E-03    1.25       1.5  T
   4   -451.2646390 -0.343553E-05  0.179E-03    1.25       3.7  T
   5   -451.2646391 -0.153164E-06  0.101E-03    1.25       6.6  T
   6   -451.2646393 -0.179727E-06  0.512E-04    1.25      13.0  T
   7   -451.2646393 -0.256357E-07  0.380E-04    1.25      17.5  T
     SCC iter.                  ...        0 min,  0.524 sec
     gradient                   ...        0 min,  0.198 sec
 * total energy  :  -445.8496884 Eh     change       -0.1255490E-03 Eh
   gradient norm :     0.0042120 Eh/α   predicted    -0.9101929E-04 ( -27.50%)
   displ. norm   :     0.4794858 α      lambda       -0.1634365E-03
   maximum displ.:     0.1796040 α      in ANC's #5, #4, #3, ...

........................................................................
.............................. CYCLE   49 ..............................
........................................................................
   1   -451.2656094 -0.451266E+03  0.304E-02    1.25       0.0  T
   2   -451.2656106 -0.119538E-05  0.172E-02    1.25       1.0  T
   3   -451.2656049  0.573619E-05  0.541E-03    1.25       1.2  T
   4   -451.2656111 -0.623724E-05  0.186E-03    1.25       3.6  T
   5   -451.2656113 -0.199052E-06  0.104E-03    1.25       6.4  T
   6   -451.2656115 -0.169349E-06  0.554E-04    1.25      12.0  T
   7   -451.2656115 -0.232441E-07  0.432E-04    1.25      15.4  T
     SCC iter.                  ...        0 min,  0.519 sec
     gradient                   ...        0 min,  0.198 sec
 * total energy  :  -445.8498232 Eh     change       -0.1348141E-03 Eh
   gradient norm :     0.0027611 Eh/α   predicted    -0.1005141E-03 ( -25.44%)
   displ. norm   :     0.5084210 α      lambda       -0.1675943E-03
   maximum displ.:     0.1957746 α      in ANC's #5, #4, #3, ...

........................................................................
.............................. CYCLE   50 ..............................
........................................................................
   1   -451.2671926 -0.451267E+03  0.296E-02    1.25       0.0  T
   2   -451.2671938 -0.123849E-05  0.169E-02    1.25       1.0  T
   3   -451.2671881  0.575427E-05  0.550E-03    1.25       1.2  T
   4   -451.2671944 -0.630995E-05  0.185E-03    1.25       3.6  T
   5   -451.2671946 -0.244027E-06  0.103E-03    1.25       6.5  T
   6   -451.2671948 -0.138204E-06  0.593E-04    1.25      11.2  T
   7   -451.2671948 -0.197521E-07  0.470E-04    1.25      14.2  T
     SCC iter.                  ...        0 min,  0.517 sec
     gradient                   ...        0 min,  0.198 sec
 * total energy  :  -445.8499641 Eh     change       -0.1408844E-03 Eh
   gradient norm :     0.0031335 Eh/α   predicted    -0.1055030E-03 ( -25.11%)
   displ. norm   :     0.5446806 α      lambda       -0.1820531E-03
   maximum displ.:     0.2134376 α      in ANC's #5, #4, #3, ...

........................................................................
.............................. CYCLE   51 ..............................
........................................................................
   1   -451.2688210 -0.451269E+03  0.295E-02    1.25       0.0  T
   2   -451.2688221 -0.108724E-05  0.169E-02    1.25       1.0  T
   3   -451.2688172  0.488060E-05  0.508E-03    1.25       1.3  T
   4   -451.2688224 -0.515755E-05  0.193E-03    1.25       3.4  T
   5   -451.2688225 -0.145786E-06  0.137E-03    1.25       4.8  T
   6   -451.2688229 -0.362914E-06  0.696E-04    1.25       9.6  T
   7   -451.2688229 -0.395333E-07  0.536E-04    1.25      12.4  T
     SCC iter.                  ...        0 min,  0.515 sec
     gradient                   ...        0 min,  0.198 sec
 * total energy  :  -445.8501211 Eh     change       -0.1569841E-03 Eh
   gradient norm :     0.0049103 Eh/α   predicted    -0.1180330E-03 ( -24.81%)
   displ. norm   :     0.5912496 α      lambda       -0.2159562E-03
   maximum displ.:     0.2337499 α      in ANC's #5, #4, #3, ...

........................................................................
.............................. CYCLE   52 ..............................
........................................................................
   1   -451.2700532 -0.451270E+03  0.306E-02    1.24       0.0  T
   2   -451.2700541 -0.976830E-06  0.176E-02    1.24       1.0  T
   3   -451.2700514  0.272093E-05  0.415E-03    1.24       1.6  T
   4   -451.2700544 -0.301058E-05  0.181E-03    1.24       3.7  T
   5   -451.2700546 -0.207967E-06  0.102E-03    1.24       6.5  T
   6   -451.2700548 -0.141421E-06  0.643E-04    1.24      10.4  T
   7   -451.2700548 -0.155982E-07  0.547E-04    1.24      12.2  T
     SCC iter.                  ...        0 min,  0.517 sec
     gradient                   ...        0 min,  0.198 sec
 * total energy  :  -445.8503105 Eh     change       -0.1894107E-03 Eh
   gradient norm :     0.0061084 Eh/α   predicted    -0.1457320E-03 ( -23.06%)
   displ. norm   :     0.6363300 α      lambda       -0.2587132E-03
   maximum displ.:     0.2521629 α      in ANC's #5, #4, #3, ...

........................................................................
.............................. CYCLE   53 ..............................
........................................................................
   1   -451.2701952 -0.451270E+03  0.330E-02    1.24       0.0  T
   2   -451.2701963 -0.105977E-05  0.189E-02    1.24       1.0  T
   3   -451.2701918  0.451302E-05  0.506E-03    1.24       1.3  T
   4   -451.2701967 -0.496153E-05  0.195E-03    1.24       3.4  T
   5   -451.2701970 -0.224017E-06  0.104E-03    1.24       6.4  T
   6   -451.2701971 -0.144432E-06  0.652E-04    1.24      10.2  T
   7   -451.2701971 -0.173793E-07  0.558E-04    1.24      12.0  T
     SCC iter.                  ...        0 min,  0.518 sec
     gradient                   ...        0 min,  0.198 sec
 * total energy  :  -445.8505359 Eh     change       -0.2253875E-03 Eh
   gradient norm :     0.0057238 Eh/α   predicted    -0.1817367E-03 ( -19.37%)
   displ. norm   :     0.6647207 α      lambda       -0.2741704E-03
   maximum displ.:     0.2652803 α      in ANC's #5, #4, #3, ...

........................................................................
.............................. CYCLE   54 ..............................
........................................................................
   1   -451.2686444 -0.451269E+03  0.343E-02    1.25       0.0  T
   2   -451.2686459 -0.145116E-05  0.196E-02    1.25       1.0  T
   3   -451.2686370  0.884080E-05  0.678E-03    1.25       1.0  T
   4   -451.2686467 -0.964114E-05  0.221E-03    1.25       3.0  T
   5   -451.2686469 -0.237664E-06  0.135E-03    1.25       4.9  T
   6   -451.2686471 -0.236255E-06  0.808E-04    1.25       8.3  T
   7   -451.2686472 -0.648041E-07  0.610E-04    1.25      10.9  T
     SCC iter.                  ...        0 min,  0.513 sec
     gradient                   ...        0 min,  0.198 sec
 * total energy  :  -445.8507697 Eh     change       -0.2338576E-03 Eh
   gradient norm :     0.0039830 Eh/α   predicted    -0.1976575E-03 ( -15.48%)
   displ. norm   :     0.6672596 α      lambda       -0.2481638E-03
   maximum displ.:     0.2707703 α      in ANC's #5, #4, #3, ...

........................................................................
.............................. CYCLE   55 ..............................
........................................................................
   1   -451.2666692 -0.451267E+03  0.329E-02    1.25       0.0  T
   2   -451.2666708 -0.157391E-05  0.188E-02    1.25       1.0  T
   3   -451.2666628  0.798287E-05  0.660E-03    1.25       1.0  T
   4   -451.2666716 -0.878998E-05  0.218E-03    1.25       3.1  T
   5   -451.2666719 -0.344903E-06  0.120E-03    1.25       5.5  T
   6   -451.2666721 -0.148318E-06  0.772E-04    1.25       8.6  T
   7   -451.2666721 -0.355806E-07  0.625E-04    1.25      10.7  T
     SCC iter.                  ...        0 min,  0.508 sec
     gradient                   ...        0 min,  0.198 sec
 * total energy  :  -445.8509801 Eh     change       -0.2103388E-03 Eh
   gradient norm :     0.0032662 Eh/α   predicted    -0.1793354E-03 ( -14.74%)
   displ. norm   :     0.6603275 α      lambda       -0.2216576E-03
   maximum displ.:     0.2724889 α      in ANC's #5, #4, #3, ...

........................................................................
.............................. CYCLE   56 ..............................
........................................................................
   1   -451.2654106 -0.451265E+03  0.305E-02    1.25       0.0  T
   2   -451.2654118 -0.122823E-05  0.174E-02    1.25       1.0  T
   3   -451.2654063  0.549108E-05  0.550E-03    1.25       1.2  T
   4   -451.2654121 -0.582554E-05  0.212E-03    1.25       3.1  T
   5   -451.2654124 -0.238384E-06  0.139E-03    1.25       4.8  T
   6   -451.2654127 -0.305905E-06  0.772E-04    1.25       8.6  T
   7   -451.2654127 -0.639858E-07  0.566E-04    1.25      11.8  T
     SCC iter.                  ...        0 min,  0.522 sec
     gradient                   ...        0 min,  0.198 sec
 * total energy  :  -445.8511731 Eh     change       -0.1930482E-03 Eh
   gradient norm :     0.0042633 Eh/α   predicted    -0.1591547E-03 ( -17.56%)
   displ. norm   :     0.6579897 α      lambda       -0.2286371E-03
   maximum displ.:     0.2743126 α      in ANC's #5, #4, #3, ...

........................................................................
.............................. CYCLE   57 ..............................
........................................................................
   1   -451.2661326 -0.451266E+03  0.298E-02    1.25       0.0  T
   2   -451.2661337 -0.109312E-05  0.170E-02    1.25       1.0  T
   3   -451.2661305  0.319311E-05  0.444E-03    1.25       1.5  T
   4   -451.2661340 -0.351256E-05  0.185E-03    1.25       3.6  T
   5   -451.2661343 -0.255289E-06  0.951E-04    1.25       7.0  T
   6   -451.2661344 -0.996307E-07  0.609E-04    1.25      10.9  T
     SCC iter.                  ...        0 min,  0.449 sec
     gradient                   ...        0 min,  0.198 sec
 * total energy  :  -445.8513734 Eh     change       -0.2003121E-03 Eh
   gradient norm :     0.0048889 Eh/α   predicted    -0.1638134E-03 ( -18.22%)
   displ. norm   :     0.7126534 α      lambda       -0.2459649E-03
   maximum displ.:     0.2966859 α      in ANC's #5, #4, #3, ...

........................................................................
.............................. CYCLE   58 ..............................
........................................................................
   1   -451.2655980 -0.451266E+03  0.321E-02    1.25       0.0  T
   2   -451.2655992 -0.120928E-05  0.183E-02    1.25       1.0  T
   3   -451.2655935  0.565914E-05  0.535E-03    1.25       1.2  T
   4   -451.2655994 -0.590949E-05  0.210E-03    1.25       3.2  T
   5   -451.2655996 -0.160615E-06  0.149E-03    1.25       4.5  T
   6   -451.2656001 -0.455831E-06  0.673E-04    1.25       9.9  T
   7   -451.2656001 -0.399663E-07  0.512E-04    1.25      13.0  T
     SCC iter.                  ...        0 min,  0.516 sec
     gradient                   ...        0 min,  0.198 sec
 * total energy  :  -445.8515828 Eh     change       -0.2093962E-03 Eh
   gradient norm :     0.0048255 Eh/α   predicted    -0.1854430E-03 ( -11.44%)
   displ. norm   :     0.6479452 α      lambda       -0.2995665E-03
   maximum displ.:     0.2618049 α      in ANC's #5, #3, #4, ...

........................................................................
.............................. CYCLE   59 ..............................
........................................................................
[...]
           -------------------------------------------------

      molecular mass/u    :     2866.2102129
   center of mass at/Å    :        0.0062213      -0.3184227      -0.3073437
  moments of inertia/u·Å² :        0.1065097E+06   0.1315653E+06   0.1919580E+06
rotational constants/cm⁻¹ :        0.1582732E-03   0.1281313E-03   0.8781936E-04

 * 239 selected distances

     #   Z          #   Z                                           value/Å
     1   6 C        2   6 C                                       1.3481321
     2   6 C        3   6 C                                       1.4253355
     3   6 C        4   6 C                                       1.4043600
     5   6 C        6  16 S                                       1.7391862
     6  16 S        7   6 C                                       1.7274167
     7   6 C        8   6 C                                       1.4888239
     8   6 C        9   6 C                                       1.5311868
     7   6 C       10   6 C                                       1.3634675
    10   6 C       11  17 Cl                                      1.7138651
     5   6 C       12   6 C                                       1.3674719
    10   6 C       12   6 C                                       1.4202200
    12   6 C       13  17 Cl                                      1.7186739
     4   6 C       14   6 C                                       1.3874109
    14   6 C       15   6 C                                       1.4154977
    15   6 C       16   6 C                                       1.4051881
    17   6 C       18  16 S                                       1.7383470
    18  16 S       19   6 C                                       1.7302072
    19   6 C       20   6 C                                       1.4887193
    20   6 C       21   6 C                                       1.5307662
    19   6 C       22   6 C                                       1.3632770
    17   6 C       23   6 C                                       1.3683568
    22   6 C       23   6 C                                       1.4198635
    23   6 C       24  17 Cl                                      1.7172997
    22   6 C       25  17 Cl                                      1.7167248
     3   6 C       26   6 C                                       1.4151964
    16   6 C       26   6 C                                       1.3906412
     1   6 C       27  16 S                                       1.7299740
    26   6 C       27  16 S                                       1.7414442
    15   6 C       28   6 C                                       1.4174952
    28   6 C       29   6 C                                       1.3648220
    14   6 C       30  16 S                                       1.7354701
    29   6 C       30  16 S                                       1.7570842
    29   6 C       31   6 C                                       1.4227888
    31   6 C       32   6 C                                       1.3974107
    32   6 C       33   6 C                                       1.4339239
    33   6 C       34   6 C                                       1.4100891
    34   6 C       35   6 C                                       1.3648020
    35   6 C       36   6 C                                       1.4097871
    32   6 C       37   6 C                                       1.4107622
    36   6 C       37   6 C                                       1.3642712
    33   6 C       38   6 C                                       1.3995881
    31   6 C       39  16 S                                       1.7251098
    38   6 C       39  16 S                                       1.7323729
    38   6 C       40   6 C                                       1.4185610
    40   6 C       41   6 C                                       1.3693495
    41   6 C       42   6 C                                       1.4081535
    42   6 C       43   6 C                                       1.4056963
    44   6 C       45  16 S                                       1.7356764
    45  16 S       46   6 C                                       1.7321975
    46   6 C       47   6 C                                       1.4887680
    47   6 C       48   6 C                                       1.5312002
    46   6 C       49   6 C                                       1.3632335
    49   6 C       50  17 Cl                                      1.7168639
    44   6 C       51   6 C                                       1.3682291
    49   6 C       51   6 C                                       1.4186856
    51   6 C       52  17 Cl                                      1.7137796
    43   6 C       53   6 C                                       1.3845103
    53   6 C       54   6 C                                       1.4181904
    54   6 C       55   6 C                                       1.4093798
    56   6 C       57  16 S                                       1.7386873
    57  16 S       58   6 C                                       1.7299073
    58   6 C       59   6 C                                       1.4886079
    59   6 C       60   6 C                                       1.5307411
    58   6 C       61   6 C                                       1.3633561
    56   6 C       62   6 C                                       1.3693181
    61   6 C       62   6 C                                       1.4199402
    62   6 C       63  17 Cl                                      1.7163717
    61   6 C       64  17 Cl                                      1.7162252
    42   6 C       65   6 C                                       1.4146111
    55   6 C       65   6 C                                       1.3888001
    40   6 C       66  16 S                                       1.7559893
    65   6 C       66  16 S                                       1.7448214
    54   6 C       67   6 C                                       1.4193387
    67   6 C       68   6 C                                       1.3614123
    53   6 C       69  16 S                                       1.7395514
    68   6 C       70   6 C                                       1.4318196
    70   6 C       71   6 C                                       1.3629371
    71   6 C       72   6 C                                       1.4186896
    72   6 C       73   6 C                                       1.4123850
    74   6 C       75  16 S                                       1.7396914
    75  16 S       76   6 C                                       1.7296905
    76   6 C       77   6 C                                       1.4882365
    77   6 C       78   6 C                                       1.5307528
    76   6 C       79   6 C                                       1.3638585
    79   6 C       80  17 Cl                                      1.7164230
    74   6 C       81   6 C                                       1.3734773
    79   6 C       81   6 C                                       1.4181931
    81   6 C       82  17 Cl                                      1.7151340
    73   6 C       83   6 C                                       1.3917395
    83   6 C       84   6 C                                       1.4172385
    84   6 C       85   6 C                                       1.4030551
    86   6 C       87  16 S                                       1.7322606
    87  16 S       88   6 C                                       1.7320497
    88   6 C       89   6 C                                       1.4889858
    89   6 C       90   6 C                                       1.5306333
    88   6 C       91   6 C                                       1.3629350
    86   6 C       92   6 C                                       1.3640812
    91   6 C       92   6 C                                       1.4207970
    92   6 C       93  17 Cl                                      1.7183790
    91   6 C       94  17 Cl                                      1.7155337
    72   6 C       95   6 C                                       1.4140800
    85   6 C       95   6 C                                       1.3843557
    95   6 C       96  16 S                                       1.7454772
    84   6 C       97   6 C                                       1.4184459
    97   6 C       98   6 C                                       1.3633567
    83   6 C       99  16 S                                       1.7456560
    98   6 C       99  16 S                                       1.7645608 (max)
    98   6 C      100   6 C                                       1.4368513
   100   6 C      101   6 C                                       1.3657724
   101   6 C      102   6 C                                       1.4120230
   102   6 C      103   6 C                                       1.4052895
   104   6 C      105  16 S                                       1.7394039
   105  16 S      106   6 C                                       1.7314546
   106   6 C      107   6 C                                       1.4885225
   107   6 C      108   6 C                                       1.5291876
   106   6 C      109   6 C                                       1.3629280
   109   6 C      110  17 Cl                                      1.7144758
   104   6 C      111   6 C                                       1.3673837
   109   6 C      111   6 C                                       1.4205504
   111   6 C      112  17 Cl                                      1.7149740
   103   6 C      113   6 C                                       1.3865765
   113   6 C      114   6 C                                       1.4163447
   114   6 C      115   6 C                                       1.4097973
   116   6 C      117  16 S                                       1.7386927
   117  16 S      118   6 C                                       1.7303920
   118   6 C      119   6 C                                       1.4885499
   119   6 C      120   6 C                                       1.5305491
   118   6 C      121   6 C                                       1.3632718
   116   6 C      122   6 C                                       1.3694057
   121   6 C      122   6 C                                       1.4199225
   122   6 C      123  17 Cl                                      1.7163197
   121   6 C      124  17 Cl                                      1.7159251
   102   6 C      125   6 C                                       1.4150400
   115   6 C      125   6 C                                       1.3905983
   100   6 C      126  16 S                                       1.7500052
   125   6 C      126  16 S                                       1.7485750
   114   6 C      127   6 C                                       1.4189207
   127   6 C      128   6 C                                       1.3622645
   113   6 C      129  16 S                                       1.7379713
   128   6 C      129  16 S                                       1.7501355
   128   6 C      130   6 C                                       1.4284042
   130   6 C      131   6 C                                       1.3622754
   131   6 C      132   6 C                                       1.4167041
   132   6 C      133   6 C                                       1.4029504
   134   6 C      135  16 S                                       1.7381214
   135  16 S      136   6 C                                       1.7321675
   136   6 C      137   6 C                                       1.4882346
   137   6 C      138   6 C                                       1.5286879
   136   6 C      139   6 C                                       1.3617754
   139   6 C      140  17 Cl                                      1.7156866
   134   6 C      141   6 C                                       1.3664846
   139   6 C      141   6 C                                       1.4208687
   141   6 C      142  17 Cl                                      1.7111461
   133   6 C      143   6 C                                       1.3893478
   143   6 C      144   6 C                                       1.4155931
   144   6 C      145   6 C                                       1.4031475
   146   6 C      147  16 S                                       1.7390425
   147  16 S      148   6 C                                       1.7307131
   148   6 C      149   6 C                                       1.4887045
   149   6 C      150   6 C                                       1.5306698
   148   6 C      151   6 C                                       1.3624678
   146   6 C      152   6 C                                       1.3666124
   151   6 C      152   6 C                                       1.4211519
   152   6 C      153  17 Cl                                      1.7134305
   151   6 C      154  17 Cl                                      1.7158704
   132   6 C      155   6 C                                       1.4172017
   145   6 C      155   6 C                                       1.3891998
   130   6 C      156  16 S                                       1.7484492
   155   6 C      156  16 S                                       1.7409515
   144   6 C      157   6 C                                       1.4248540
   157   6 C      158   6 C                                       1.3492966
   143   6 C      159  16 S                                       1.7366424
   158   6 C      159  16 S                                       1.7256428
     1   6 C      160   1 H                                       1.0724190 (min)
     2   6 C      161   1 H                                       1.0739434
     8   6 C      162   1 H                                       1.0922103
     8   6 C      163   1 H                                       1.0908157
     9   6 C      164   1 H                                       1.0867362
     9   6 C      165   1 H                                       1.0872550
     9   6 C      166   1 H                                       1.0866157
    20   6 C      167   1 H                                       1.0916069
    20   6 C      168   1 H                                       1.0911942
    21   6 C      169   1 H                                       1.0865278
    21   6 C      170   1 H                                       1.0873945
    21   6 C      171   1 H                                       1.0871441
    28   6 C      172   1 H                                       1.0735590
    34   6 C      173   1 H                                       1.0785679
    35   6 C      174   1 H                                       1.0794994
    36   6 C      175   1 H                                       1.0795401
    37   6 C      176   1 H                                       1.0779812
    41   6 C      177   1 H                                       1.0750707
    47   6 C      178   1 H                                       1.0922450
    47   6 C      179   1 H                                       1.0910069
    48   6 C      180   1 H                                       1.0865744
    48   6 C      181   1 H                                       1.0865624
    48   6 C      182   1 H                                       1.0874574
    59   6 C      183   1 H                                       1.0912998
    59   6 C      184   1 H                                       1.0916158
    60   6 C      185   1 H                                       1.0865860
    60   6 C      186   1 H                                       1.0874162
    60   6 C      187   1 H                                       1.0870748
    67   6 C      188   1 H                                       1.0752031
    71   6 C      189   1 H                                       1.0756480
    77   6 C      190   1 H                                       1.0912029
    77   6 C      191   1 H                                       1.0914421
    78   6 C      192   1 H                                       1.0870178
    78   6 C      193   1 H                                       1.0873690
    78   6 C      194   1 H                                       1.0865599
    89   6 C      195   1 H                                       1.0911220
    89   6 C      196   1 H                                       1.0917162
    90   6 C      197   1 H                                       1.0869942
    90   6 C      198   1 H                                       1.0865742
    90   6 C      199   1 H                                       1.0874121
    97   6 C      200   1 H                                       1.0745133
   101   6 C      201   1 H                                       1.0738245
   107   6 C      202   1 H                                       1.0928848
   107   6 C      203   1 H                                       1.0912584
   108   6 C      204   1 H                                       1.0869564
   108   6 C      205   1 H                                       1.0876258
   108   6 C      206   1 H                                       1.0873048
   119   6 C      207   1 H                                       1.0913823
   119   6 C      208   1 H                                       1.0913936
   120   6 C      209   1 H                                       1.0873975
   120   6 C      210   1 H                                       1.0870443
   120   6 C      211   1 H                                       1.0866210
   127   6 C      212   1 H                                       1.0748727
   131   6 C      213   1 H                                       1.0750660
   137   6 C      214   1 H                                       1.0930291
   137   6 C      215   1 H                                       1.0916538
   138   6 C      216   1 H                                       1.0874592
   138   6 C      217   1 H                                       1.0871647
   138   6 C      218   1 H                                       1.0876758
   149   6 C      219   1 H                                       1.0914022
   149   6 C      220   1 H                                       1.0916361
   150   6 C      221   1 H                                       1.0866053
   150   6 C      222   1 H                                       1.0869742
   150   6 C      223   1 H                                       1.0874630
   157   6 C      224   1 H                                       1.0743156
   158   6 C      225   1 H                                       1.0726405

 * 4 distinct bonds (by element types)

   Z      Z             #   av. dist./Å        max./Å        min./Å
   1 H    6 C          66     1.0856113     1.0930291     1.0724190
   6 C    6 C         113     1.4152582     1.5312002     1.3481321
   6 C   16 S          40     1.7385297     1.7645608     1.7251098
   6 C   17 Cl         20     1.7156551     1.7186739     1.7111461


optimized geometry written to: xtbopt.mol


           -------------------------------------------------
          | TOTAL ENERGY             -445.867653941339 Eh   |
          | GRADIENT NORM               0.000411443708 Eh/α |
          | HOMO-LUMO GAP               1.234291835925 eV   |
           -------------------------------------------------

------------------------------------------------------------------------
 * finished run on 2022/03/01 at 14:42:58.222     
------------------------------------------------------------------------
 total:
 * wall-time:     0 d,  0 h,  4 min, 16.882 sec
 *  cpu-time:     0 d,  0 h, 34 min,  8.802 sec
 * ratio c/w:     7.976 speedup
 SCF:
 * wall-time:     0 d,  0 h,  0 min,  1.626 sec
 *  cpu-time:     0 d,  0 h,  0 min, 12.985 sec
 * ratio c/w:     7.988 speedup
 ANC optimizer:
 * wall-time:     0 d,  0 h,  4 min, 14.332 sec
 *  cpu-time:     0 d,  0 h, 33 min, 53.813 sec
 * ratio c/w:     7.997 speedup

