      -----------------------------------------------------------      
     |                   =====================                   |     
     |                           x T B                           |     
     |                   =====================                   |     
     |                         S. Grimme                         |     
     |          Mulliken Center for Theoretical Chemistry        |     
     |                    University of Bonn                     |     
      -----------------------------------------------------------      

   * xtb version 6.4.1 (unknown) compiled by 'oda6@login1.crc.pitt.edu' on 2021-06-25

   xtb is free software: you can redistribute it and/or modify it under
   the terms of the GNU Lesser General Public License as published by
   the Free Software Foundation, either version 3 of the License, or
   (at your option) any later version.
   
   xtb is distributed in the hope that it will be useful,
   but WITHOUT ANY WARRANTY; without even the implied warranty of
   MERCHANTABILITY or FITNESS FOR A PARTICULAR PURPOSE.  See the
   GNU Lesser General Public License for more details.
   
   Cite this work as:
   * C. Bannwarth, E. Caldeweyher, S. Ehlert, A. Hansen, P. Pracht,
     J. Seibert, S. Spicher, S. Grimme, WIREs Comput. Mol. Sci., 2020, 11,
     e01493. DOI: 10.1002/wcms.1493
   
   for GFN2-xTB:
   * C. Bannwarth, S. Ehlert and S. Grimme., J. Chem. Theory Comput., 2019,
     15, 1652-1671. DOI: 10.1021/acs.jctc.8b01176
   for GFN1-xTB:
   * S. Grimme, C. Bannwarth, P. Shushkov, J. Chem. Theory Comput., 2017,
     13, 1989-2009. DOI: 10.1021/acs.jctc.7b00118
   for GFN0-xTB:
   * P. Pracht, E. Caldeweyher, S. Ehlert, S. Grimme, ChemRxiv, 2019, preprint.
     DOI: 10.26434/chemrxiv.8326202.v1
   for GFN-FF:
   * S. Spicher and S. Grimme, Angew. Chem. Int. Ed., 2020, 59, 15665-15673.
     DOI: 10.1002/anie.202004239
   
   for DFT-D4:
   * E. Caldeweyher, C. Bannwarth and S. Grimme, J. Chem. Phys., 2017,
     147, 034112. DOI: 10.1063/1.4993215
   * E. Caldeweyher, S. Ehlert, A. Hansen, H. Neugebauer, S. Spicher,
     C. Bannwarth and S. Grimme, J. Chem. Phys., 2019, 150, 154122.
     DOI: 10.1063/1.5090222
   * E. Caldeweyher, J.-M. Mewes, S. Ehlert and S. Grimme, Phys. Chem. Chem. Phys.
     2020, 22, 8499-8512. DOI: 10.1039/D0CP00502A
   
   for sTDA-xTB:
   * S. Grimme and C. Bannwarth, J. Chem. Phys., 2016, 145, 054103.
     DOI: 10.1063/1.4959605
   
   in the mass-spec context:
   * V. Asgeirsson, C. Bauer and S. Grimme, Chem. Sci., 2017, 8, 4879.
     DOI: 10.1039/c7sc00601b
   * J. Koopman and S. Grimme, ACS Omega 2019, 4, 12, 15120-15133.
     DOI: 10.1021/acsomega.9b02011
   
   for metadynamics refer to:
   * S. Grimme, J. Chem. Theory Comput., 2019, 155, 2847-2862
     DOI: 10.1021/acs.jctc.9b00143
   
   for SPH calculations refer to:
   * S. Spicher and S. Grimme, J. Chem. Theory Comput., 2021, 17, 1701-1714
     DOI: 10.1021/acs.jctc.0c01306
   
   with help from (in alphabetical order)
   P. Atkinson, C. Bannwarth, F. Bohle, G. Brandenburg, E. Caldeweyher
   M. Checinski, S. Dohm, S. Ehlert, S. Ehrlich, I. Gerasimov, J. Koopman
   C. Lavigne, S. Lehtola, F. März, M. Müller, F. Musil, H. Neugebauer
   J. Pisarek, C. Plett, P. Pracht, J. Seibert, P. Shushkov, S. Spicher
   M. Stahn, M. Steiner, T. Strunk, J. Stückrath, T. Rose, and J. Unsleber
   
 * started run on 2022/03/04 at 03:04:07.798     

           -------------------------------------------------
          |                Calculation Setup                |
           -------------------------------------------------

          program call               : /ihome/ghutchison/oda6/xtb/xtb-641/bin/xtb ../../FF_optimized/750_99_100111.mol -opt
          hostname                   : smp-n90
          coordinate file            : ../../FF_optimized/750_99_100111.mol
          omp threads                :                     8
          number of atoms            :                   242
          number of electrons        :                   782
          charge                     :                     0
          spin                       :                   0.0
          first test random number   :      0.24403215141163

   ID    Z sym.   atoms
    1    6 C      1-8, 10-12, 14-21, 23-26, 28, 30, 31, 33, 35-39, 43-46,
                  48-52, 56-66, 68-70, 72-79, 81-84, 86, 88, 89, 91-98,
                  100-102, 104-111, 113-116, 118, 120, 121, 123-130, 132-134,
                  136-143, 145-148, 150, 152, 153
    2   16 S      9, 22, 29, 32, 34, 47, 67, 80, 87, 90, 99, 112, 119, 122,
                  131, 144, 151, 154
    3    9 F      13, 27, 40-42, 53-55, 71, 85, 103, 117, 135, 149
    4    1 H      155-242
########################################################################
[WARNING] Please study the warnings concerning your input carefully
-1- prog_main_parseArguments: the use of '-opt' is discouraged, please use '--opt' next time
########################################################################

           -------------------------------------------------
          |                 G F N 2 - x T B                 |
           -------------------------------------------------

        Reference                      10.1021/acs.jctc.8b01176
      * Hamiltonian:
        H0-scaling (s, p, d)           1.850000    2.230000    2.230000
        zeta-weighting                 0.500000
      * Dispersion:
        s8                             2.700000
        a1                             0.520000
        a2                             5.000000
        s9                             5.000000
      * Repulsion:
        kExp                           1.500000    1.000000
        rExp                           1.000000
      * Coulomb:
        alpha                          2.000000
        third order                    shell-resolved
        anisotropic                    true
        a3                             3.000000
        a5                             4.000000
        cn-shift                       1.200000
        cn-exp                         4.000000
        max-rad                        5.000000


          ...................................................
          :                      SETUP                      :
          :.................................................:
          :  # basis functions                 812          :
          :  # atomic orbitals                 794          :
          :  # shells                          414          :
          :  # electrons                       782          :
          :  max. iterations                   250          :
          :  Hamiltonian                  GFN2-xTB          :
          :  restarted?                      false          :
          :  GBSA solvation                  false          :
          :  PC potential                    false          :
          :  electronic temp.          300.0000000     K    :
          :  accuracy                    1.0000000          :
          :  -> integral cutoff          0.2500000E+02      :
          :  -> integral neglect         0.1000000E-07      :
          :  -> SCF convergence          0.1000000E-05 Eh   :
          :  -> wf. convergence          0.1000000E-03 e    :
          :  Broyden damping             0.4000000          :
          ...................................................

 iter      E             dE          RMSdq      gap      omega  full diag
   1   -435.7643753 -0.435764E+03  0.455E+00    1.58       0.0  T
   2   -436.1987073 -0.434332E+00  0.266E+00    1.50       1.0  T
   3   -436.0426759  0.156031E+00  0.125E+00    1.08       1.0  T
   4   -436.2457706 -0.203095E+00  0.570E-01    1.07       1.0  T
   5   -436.2936096 -0.478390E-01  0.222E-01    1.04       1.0  T
   6   -436.2963906 -0.278100E-02  0.102E-01    1.05       1.0  T
   7   -436.2974200 -0.102942E-02  0.446E-02    1.06       1.0  T
   8   -436.2976405 -0.220497E-03  0.242E-02    1.07       1.0  T
   9   -436.2977065 -0.660135E-04  0.132E-02    1.07       1.0  T
  10   -436.2977219 -0.154225E-04  0.525E-03    1.07       1.2  T
  11   -436.2977248 -0.285010E-05  0.278E-03    1.07       2.3  T
  12   -436.2977258 -0.980902E-06  0.135E-03    1.07       4.8  T
  13   -436.2977260 -0.196545E-06  0.602E-04    1.07      10.7  T
  14   -436.2977260 -0.245969E-07  0.328E-04    1.07      19.6  T

   *** convergence criteria satisfied after 14 iterations ***

         #    Occupation            Energy/Eh            Energy/eV
      -------------------------------------------------------------
         1        2.0000           -0.8791828             -23.9238
       ...           ...                  ...                  ...
       385        2.0000           -0.3660584              -9.9610
       386        2.0000           -0.3655991              -9.9485
       387        2.0000           -0.3653550              -9.9418
       388        2.0000           -0.3635267              -9.8921
       389        2.0000           -0.3602530              -9.8030
       390        2.0000           -0.3590367              -9.7699
       391        2.0000           -0.3550751              -9.6621 (HOMO)
       392                         -0.3156750              -8.5900 (LUMO)
       393                         -0.3060352              -8.3276
       394                         -0.2997302              -8.1561
       395                         -0.2903851              -7.9018
       396                         -0.2820458              -7.6749
       ...                                ...                  ...
       794                          0.7737763              21.0555
      -------------------------------------------------------------
                  HL-Gap            0.0394000 Eh            1.0721 eV
             Fermi-level           -0.3353657 Eh           -9.1258 eV

 SCC (total)                   0 d,  0 h,  0 min,  1.143 sec
 SCC setup                      ...        0 min,  0.004 sec (  0.345%)
 Dispersion                     ...        0 min,  0.013 sec (  1.121%)
 classical contributions        ...        0 min,  0.001 sec (  0.047%)
 integral evaluation            ...        0 min,  0.057 sec (  4.945%)
 iterations                     ...        0 min,  0.842 sec ( 73.601%)
 molecular gradient             ...        0 min,  0.221 sec ( 19.367%)
 printout                       ...        0 min,  0.006 sec (  0.565%)

         :::::::::::::::::::::::::::::::::::::::::::::::::::::
         ::                     SUMMARY                     ::
         :::::::::::::::::::::::::::::::::::::::::::::::::::::
         :: total energy            -430.851351598411 Eh    ::
         :: gradient norm              0.348283795680 Eh/a0 ::
         :: HOMO-LUMO gap              1.072129445918 eV    ::
         ::.................................................::
         :: SCC energy              -436.297726001323 Eh    ::
         :: -> isotropic ES            0.204973836279 Eh    ::
         :: -> anisotropic ES          0.026279535794 Eh    ::
         :: -> anisotropic XC          0.124615335843 Eh    ::
         :: -> dispersion             -0.403735121689 Eh    ::
         :: repulsion energy           5.434331235310 Eh    ::
         :: add. restraining           0.000000000000 Eh    ::
         :: total charge               0.000000000039 e     ::
         :::::::::::::::::::::::::::::::::::::::::::::::::::::

      ----------------------------------------------------------- 
     |                   =====================                   |
     |                        A N C O P T                        |
     |                   =====================                   |
     |               Approximate Normal Coordinate               |
     |                Rational Function Optimizer                |
      ----------------------------------------------------------- 

          ...................................................
          :                      SETUP                      :
          :.................................................:
          :   optimization level            normal          :
          :   max. optcycles                   726          :
          :   ANC micro-cycles                  20          :
          :   degrees of freedom               720          :
          :.................................................:
          :   RF solver                   davidson          :
          :   write xtbopt.log                true          :
          :   linear?                        false          :
          :   energy convergence         0.5000000E-05 Eh   :
          :   grad. convergence          0.1000000E-02 Eh/α :
          :   maximium RF displ.         1.0000000          :
          :   Hlow (freq-cutoff)         0.1000000E-01      :
          :   Hmax (freq-cutoff)         5.0000000          :
          :   S6 in model hess.         20.0000000          :
          ...................................................

generating ANC from model Hessian ...
Using Lindh-Hessian (1995)
 Shifting diagonal of input Hessian by   1.000264860647978E-002
 Lowest  eigenvalues of input Hessian
    0.010000    0.000000    0.000000    0.000000    0.000000    0.000000
    0.000000    0.010008    0.010018    0.010023    0.010038    0.010045
    0.010049    0.010054    0.010082    0.010097    0.010099    0.010110
 Highest eigenvalues
    2.051161    2.054120    2.083580    2.095430    2.095437    2.099362
 

........................................................................
.............................. CYCLE    1 ..............................
........................................................................
   1   -436.2977260 -0.436298E+03  0.160E-04    1.07       0.0  T
   2   -436.2977260  0.700368E-09  0.140E-04    1.07      46.0  T
   3   -436.2977260 -0.420209E-08  0.655E-05    1.07      98.2  T
     SCC iter.                  ...        0 min,  0.186 sec
     gradient                   ...        0 min,  0.216 sec
 * total energy  :  -430.8513516 Eh     change       -0.1520124E-07 Eh
   gradient norm :     0.3482843 Eh/α   predicted     0.0000000E+00 (-100.00%)
   displ. norm   :     0.4767908 α      lambda       -0.1262270E+00
   maximum displ.:     0.0961103 α      in ANC's #434, #386, #453, ...

........................................................................
.............................. CYCLE    2 ..............................
........................................................................
   1   -436.5357767 -0.436536E+03  0.244E-01    1.05       0.0  T
   2   -436.5366476 -0.870851E-03  0.141E-01    1.04       1.0  T
   3   -436.5361569  0.490693E-03  0.712E-02    1.06       1.0  T
   4   -436.5369004 -0.743467E-03  0.280E-02    1.07       1.0  T
   5   -436.5370068 -0.106406E-03  0.112E-02    1.06       1.0  T
   6   -436.5370200 -0.132615E-04  0.515E-03    1.06       1.2  T
   7   -436.5370244 -0.438181E-05  0.199E-03    1.06       3.2  T
   8   -436.5370250 -0.602441E-06  0.972E-04    1.06       6.6  T
   9   -436.5370251 -0.618427E-07  0.433E-04    1.06      14.9  T
     SCC iter.                  ...        0 min,  0.540 sec
     gradient                   ...        0 min,  0.218 sec
 * total energy  :  -430.9463794 Eh     change       -0.9502778E-01 Eh
   gradient norm :     0.1856922 Eh/α   predicted    -0.7748415E-01 ( -18.46%)
   displ. norm   :     0.4445527 α      lambda       -0.6068271E-01
   maximum displ.:     0.0702126 α      in ANC's #434, #386, #381, ...

........................................................................
.............................. CYCLE    3 ..............................
........................................................................
   1   -436.7073828 -0.436707E+03  0.219E-01    1.04       0.0  T
   2   -436.7084219 -0.103913E-02  0.122E-01    1.02       1.0  T
   3   -436.7082150  0.206897E-03  0.620E-02    1.05       1.0  T
   4   -436.7085902 -0.375216E-03  0.302E-02    1.05       1.0  T
   5   -436.7087345 -0.144276E-03  0.101E-02    1.05       1.0  T
   6   -436.7087400 -0.545154E-05  0.522E-03    1.05       1.2  T
   7   -436.7087449 -0.492858E-05  0.172E-03    1.05       3.7  T
   8   -436.7087453 -0.401078E-06  0.885E-04    1.05       7.3  T
   9   -436.7087454 -0.537150E-07  0.391E-04    1.05      16.4  T
     SCC iter.                  ...        0 min,  0.545 sec
     gradient                   ...        0 min,  0.217 sec
 * total energy  :  -430.9840133 Eh     change       -0.3763390E-01 Eh
   gradient norm :     0.0504859 Eh/α   predicted    -0.3634333E-01 (  -3.43%)
   displ. norm   :     0.4315129 α      lambda       -0.1034284E-01
   maximum displ.:     0.0935550 α      in ANC's #133, #143, #70, ...

........................................................................
.............................. CYCLE    4 ..............................
........................................................................
   1   -436.7502938 -0.436750E+03  0.998E-02    1.04       0.0  T
   2   -436.7504040 -0.110192E-03  0.547E-02    1.03       1.0  T
   3   -436.7503446  0.594043E-04  0.235E-02    1.04       1.0  T
   4   -436.7504117 -0.671865E-04  0.115E-02    1.04       1.0  T
   5   -436.7504332 -0.214449E-04  0.396E-03    1.04       1.6  T
   6   -436.7504337 -0.517360E-06  0.175E-03    1.04       3.7  T
   7   -436.7504343 -0.632447E-06  0.610E-04    1.04      10.5  T
   8   -436.7504344 -0.274248E-07  0.377E-04    1.04      17.0  T
     SCC iter.                  ...        0 min,  0.475 sec
     gradient                   ...        0 min,  0.219 sec
 * total energy  :  -430.9911046 Eh     change       -0.7091259E-02 Eh
   gradient norm :     0.0197519 Eh/α   predicted    -0.6134389E-02 ( -13.49%)
   displ. norm   :     0.4593544 α      lambda       -0.4083366E-02
   maximum displ.:     0.1083129 α      in ANC's #70, #133, #81, ...

........................................................................
.............................. CYCLE    5 ..............................
........................................................................
   1   -436.7690534 -0.436769E+03  0.684E-02    1.03       0.0  T
   2   -436.7690712 -0.177919E-04  0.374E-02    1.03       1.0  T
   3   -436.7690397  0.315518E-04  0.138E-02    1.04       1.0  T
   4   -436.7690733 -0.335807E-04  0.615E-03    1.04       1.0  T
   5   -436.7690779 -0.465443E-05  0.248E-03    1.04       2.6  T
   6   -436.7690785 -0.566578E-06  0.956E-04    1.04       6.7  T
   7   -436.7690787 -0.190426E-06  0.383E-04    1.04      16.8  T
     SCC iter.                  ...        0 min,  0.416 sec
     gradient                   ...        0 min,  0.217 sec
 * total energy  :  -430.9940402 Eh     change       -0.2935619E-02 Eh
   gradient norm :     0.0119082 Eh/α   predicted    -0.2472493E-02 ( -15.78%)
   displ. norm   :     0.4764350 α      lambda       -0.2179908E-02
   maximum displ.:     0.1184230 α      in ANC's #70, #57, #62, ...

........................................................................
.............................. CYCLE    6 ..............................
........................................................................
   1   -436.7804834 -0.436780E+03  0.615E-02    1.04       0.0  T
   2   -436.7804912 -0.783008E-05  0.336E-02    1.04       1.0  T
   3   -436.7804645  0.267198E-04  0.124E-02    1.04       1.0  T
   4   -436.7804944 -0.299553E-04  0.457E-03    1.04       1.4  T
   5   -436.7804954 -0.100597E-05  0.214E-03    1.04       3.0  T
   6   -436.7804964 -0.966591E-06  0.545E-04    1.04      11.8  T
   7   -436.7804965 -0.399585E-07  0.297E-04    1.04      21.6  T
     SCC iter.                  ...        0 min,  0.429 sec
     gradient                   ...        0 min,  0.217 sec
 * total energy  :  -430.9956895 Eh     change       -0.1649334E-02 Eh
   gradient norm :     0.0115955 Eh/α   predicted    -0.1337365E-02 ( -18.91%)
   displ. norm   :     0.5385141 α      lambda       -0.1652291E-02
   maximum displ.:     0.1467613 α      in ANC's #57, #41, #46, ...

........................................................................
.............................. CYCLE    7 ..............................
........................................................................
   1   -436.7876551 -0.436788E+03  0.672E-02    1.04       0.0  T
   2   -436.7876648 -0.970858E-05  0.369E-02    1.05       1.0  T
   3   -436.7876364  0.284106E-04  0.130E-02    1.05       1.0  T
   4   -436.7876678 -0.313817E-04  0.491E-03    1.05       1.3  T
   5   -436.7876696 -0.179958E-05  0.219E-03    1.05       2.9  T
   6   -436.7876705 -0.921770E-06  0.633E-04    1.05      10.1  T
   7   -436.7876706 -0.698314E-07  0.291E-04    1.05      22.1  T
     SCC iter.                  ...        0 min,  0.420 sec
     gradient                   ...        0 min,  0.217 sec
 * total energy  :  -430.9970256 Eh     change       -0.1336132E-02 Eh
   gradient norm :     0.0111803 Eh/α   predicted    -0.1065767E-02 ( -20.23%)
   displ. norm   :     0.6398565 α      lambda       -0.1632741E-02
   maximum displ.:     0.1923430 α      in ANC's #41, #57, #46, ...

........................................................................
.............................. CYCLE    8 ..............................
........................................................................
   1   -436.7907246 -0.436791E+03  0.790E-02    1.05       0.0  T
   2   -436.7907379 -0.133156E-04  0.435E-02    1.06       1.0  T
   3   -436.7907053  0.326394E-04  0.140E-02    1.06       1.0  T
   4   -436.7907407 -0.354814E-04  0.572E-03    1.06       1.1  T
   5   -436.7907438 -0.306014E-05  0.233E-03    1.06       2.8  T
   6   -436.7907447 -0.932437E-06  0.756E-04    1.06       8.5  T
   7   -436.7907448 -0.109904E-06  0.325E-04    1.06      19.8  T
     SCC iter.                  ...        0 min,  0.419 sec
     gradient                   ...        0 min,  0.218 sec
 * total energy  :  -430.9984130 Eh     change       -0.1387321E-02 Eh
   gradient norm :     0.0098845 Eh/α   predicted    -0.1150630E-02 ( -17.06%)
   displ. norm   :     0.7142642 α      lambda       -0.1699882E-02
   maximum displ.:     0.2293794 α      in ANC's #41, #46, #57, ...

........................................................................
.............................. CYCLE    9 ..............................
........................................................................
   1   -436.7902243 -0.436790E+03  0.887E-02    1.06       0.0  T
   2   -436.7902393 -0.150063E-04  0.486E-02    1.07       1.0  T
   3   -436.7902100  0.293618E-04  0.139E-02    1.07       1.0  T
   4   -436.7902416 -0.316592E-04  0.626E-03    1.07       1.0  T
   5   -436.7902453 -0.372120E-05  0.229E-03    1.07       2.8  T
   6   -436.7902463 -0.930534E-06  0.751E-04    1.07       8.6  T
   7   -436.7902464 -0.986856E-07  0.349E-04    1.07      18.4  T
     SCC iter.                  ...        0 min,  0.417 sec
     gradient                   ...        0 min,  0.217 sec
 * total energy  :  -430.9998968 Eh     change       -0.1483884E-02 Eh
   gradient norm :     0.0097427 Eh/α   predicted    -0.1283572E-02 ( -13.50%)
   displ. norm   :     0.7538352 α      lambda       -0.1726564E-02
   maximum displ.:     0.2498105 α      in ANC's #41, #46, #47, ...

........................................................................
.............................. CYCLE   10 ..............................
........................................................................
   1   -436.7876668 -0.436788E+03  0.948E-02    1.07       0.0  T
   2   -436.7876830 -0.162515E-04  0.514E-02    1.08       1.0  T
   3   -436.7876626  0.203742E-04  0.131E-02    1.08       1.0  T
   4   -436.7876847 -0.221164E-04  0.649E-03    1.08       1.0  T
   5   -436.7876887 -0.397036E-05  0.208E-03    1.08       3.1  T
   6   -436.7876895 -0.830608E-06  0.701E-04    1.08       9.2  T
   7   -436.7876896 -0.729985E-07  0.340E-04    1.08      18.9  T
     SCC iter.                  ...        0 min,  0.417 sec
     gradient                   ...        0 min,  0.218 sec
 * total energy  :  -431.0014185 Eh     change       -0.1521682E-02 Eh
   gradient norm :     0.0108465 Eh/α   predicted    -0.1353872E-02 ( -11.03%)
   displ. norm   :     0.7803822 α      lambda       -0.1677650E-02
   maximum displ.:     0.2591969 α      in ANC's #41, #47, #46, ...

........................................................................
.............................. CYCLE   11 ..............................
........................................................................
   1   -436.7840025 -0.436784E+03  0.992E-02    1.08       0.0  T
   2   -436.7840224 -0.199560E-04  0.533E-02    1.09       1.0  T
   3   -436.7840058  0.166152E-04  0.131E-02    1.09       1.0  T
   4   -436.7840249 -0.190361E-04  0.666E-03    1.10       1.0  T
   5   -436.7840289 -0.407577E-05  0.184E-03    1.10       3.5  T
   6   -436.7840295 -0.545141E-06  0.799E-04    1.10       8.0  T
   7   -436.7840296 -0.117003E-06  0.334E-04    1.10      19.3  T
     SCC iter.                  ...        0 min,  0.422 sec
     gradient                   ...        0 min,  0.217 sec
 * total energy  :  -431.0029121 Eh     change       -0.1493617E-02 Eh
   gradient norm :     0.0110112 Eh/α   predicted    -0.1349673E-02 (  -9.64%)
   displ. norm   :     0.7986885 α      lambda       -0.1619510E-02
   maximum displ.:     0.2577951 α      in ANC's #41, #47, #46, ...

........................................................................
.............................. CYCLE   12 ..............................
........................................................................
   1   -436.7812123 -0.436781E+03  0.102E-01    1.09       0.0  T
   2   -436.7812367 -0.243912E-04  0.541E-02    1.10       1.0  T
   3   -436.7812162  0.205346E-04  0.141E-02    1.11       1.0  T
   4   -436.7812406 -0.244539E-04  0.695E-03    1.11       1.0  T
   5   -436.7812448 -0.418942E-05  0.183E-03    1.11       3.5  T
   6   -436.7812452 -0.396073E-06  0.882E-04    1.11       7.3  T
   7   -436.7812454 -0.155233E-06  0.355E-04    1.11      18.1  T
     SCC iter.                  ...        0 min,  0.418 sec
     gradient                   ...        0 min,  0.217 sec
 * total energy  :  -431.0043628 Eh     change       -0.1450623E-02 Eh
   gradient norm :     0.0096896 Eh/α   predicted    -0.1326313E-02 (  -8.57%)
   displ. norm   :     0.8057699 α      lambda       -0.1551181E-02
   maximum displ.:     0.2460455 α      in ANC's #47, #41, #46, ...

........................................................................
.............................. CYCLE   13 ..............................
........................................................................
   1   -436.7811660 -0.436781E+03  0.101E-01    1.10       0.0  T
   2   -436.7811926 -0.265791E-04  0.537E-02    1.12       1.0  T
   3   -436.7811673  0.252919E-04  0.148E-02    1.12       1.0  T
   4   -436.7811977 -0.304104E-04  0.710E-03    1.12       1.0  T
   5   -436.7812017 -0.403478E-05  0.201E-03    1.12       3.2  T
   6   -436.7812022 -0.474264E-06  0.981E-04    1.12       6.6  T
   7   -436.7812024 -0.209618E-06  0.368E-04    1.12      17.5  T
     SCC iter.                  ...        0 min,  0.419 sec
     gradient                   ...        0 min,  0.217 sec
 * total energy  :  -431.0057503 Eh     change       -0.1387533E-02 Eh
   gradient norm :     0.0085725 Eh/α   predicted    -0.1279164E-02 (  -7.81%)
   displ. norm   :     0.8081474 α      lambda       -0.1456593E-02
   maximum displ.:     0.2414139 α      in ANC's #47, #41, #46, ...

........................................................................
.............................. CYCLE   14 ..............................
........................................................................
   1   -436.7828132 -0.436783E+03  0.998E-02    1.12       0.0  T
   2   -436.7828396 -0.263369E-04  0.526E-02    1.12       1.0  T
   3   -436.7828115  0.280867E-04  0.152E-02    1.12       1.0  T
   4   -436.7828451 -0.336047E-04  0.710E-03    1.12       1.0  T
   5   -436.7828486 -0.352197E-05  0.237E-03    1.12       2.7  T
   6   -436.7828495 -0.897107E-06  0.105E-03    1.12       6.1  T
   7   -436.7828498 -0.254936E-06  0.371E-04    1.12      17.3  T
   8   -436.7828498 -0.702181E-08  0.214E-04    1.12      30.1  T
     SCC iter.                  ...        0 min,  0.476 sec
     gradient                   ...        0 min,  0.217 sec
 * total energy  :  -431.0070537 Eh     change       -0.1303356E-02 Eh
   gradient norm :     0.0092379 Eh/α   predicted    -0.1203965E-02 (  -7.63%)
   displ. norm   :     0.7972964 α      lambda       -0.1380805E-02
   maximum displ.:     0.2260870 α      in ANC's #47, #49, #46, ...

........................................................................
.............................. CYCLE   15 ..............................
........................................................................
   1   -436.7895261 -0.436790E+03  0.955E-02    1.12       0.0  T
   2   -436.7895514 -0.252759E-04  0.502E-02    1.13       1.0  T
   3   -436.7895181  0.332758E-04  0.155E-02    1.12       1.0  T
   4   -436.7895569 -0.388328E-04  0.705E-03    1.13       1.0  T
   5   -436.7895600 -0.310030E-05  0.289E-03    1.13       2.2  T
   6   -436.7895617 -0.166995E-05  0.997E-04    1.12       6.4  T
   7   -436.7895619 -0.211033E-06  0.372E-04    1.13      17.3  T
   8   -436.7895619 -0.831886E-08  0.220E-04    1.13      29.2  T
     SCC iter.                  ...        0 min,  0.474 sec
     gradient                   ...        0 min,  0.217 sec
 * total energy  :  -431.0082784 Eh     change       -0.1224756E-02 Eh
   gradient norm :     0.0103110 Eh/α   predicted    -0.1129280E-02 (  -7.80%)
   displ. norm   :     0.8258095 α      lambda       -0.1316065E-02
   maximum displ.:     0.2260218 α      in ANC's #47, #49, #46, ...

........................................................................
.............................. CYCLE   16 ..............................
........................................................................
   1   -436.7833675 -0.436783E+03  0.991E-02    1.12       0.0  T
   2   -436.7833971 -0.295634E-04  0.521E-02    1.13       1.0  T
   3   -436.7833561  0.410451E-04  0.173E-02    1.13       1.0  T
   4   -436.7834033 -0.472690E-04  0.749E-03    1.13       1.0  T
   5   -436.7834071 -0.373853E-05  0.335E-03    1.13       1.9  T
   6   -436.7834092 -0.209056E-05  0.109E-03    1.13       5.9  T
   7   -436.7834094 -0.238777E-06  0.418E-04    1.13      15.4  T
   8   -436.7834094 -0.170631E-07  0.236E-04    1.13      27.3  T
     SCC iter.                  ...        0 min,  0.475 sec
     gradient                   ...        0 min,  0.217 sec
 * total energy  :  -431.0094081 Eh     change       -0.1129668E-02 Eh
   gradient norm :     0.0111255 Eh/α   predicted    -0.1106788E-02 (  -2.03%)
   displ. norm   :     0.7737541 α      lambda       -0.1562102E-02
   maximum displ.:     0.1947879 α      in ANC's #52, #15, #53, ...

........................................................................
.............................. CYCLE   17 ..............................
........................................................................
   1   -436.8125975 -0.436813E+03  0.875E-02    1.13       0.0  T
   2   -436.8126261 -0.285284E-04  0.464E-02    1.14       1.0  T
   3   -436.8125626  0.634581E-04  0.184E-02    1.13       1.0  T
   4   -436.8126356 -0.729509E-04  0.705E-03    1.14       1.0  T
   5   -436.8126392 -0.367468E-05  0.343E-03    1.14       1.9  T
   6   -436.8126412 -0.190817E-05  0.114E-03    1.14       5.7  T
   7   -436.8126414 -0.259961E-06  0.434E-04    1.14      14.8  T
   8   -436.8126414 -0.195839E-07  0.242E-04    1.14      26.6  T
     SCC iter.                  ...        0 min,  0.476 sec
     gradient                   ...        0 min,  0.217 sec
 * total energy  :  -431.0104134 Eh     change       -0.1005316E-02 Eh
   gradient norm :     0.0127810 Eh/α   predicted    -0.1248665E-02 (  24.21%)
   displ. norm   :     0.7646474 α      lambda       -0.1244749E-02
   maximum displ.:     0.2204288 α      in ANC's #49, #53, #46, ...

........................................................................
.............................. CYCLE   18 ..............................
........................................................................
   1   -436.7952938 -0.436795E+03  0.900E-02    1.14       0.0  T
   2   -436.7953211 -0.272693E-04  0.471E-02    1.14       1.0  T
   3   -436.7952932  0.279103E-04  0.154E-02    1.14       1.0  T
   4   -436.7953265 -0.333221E-04  0.674E-03    1.14       1.0  T
   5   -436.7953293 -0.282584E-05  0.296E-03    1.14       2.2  T
   6   -436.7953309 -0.155019E-05  0.102E-03    1.14       6.3  T
   7   -436.7953311 -0.211563E-06  0.386E-04    1.14      16.6  T
   8   -436.7953311 -0.128039E-07  0.230E-04    1.14      27.9  T
     SCC iter.                  ...        0 min,  0.474 sec
     gradient                   ...        0 min,  0.217 sec
 * total energy  :  -431.0114370 Eh     change       -0.1023585E-02 Eh
   gradient norm :     0.0117355 Eh/α   predicted    -0.9862681E-03 (  -3.65%)
   displ. norm   :     0.6766295 α      lambda       -0.1158542E-02
   maximum displ.:     0.1933155 α      in ANC's #49, #53, #46, ...

........................................................................
.............................. CYCLE   19 ..............................
........................................................................
   1   -436.7844209 -0.436784E+03  0.767E-02    1.14       0.0  T
   2   -436.7844409 -0.199214E-04  0.406E-02    1.15       1.0  T
   3   -436.7844138  0.270977E-04  0.142E-02    1.14       1.0  T
   4   -436.7844454 -0.316753E-04  0.585E-03    1.15       1.1  T
   5   -436.7844477 -0.220239E-05  0.265E-03    1.15       2.4  T
   6   -436.7844489 -0.120854E-05  0.834E-04    1.15       7.7  T
   7   -436.7844490 -0.123274E-06  0.349E-04    1.15      18.4  T
   8   -436.7844490 -0.126956E-07  0.197E-04    1.15      32.7  T
     SCC iter.                  ...        0 min,  0.475 sec
     gradient                   ...        0 min,  0.217 sec
 * total energy  :  -431.0123710 Eh     change       -0.9340249E-03 Eh
   gradient norm :     0.0123081 Eh/α   predicted    -0.8444819E-03 (  -9.59%)
   displ. norm   :     0.6833880 α      lambda       -0.1207247E-02
   maximum displ.:     0.1979376 α      in ANC's #49, #42, #53, ...

........................................................................
.............................. CYCLE   20 ..............................
........................................................................
   1   -436.7846726 -0.436785E+03  0.750E-02    1.14       0.0  T
   2   -436.7846895 -0.169242E-04  0.394E-02    1.15       1.0  T
   3   -436.7846691  0.204610E-04  0.125E-02    1.15       1.0  T
   4   -436.7846925 -0.233895E-04  0.575E-03    1.15       1.1  T
   5   -436.7846951 -0.260381E-05  0.218E-03    1.15       2.9  T
   6   -436.7846959 -0.802548E-06  0.744E-04    1.15       8.6  T
   7   -436.7846960 -0.101567E-06  0.306E-04    1.15      21.0  T
     SCC iter.                  ...        0 min,  0.417 sec
     gradient                   ...        0 min,  0.217 sec
 * total energy  :  -431.0134042 Eh     change       -0.1033219E-02 Eh
   gradient norm :     0.0132695 Eh/α   predicted    -0.8855347E-03 ( -14.29%)
   displ. norm   :     0.6876267 α      lambda       -0.1394445E-02
   maximum displ.:     0.1954336 α      in ANC's #49, #42, #1, ...
 * RMSD in coord.:     0.6930202 α      energy gain  -0.1620526E+00 Eh

generating ANC from model Hessian ...
Using Lindh-Hessian (1995)
 Shifting diagonal of input Hessian by   1.002397849275060E-002
 Lowest  eigenvalues of input Hessian
    0.010000    0.010018    0.000000    0.000000    0.000000    0.000000
    0.000000    0.000000    0.010033    0.010038    0.010052    0.010056
    0.010071    0.010072    0.010109    0.010120    0.010126    0.010140
 Highest eigenvalues
    2.099683    2.102198    2.107135    2.109653    2.113191    2.115055
 

........................................................................
.............................. CYCLE   21 ..............................
........................................................................
   1   -436.7955348 -0.436796E+03  0.750E-02    1.14       0.0  T
   2   -436.7955519 -0.170651E-04  0.402E-02    1.15       1.0  T
   3   -436.7955284  0.234531E-04  0.129E-02    1.15       1.0  T
   4   -436.7955547 -0.262945E-04  0.581E-03    1.15       1.1  T
   5   -436.7955575 -0.283492E-05  0.231E-03    1.15       2.8  T
   6   -436.7955584 -0.865329E-06  0.790E-04    1.15       8.1  T
   7   -436.7955585 -0.113450E-06  0.340E-04    1.15      18.9  T
     SCC iter.                  ...        0 min,  0.418 sec
     gradient                   ...        0 min,  0.217 sec
 * total energy  :  -431.0144692 Eh     change       -0.1064971E-02 Eh
   gradient norm :     0.0128211 Eh/α   predicted     0.0000000E+00 (-100.00%)
   displ. norm   :     0.1517690 α      lambda       -0.4804544E-03
   maximum displ.:     0.0492605 α      in ANC's #48, #25, #39, ...

........................................................................
.............................. CYCLE   22 ..............................
........................................................................
   1   -436.7989846 -0.436799E+03  0.207E-02    1.15       0.0  T
   2   -436.7989862 -0.161139E-05  0.114E-02    1.15       1.0  T
   3   -436.7989815  0.468512E-05  0.517E-03    1.15       1.2  T
   4   -436.7989870 -0.551208E-05  0.169E-03    1.15       3.8  T
   5   -436.7989872 -0.123901E-06  0.851E-04    1.15       7.6  T
   6   -436.7989873 -0.137238E-06  0.265E-04    1.15      24.3  T
     SCC iter.                  ...        0 min,  0.359 sec
     gradient                   ...        0 min,  0.217 sec
 * total energy  :  -431.0148773 Eh     change       -0.4080646E-03 Eh
   gradient norm :     0.0066232 Eh/α   predicted    -0.2457646E-03 ( -39.77%)
   displ. norm   :     0.4924523 α      lambda       -0.1026207E-02
   maximum displ.:     0.1645619 α      in ANC's #48, #25, #39, ...

........................................................................
.............................. CYCLE   23 ..............................
........................................................................
   1   -436.8035645 -0.436804E+03  0.613E-02    1.15       0.0  T
   2   -436.8035765 -0.119997E-04  0.326E-02    1.16       1.0  T
   3   -436.8035500  0.265083E-04  0.126E-02    1.16       1.0  T
   4   -436.8035806 -0.306516E-04  0.498E-03    1.16       1.3  T
   5   -436.8035821 -0.146883E-05  0.223E-03    1.16       2.9  T
   6   -436.8035831 -0.101012E-05  0.632E-04    1.16      10.2  T
   7   -436.8035832 -0.611730E-07  0.304E-04    1.16      21.2  T
   8   -436.8035832 -0.440662E-08  0.182E-04    1.16      35.2  T
     SCC iter.                  ...        0 min,  0.474 sec
     gradient                   ...        0 min,  0.216 sec
 * total energy  :  -431.0156436 Eh     change       -0.7663152E-03 Eh
   gradient norm :     0.0084739 Eh/α   predicted    -0.6375790E-03 ( -16.80%)
   displ. norm   :     0.5577886 α      lambda       -0.7781581E-03
   maximum displ.:     0.1907706 α      in ANC's #48, #25, #39, ...

........................................................................
.............................. CYCLE   24 ..............................
........................................................................
   1   -436.8037572 -0.436804E+03  0.672E-02    1.16       0.0  T
   2   -436.8037692 -0.119131E-04  0.348E-02    1.16       1.0  T
   3   -436.8037536  0.155966E-04  0.106E-02    1.16       1.0  T
   4   -436.8037709 -0.172998E-04  0.524E-03    1.17       1.2  T
   5   -436.8037732 -0.229986E-05  0.207E-03    1.17       3.1  T
   6   -436.8037741 -0.923189E-06  0.565E-04    1.17      11.4  T
   7   -436.8037741 -0.524310E-07  0.249E-04    1.17      25.8  T
     SCC iter.                  ...        0 min,  0.416 sec
     gradient                   ...        0 min,  0.217 sec
 * total energy  :  -431.0163210 Eh     change       -0.6774620E-03 Eh
   gradient norm :     0.0155125 Eh/α   predicted    -0.5101440E-03 ( -24.70%)
   displ. norm   :     0.7278351 α      lambda       -0.1081887E-02
   maximum displ.:     0.2529312 α      in ANC's #48, #25, #39, ...

........................................................................
.............................. CYCLE   25 ..............................
........................................................................
   1   -436.8008468 -0.436801E+03  0.878E-02    1.17       0.0  T
   2   -436.8008663 -0.194528E-04  0.449E-02    1.17       1.0  T
   3   -436.8008493  0.170138E-04  0.123E-02    1.18       1.0  T
   4   -436.8008676 -0.183742E-04  0.658E-03    1.18       1.0  T
   5   -436.8008718 -0.418418E-05  0.246E-03    1.18       2.6  T
   6   -436.8008731 -0.129432E-05  0.714E-04    1.18       9.0  T
   7   -436.8008732 -0.928904E-07  0.290E-04    1.18      22.2  T
   8   -436.8008732 -0.284052E-08  0.179E-04    1.18      35.9  T
     SCC iter.                  ...        0 min,  0.471 sec
     gradient                   ...        0 min,  0.217 sec
 * total energy  :  -431.0173081 Eh     change       -0.9870854E-03 Eh
   gradient norm :     0.0181508 Eh/α   predicted    -0.8275064E-03 ( -16.17%)
   displ. norm   :     0.7387456 α      lambda       -0.1413558E-02
   maximum displ.:     0.2581107 α      in ANC's #48, #25, #1, ...

........................................................................
.............................. CYCLE   26 ..............................
........................................................................
   1   -436.7985613 -0.436799E+03  0.906E-02    1.18       0.0  T
   2   -436.7985838 -0.225305E-04  0.463E-02    1.19       1.0  T
   3   -436.7985599  0.238997E-04  0.140E-02    1.19       1.0  T
   4   -436.7985876 -0.276457E-04  0.677E-03    1.19       1.0  T
   5   -436.7985907 -0.318232E-05  0.274E-03    1.19       2.3  T
   6   -436.7985922 -0.151280E-05  0.810E-04    1.19       7.9  T
   7   -436.7985924 -0.123206E-06  0.337E-04    1.19      19.1  T
   8   -436.7985924 -0.863054E-08  0.202E-04    1.19      31.9  T
     SCC iter.                  ...        0 min,  0.477 sec
     gradient                   ...        0 min,  0.217 sec
 * total energy  :  -431.0185424 Eh     change       -0.1234309E-02 Eh
   gradient norm :     0.0134923 Eh/α   predicted    -0.1092521E-02 ( -11.49%)
   displ. norm   :     0.7052416 α      lambda       -0.1370317E-02
   maximum displ.:     0.2489507 α      in ANC's #25, #48, #1, ...

........................................................................
.............................. CYCLE   27 ..............................
........................................................................
   1   -436.8001880 -0.436800E+03  0.858E-02    1.19       0.0  T
   2   -436.8002118 -0.238488E-04  0.441E-02    1.20       1.0  T
   3   -436.8001814  0.303918E-04  0.150E-02    1.20       1.0  T
   4   -436.8002173 -0.358591E-04  0.661E-03    1.20       1.0  T
   5   -436.8002198 -0.247159E-05  0.291E-03    1.20       2.2  T
   6   -436.8002214 -0.162899E-05  0.871E-04    1.20       7.4  T
   7   -436.8002215 -0.142850E-06  0.361E-04    1.20      17.8  T
   8   -436.8002216 -0.114129E-07  0.213E-04    1.20      30.2  T
     SCC iter.                  ...        0 min,  0.483 sec
     gradient                   ...        0 min,  0.218 sec
 * total energy  :  -431.0196671 Eh     change       -0.1124667E-02 Eh
   gradient norm :     0.0091902 Eh/α   predicted    -0.1025991E-02 (  -8.77%)
   displ. norm   :     0.8256799 α      lambda       -0.1157753E-02
   maximum displ.:     0.2922221 α      in ANC's #25, #48, #1, ...

........................................................................
.............................. CYCLE   28 ..............................
........................................................................
   1   -436.7929159 -0.436793E+03  0.964E-02    1.21       0.0  T
   2   -436.7929435 -0.276536E-04  0.492E-02    1.22       1.0  T
   3   -436.7929238  0.196600E-04  0.141E-02    1.22       1.0  T
   4   -436.7929472 -0.233556E-04  0.713E-03    1.22       1.0  T
   5   -436.7929506 -0.344325E-05  0.287E-03    1.22       2.2  T
   6   -436.7929523 -0.168793E-05  0.933E-04    1.22       6.9  T
   7   -436.7929525 -0.181331E-06  0.324E-04    1.22      19.8  T
   8   -436.7929525 -0.456726E-08  0.203E-04    1.22      31.6  T
     SCC iter.                  ...        0 min,  0.475 sec
     gradient                   ...        0 min,  0.217 sec
 * total energy  :  -431.0206601 Eh     change       -0.9929736E-03 Eh
   gradient norm :     0.0124426 Eh/α   predicted    -0.9735588E-03 (  -1.96%)
   displ. norm   :     0.7027440 α      lambda       -0.1354605E-02
   maximum displ.:     0.2557091 α      in ANC's #25, #48, #1, ...

........................................................................
.............................. CYCLE   29 ..............................
........................................................................
   1   -436.8064861 -0.436806E+03  0.807E-02    1.22       0.0  T
   2   -436.8065114 -0.253106E-04  0.416E-02    1.23       1.0  T
   3   -436.8064903  0.210638E-04  0.133E-02    1.23       1.0  T
   4   -436.8065155 -0.251437E-04  0.634E-03    1.23       1.0  T
   5   -436.8065181 -0.257492E-05  0.284E-03    1.23       2.3  T
   6   -436.8065196 -0.157139E-05  0.879E-04    1.23       7.3  T
   7   -436.8065198 -0.145778E-06  0.332E-04    1.23      19.4  T
   8   -436.8065198 -0.691813E-08  0.192E-04    1.23      33.5  T
     SCC iter.                  ...        0 min,  0.476 sec
     gradient                   ...        0 min,  0.217 sec
 * total energy  :  -431.0216146 Eh     change       -0.9545642E-03 Eh
   gradient norm :     0.0142276 Eh/α   predicted    -0.1011789E-02 (   5.99%)
   displ. norm   :     0.7786656 α      lambda       -0.1085188E-02
   maximum displ.:     0.2806447 α      in ANC's #25, #48, #1, ...

........................................................................
.............................. CYCLE   30 ..............................
........................................................................
   1   -436.7988817 -0.436799E+03  0.892E-02    1.23       0.0  T
   2   -436.7989062 -0.245169E-04  0.454E-02    1.24       1.0  T
   3   -436.7988904  0.158329E-04  0.129E-02    1.24       1.0  T
   4   -436.7989099 -0.195313E-04  0.648E-03    1.25       1.0  T
   5   -436.7989127 -0.276018E-05  0.248E-03    1.25       2.6  T
   6   -436.7989139 -0.122277E-05  0.870E-04    1.25       7.4  T
   7   -436.7989141 -0.163729E-06  0.290E-04    1.25      22.2  T
   8   -436.7989141 -0.145388E-08  0.186E-04    1.25      34.6  T
     SCC iter.                  ...        0 min,  0.481 sec
     gradient                   ...        0 min,  0.217 sec
 * total energy  :  -431.0225360 Eh     change       -0.9213786E-03 Eh
   gradient norm :     0.0126112 Eh/α   predicted    -0.8715965E-03 (  -5.40%)
   displ. norm   :     0.6725032 α      lambda       -0.1104204E-02
   maximum displ.:     0.2401682 α      in ANC's #25, #48, #1, ...

........................................................................
.............................. CYCLE   31 ..............................
........................................................................
   1   -436.8044968 -0.436804E+03  0.748E-02    1.24       0.0  T
   2   -436.8045159 -0.191620E-04  0.383E-02    1.25       1.0  T
   3   -436.8044953  0.206398E-04  0.123E-02    1.25       1.0  T
   4   -436.8045198 -0.245076E-04  0.577E-03    1.26       1.1  T
   5   -436.8045222 -0.236763E-05  0.233E-03    1.26       2.8  T
   6   -436.8045231 -0.954648E-06  0.771E-04    1.26       8.3  T
   7   -436.8045232 -0.116576E-06  0.294E-04    1.26      21.9  T
     SCC iter.                  ...        0 min,  0.420 sec
     gradient                   ...        0 min,  0.217 sec
 * total energy  :  -431.0234105 Eh     change       -0.8744958E-03 Eh
   gradient norm :     0.0093398 Eh/α   predicted    -0.8018018E-03 (  -8.31%)
   displ. norm   :     0.7349364 α      lambda       -0.9176856E-03
   maximum displ.:     0.2611640 α      in ANC's #25, #1, #48, ...

........................................................................
.............................. CYCLE   32 ..............................
........................................................................
   1   -436.8058648 -0.436806E+03  0.784E-02    1.25       0.0  T
   2   -436.8058851 -0.202186E-04  0.398E-02    1.26       1.0  T
   3   -436.8058703  0.147841E-04  0.114E-02    1.26       1.0  T
   4   -436.8058879 -0.176628E-04  0.583E-03    1.27       1.1  T
   5   -436.8058907 -0.276272E-05  0.223E-03    1.27       2.9  T
   6   -436.8058916 -0.925138E-06  0.770E-04    1.27       8.3  T
   7   -436.8058917 -0.118199E-06  0.279E-04    1.27      23.1  T
     SCC iter.                  ...        0 min,  0.421 sec
     gradient                   ...        0 min,  0.217 sec
 * total energy  :  -431.0241730 Eh     change       -0.7624710E-03 Eh
   gradient norm :     0.0108555 Eh/α   predicted    -0.7066858E-03 (  -7.32%)
   displ. norm   :     0.6793168 α      lambda       -0.9911311E-03
   maximum displ.:     0.2293105 α      in ANC's #25, #1, #33, ...

........................................................................
.............................. CYCLE   33 ..............................
........................................................................
   1   -436.8188295 -0.436819E+03  0.702E-02    1.26       0.0  T
   2   -436.8188476 -0.180454E-04  0.358E-02    1.27       1.0  T
   3   -436.8188337  0.138893E-04  0.105E-02    1.27       1.0  T
   4   -436.8188500 -0.163138E-04  0.535E-03    1.27       1.2  T
   5   -436.8188526 -0.254458E-05  0.220E-03    1.27       2.9  T
   6   -436.8188534 -0.833893E-06  0.755E-04    1.27       8.5  T
   7   -436.8188535 -0.109902E-06  0.295E-04    1.27      21.8  T
     SCC iter.                  ...        0 min,  0.423 sec
     gradient                   ...        0 min,  0.217 sec
 * total energy  :  -431.0249311 Eh     change       -0.7581111E-03 Eh
   gradient norm :     0.0098392 Eh/α   predicted    -0.7243139E-03 (  -4.46%)
   displ. norm   :     0.8182881 α      lambda       -0.8980584E-03
   maximum displ.:     0.2898867 α      in ANC's #25, #1, #48, ...

........................................................................
.............................. CYCLE   34 ..............................
........................................................................
   1   -436.8094287 -0.436809E+03  0.858E-02    1.28       0.0  T
   2   -436.8094548 -0.261077E-04  0.433E-02    1.29       1.0  T
   3   -436.8094388  0.160242E-04  0.128E-02    1.29       1.0  T
   4   -436.8094590 -0.201809E-04  0.631E-03    1.29       1.0  T
   5   -436.8094614 -0.243219E-05  0.265E-03    1.29       2.4  T
   6   -436.8094627 -0.130145E-05  0.911E-04    1.29       7.1  T
   7   -436.8094629 -0.175322E-06  0.296E-04    1.29      21.7  T
   8   -436.8094629 -0.454611E-08  0.186E-04    1.29      34.5  T
     SCC iter.                  ...        0 min,  0.484 sec
     gradient                   ...        0 min,  0.217 sec
 * total energy  :  -431.0256634 Eh     change       -0.7322644E-03 Eh
   gradient norm :     0.0074022 Eh/α   predicted    -0.7497146E-03 (   2.38%)
   displ. norm   :     0.6781330 α      lambda       -0.8409115E-03
   maximum displ.:     0.2105233 α      in ANC's #25, #11, #33, ...

........................................................................
.............................. CYCLE   35 ..............................
........................................................................
   1   -436.8097923 -0.436810E+03  0.655E-02    1.29       0.0  T
   2   -436.8098073 -0.150307E-04  0.337E-02    1.30       1.0  T
   3   -436.8097956  0.117961E-04  0.101E-02    1.30       1.0  T
   4   -436.8098092 -0.136384E-04  0.509E-03    1.30       1.3  T
   5   -436.8098111 -0.195269E-05  0.230E-03    1.30       2.8  T
   6   -436.8098122 -0.102915E-05  0.692E-04    1.30       9.3  T
   7   -436.8098123 -0.898750E-07  0.272E-04    1.30      23.6  T
   8   -436.8098123 -0.480088E-08  0.165E-04    1.30      39.0  T
     SCC iter.                  ...        0 min,  0.488 sec
     gradient                   ...        0 min,  0.217 sec
 * total energy  :  -431.0263129 Eh     change       -0.6495087E-03 Eh
   gradient norm :     0.0099356 Eh/α   predicted    -0.6138086E-03 (  -5.50%)
   displ. norm   :     0.7235527 α      lambda       -0.7790796E-03
   maximum displ.:     0.2253767 α      in ANC's #25, #33, #4, ...

........................................................................
.............................. CYCLE   36 ..............................
........................................................................
   1   -436.8083926 -0.436808E+03  0.686E-02    1.30       0.0  T
   2   -436.8084084 -0.158511E-04  0.347E-02    1.30       1.0  T
   3   -436.8084025  0.590923E-05  0.907E-03    1.30       1.0  T
   4   -436.8084102 -0.767708E-05  0.492E-03    1.31       1.3  T
   5   -436.8084118 -0.163993E-05  0.203E-03    1.30       3.2  T
   6   -436.8084128 -0.924709E-06  0.700E-04    1.31       9.2  T
   7   -436.8084129 -0.105821E-06  0.236E-04    1.31      27.3  T
     SCC iter.                  ...        0 min,  0.411 sec
     gradient                   ...        0 min,  0.218 sec
 * total energy  :  -431.0269669 Eh     change       -0.6540505E-03 Eh
   gradient norm :     0.0107745 Eh/α   predicted    -0.5934754E-03 (  -9.26%)
   displ. norm   :     0.7192839 α      lambda       -0.9071017E-03
   maximum displ.:     0.1989537 α      in ANC's #11, #4, #21, ...

........................................................................
.............................. CYCLE   37 ..............................
........................................................................
   1   -436.8109291 -0.436811E+03  0.646E-02    1.31       0.0  T
   2   -436.8109436 -0.145262E-04  0.335E-02    1.31       1.0  T
   3   -436.8109362  0.744625E-05  0.935E-03    1.31       1.0  T
   4   -436.8109454 -0.925417E-05  0.481E-03    1.31       1.3  T
   5   -436.8109468 -0.138576E-05  0.222E-03    1.31       2.9  T
   6   -436.8109479 -0.105714E-05  0.705E-04    1.31       9.1  T
   7   -436.8109480 -0.965333E-07  0.279E-04    1.31      23.1  T
   8   -436.8109480 -0.296637E-08  0.170E-04    1.31      37.9  T
     SCC iter.                  ...        0 min,  0.470 sec
     gradient                   ...        0 min,  0.217 sec
 * total energy  :  -431.0276811 Eh     change       -0.7141475E-03 Eh
   gradient norm :     0.0098885 Eh/α   predicted    -0.6882052E-03 (  -3.63%)
   displ. norm   :     0.7556646 α      lambda       -0.9663160E-03
   maximum displ.:     0.2130148 α      in ANC's #11, #4, #21, ...

........................................................................
.............................. CYCLE   38 ..............................
........................................................................
   1   -436.8104528 -0.436810E+03  0.690E-02    1.31       0.0  T
   2   -436.8104711 -0.182126E-04  0.355E-02    1.32       1.0  T
   3   -436.8104631  0.793809E-05  0.975E-03    1.32       1.0  T
   4   -436.8104729 -0.976889E-05  0.516E-03    1.32       1.2  T
   5   -436.8104749 -0.198864E-05  0.216E-03    1.32       3.0  T
   6   -436.8104758 -0.914697E-06  0.794E-04    1.32       8.1  T
   7   -436.8104759 -0.131190E-06  0.283E-04    1.32      22.7  T
     SCC iter.                  ...        0 min,  0.414 sec
     gradient                   ...        0 min,  0.217 sec
 * total energy  :  -431.0283954 Eh     change       -0.7143354E-03 Eh
   gradient norm :     0.0104330 Eh/α   predicted    -0.7590591E-03 (   6.26%)
   displ. norm   :     0.7549113 α      lambda       -0.9267199E-03
   maximum displ.:     0.2105246 α      in ANC's #4, #11, #21, ...

........................................................................
.............................. CYCLE   39 ..............................
........................................................................
   1   -436.8040166 -0.436804E+03  0.704E-02    1.32       0.0  T
   2   -436.8040357 -0.190751E-04  0.359E-02    1.33       1.0  T
   3   -436.8040304  0.525802E-05  0.908E-03    1.33       1.0  T
   4   -436.8040364 -0.597903E-05  0.527E-03    1.33       1.2  T
   5   -436.8040391 -0.270062E-05  0.216E-03    1.33       3.0  T
   6   -436.8040399 -0.848031E-06  0.849E-04    1.33       7.6  T
   7   -436.8040401 -0.153778E-06  0.265E-04    1.33      24.2  T
     SCC iter.                  ...        0 min,  0.433 sec
     gradient                   ...        0 min,  0.217 sec
 * total energy  :  -431.0290421 Eh     change       -0.6466987E-03 Eh
   gradient norm :     0.0126315 Eh/α   predicted    -0.7274293E-03 (  12.48%)
   displ. norm   :     0.6056997 α      lambda       -0.9916998E-03
   maximum displ.:     0.1798333 α      in ANC's #4, #40, #21, ...

........................................................................
.............................. CYCLE   40 ..............................
........................................................................
   1   -436.8123001 -0.436812E+03  0.548E-02    1.33       0.0  T
   2   -436.8123096 -0.944500E-05  0.299E-02    1.33       1.0  T
   3   -436.8122970  0.125581E-04  0.915E-03    1.33       1.0  T
   4   -436.8123102 -0.132044E-04  0.452E-03    1.33       1.4  T
   5   -436.8123126 -0.236581E-05  0.203E-03    1.33       3.2  T
   6   -436.8123133 -0.705078E-06  0.592E-04    1.33      10.9  T
   7   -436.8123133 -0.664136E-07  0.256E-04    1.33      25.1  T
     SCC iter.                  ...        0 min,  0.423 sec
     gradient                   ...        0 min,  0.217 sec
 * total energy  :  -431.0296970 Eh     change       -0.6549213E-03 Eh
   gradient norm :     0.0133022 Eh/α   predicted    -0.6777682E-03 (   3.49%)
   displ. norm   :     0.6985817 α      lambda       -0.1078034E-02
   maximum displ.:     0.2091037 α      in ANC's #4, #21, #11, ...

........................................................................
.............................. CYCLE   41 ..............................
........................................................................
   1   -436.8082823 -0.436808E+03  0.669E-02    1.34       0.0  T
   2   -436.8082986 -0.162783E-04  0.345E-02    1.34       1.0  T
   3   -436.8082874  0.112466E-04  0.102E-02    1.34       1.0  T
   4   -436.8083004 -0.130457E-04  0.524E-03    1.34       1.2  T
   5   -436.8083024 -0.203439E-05  0.239E-03    1.34       2.7  T
   6   -436.8083035 -0.109602E-05  0.730E-04    1.34       8.8  T
   7   -436.8083036 -0.983910E-07  0.309E-04    1.34      20.8  T
   8   -436.8083036 -0.577944E-08  0.179E-04    1.34      35.9  T
     SCC iter.                  ...        0 min,  0.483 sec
     gradient                   ...        0 min,  0.217 sec
 * total energy  :  -431.0303876 Eh     change       -0.6906244E-03 Eh
   gradient norm :     0.0115515 Eh/α   predicted    -0.8020716E-03 (  16.14%)
   displ. norm   :     0.6433342 α      lambda       -0.9225653E-03
   maximum displ.:     0.1998520 α      in ANC's #4, #21, #11, ...

........................................................................
.............................. CYCLE   42 ..............................
........................................................................
   1   -436.8130415 -0.436813E+03  0.553E-02    1.34       0.0  T
   2   -436.8130493 -0.782148E-05  0.297E-02    1.34       1.0  T
   3   -436.8130399  0.948215E-05  0.803E-03    1.34       1.0  T
   4   -436.8130494 -0.952260E-05  0.434E-03    1.34       1.5  T
   5   -436.8130516 -0.222919E-05  0.186E-03    1.34       3.4  T
   6   -436.8130523 -0.727786E-06  0.496E-04    1.34      13.0  T
   7   -436.8130524 -0.392097E-07  0.226E-04    1.34      28.4  T
     SCC iter.                  ...        0 min,  0.420 sec
     gradient                   ...        0 min,  0.217 sec
 * total energy  :  -431.0310372 Eh     change       -0.6495439E-03 Eh
   gradient norm :     0.0118307 Eh/α   predicted    -0.6521991E-03 (   0.41%)
   displ. norm   :     0.6954861 α      lambda       -0.9118209E-03
   maximum displ.:     0.2238263 α      in ANC's #4, #21, #11, ...
 * RMSD in coord.:     0.8373241 α      energy gain  -0.1763296E-01 Eh

generating ANC from model Hessian ...
Using Lindh-Hessian (1995)
 Shifting diagonal of input Hessian by   1.001345352922098E-002
 Lowest  eigenvalues of input Hessian
    0.010000    0.010012    0.000000    0.000000    0.000000    0.000000
    0.000000    0.000000    0.010018    0.010032    0.010042    0.010046
    0.010061    0.010066    0.010079    0.010089    0.010108    0.010127
 Highest eigenvalues
    2.100351    2.101956    2.108598    2.112215    2.113656    2.114690
 

........................................................................
.............................. CYCLE   43 ..............................
........................................................................
   1   -436.8068220 -0.436807E+03  0.635E-02    1.34       0.0  T
   2   -436.8068350 -0.130174E-04  0.327E-02    1.35       1.0  T
   3   -436.8068273  0.765780E-05  0.895E-03    1.35       1.0  T
   4   -436.8068368 -0.947017E-05  0.461E-03    1.35       1.4  T
   5   -436.8068381 -0.126799E-05  0.205E-03    1.35       3.1  T
   6   -436.8068391 -0.101853E-05  0.628E-04    1.35      10.2  T
   7   -436.8068392 -0.738619E-07  0.250E-04    1.35      25.7  T
   8   -436.8068392 -0.279726E-08  0.158E-04    1.35      40.6  T
     SCC iter.                  ...        0 min,  0.479 sec
     gradient                   ...        0 min,  0.217 sec
 * total energy  :  -431.0317230 Eh     change       -0.6858275E-03 Eh
   gradient norm :     0.0109928 Eh/α   predicted     0.0000000E+00 (-100.00%)
   displ. norm   :     0.1328496 α      lambda       -0.4664362E-03
   maximum displ.:     0.0290840 α      in ANC's #33, #35, #51, ...

........................................................................
.............................. CYCLE   44 ..............................
........................................................................
   1   -436.8140892 -0.436814E+03  0.192E-02    1.35       0.0  T
   2   -436.8140914 -0.212964E-05  0.106E-02    1.35       1.0  T
   3   -436.8140902  0.114773E-05  0.339E-03    1.35       1.9  T
   4   -436.8140917 -0.143053E-05  0.147E-03    1.35       4.4  T
   5   -436.8140918 -0.163885E-06  0.806E-04    1.35       8.0  T
   6   -436.8140919 -0.985254E-07  0.272E-04    1.35      23.6  T
     SCC iter.                  ...        0 min,  0.362 sec
     gradient                   ...        0 min,  0.217 sec
 * total energy  :  -431.0320801 Eh     change       -0.3570772E-03 Eh
   gradient norm :     0.0041112 Eh/α   predicted    -0.2373346E-03 ( -33.53%)
   displ. norm   :     0.3172174 α      lambda       -0.5431390E-03
   maximum displ.:     0.0731338 α      in ANC's #33, #35, #51, ...

........................................................................
.............................. CYCLE   45 ..............................
........................................................................
   1   -436.8202805 -0.436820E+03  0.361E-02    1.35       0.0  T
   2   -436.8202856 -0.503507E-05  0.190E-02    1.36       1.0  T
   3   -436.8202808  0.474560E-05  0.605E-03    1.36       1.1  T
   4   -436.8202864 -0.562301E-05  0.278E-03    1.36       2.3  T
   5   -436.8202870 -0.527474E-06  0.138E-03    1.36       4.7  T
   6   -436.8202873 -0.327027E-06  0.417E-04    1.36      15.4  T
   7   -436.8202873 -0.334765E-07  0.177E-04    1.36      36.4  T
     SCC iter.                  ...        0 min,  0.417 sec
     gradient                   ...        0 min,  0.217 sec
 * total energy  :  -431.0324989 Eh     change       -0.4187772E-03 Eh
   gradient norm :     0.0055609 Eh/α   predicted    -0.2989030E-03 ( -28.62%)
   displ. norm   :     0.5215106 α      lambda       -0.6329091E-03
   maximum displ.:     0.1239130 α      in ANC's #35, #33, #24, ...

........................................................................
.............................. CYCLE   46 ..............................
........................................................................
   1   -436.8219906 -0.436822E+03  0.565E-02    1.36       0.0  T
   2   -436.8220007 -0.101379E-04  0.291E-02    1.36       1.0  T
   3   -436.8219888  0.119636E-04  0.904E-03    1.36       1.0  T
   4   -436.8220028 -0.140621E-04  0.424E-03    1.36       1.5  T
   5   -436.8220040 -0.120902E-05  0.192E-03    1.36       3.4  T
   6   -436.8220047 -0.686603E-06  0.528E-04    1.36      12.2  T
   7   -436.8220048 -0.526089E-07  0.223E-04    1.36      28.9  T
     SCC iter.                  ...        0 min,  0.418 sec
     gradient                   ...        0 min,  0.220 sec
 * total energy  :  -431.0330555 Eh     change       -0.5566000E-03 Eh
   gradient norm :     0.0101963 Eh/α   predicted    -0.4026636E-03 ( -27.66%)
   displ. norm   :     0.7676187 α      lambda       -0.9138907E-03
   maximum displ.:     0.1885718 α      in ANC's #35, #33, #24, ...

........................................................................
.............................. CYCLE   47 ..............................
........................................................................
   1   -436.8176661 -0.436818E+03  0.832E-02    1.36       0.0  T
   2   -436.8176876 -0.214457E-04  0.427E-02    1.36       1.0  T
   3   -436.8176597  0.278603E-04  0.133E-02    1.37       1.0  T
   4   -436.8176924 -0.327151E-04  0.621E-03    1.37       1.0  T
   5   -436.8176950 -0.250969E-05  0.278E-03    1.37       2.3  T
   6   -436.8176964 -0.148096E-05  0.767E-04    1.37       8.4  T
   7   -436.8176965 -0.108766E-06  0.321E-04    1.37      20.0  T
   8   -436.8176966 -0.990309E-08  0.187E-04    1.37      34.5  T
     SCC iter.                  ...        0 min,  0.475 sec
     gradient                   ...        0 min,  0.217 sec
 * total energy  :  -431.0338548 Eh     change       -0.7993007E-03 Eh
   gradient norm :     0.0116646 Eh/α   predicted    -0.7261953E-03 (  -9.15%)
   displ. norm   :     0.7262426 α      lambda       -0.8885621E-03
   maximum displ.:     0.1802687 α      in ANC's #33, #24, #35, ...

........................................................................
.............................. CYCLE   48 ..............................
........................................................................
   1   -436.8115837 -0.436812E+03  0.788E-02    1.37       0.0  T
   2   -436.8116031 -0.194007E-04  0.403E-02    1.37       1.0  T
   3   -436.8115766  0.265462E-04  0.128E-02    1.37       1.0  T
   4   -436.8116075 -0.309693E-04  0.599E-03    1.37       1.1  T
   5   -436.8116099 -0.232157E-05  0.280E-03    1.37       2.3  T
   6   -436.8116113 -0.147466E-05  0.778E-04    1.37       8.3  T
   7   -436.8116114 -0.107537E-06  0.332E-04    1.37      19.4  T
   8   -436.8116114 -0.775759E-08  0.204E-04    1.37      31.5  T
     SCC iter.                  ...        0 min,  0.469 sec
     gradient                   ...        0 min,  0.217 sec
 * total energy  :  -431.0345679 Eh     change       -0.7131159E-03 Eh
   gradient norm :     0.0108651 Eh/α   predicted    -0.6786098E-03 (  -4.84%)
   displ. norm   :     0.5495417 α      lambda       -0.8118207E-03
   maximum displ.:     0.1456515 α      in ANC's #24, #21, #33, ...

........................................................................
.............................. CYCLE   49 ..............................
........................................................................
   1   -436.8110487 -0.436811E+03  0.577E-02    1.37       0.0  T
   2   -436.8110593 -0.105492E-04  0.297E-02    1.37       1.0  T
   3   -436.8110440  0.153140E-04  0.996E-03    1.37       1.0  T
   4   -436.8110616 -0.176761E-04  0.465E-03    1.37       1.4  T
   5   -436.8110630 -0.135182E-05  0.228E-03    1.37       2.8  T
   6   -436.8110640 -0.100558E-05  0.575E-04    1.37      11.2  T
   7   -436.8110640 -0.483664E-07  0.292E-04    1.37      22.1  T
   8   -436.8110640 -0.377776E-08  0.183E-04    1.37      35.2  T
     SCC iter.                  ...        0 min,  0.479 sec
     gradient                   ...        0 min,  0.218 sec
 * total energy  :  -431.0351845 Eh     change       -0.6165859E-03 Eh
   gradient norm :     0.0102583 Eh/α   predicted    -0.5285285E-03 ( -14.28%)
   displ. norm   :     0.6167856 α      lambda       -0.7194415E-03
   maximum displ.:     0.1640740 α      in ANC's #21, #24, #33, ...

........................................................................
.............................. CYCLE   50 ..............................
........................................................................
   1   -436.8120401 -0.436812E+03  0.606E-02    1.37       0.0  T
   2   -436.8120505 -0.103754E-04  0.309E-02    1.37       1.0  T
   3   -436.8120347  0.158618E-04  0.992E-03    1.37       1.0  T
   4   -436.8120524 -0.177574E-04  0.485E-03    1.37       1.3  T
   5   -436.8120543 -0.190154E-05  0.215E-03    1.37       3.0  T
   6   -436.8120552 -0.885345E-06  0.543E-04    1.37      11.8  T
   7   -436.8120552 -0.455094E-07  0.275E-04    1.37      23.4  T
     SCC iter.                  ...        0 min,  0.416 sec
     gradient                   ...        0 min,  0.217 sec
 * total energy  :  -431.0358167 Eh     change       -0.6322016E-03 Eh
   gradient norm :     0.0113636 Eh/α   predicted    -0.4965752E-03 ( -21.45%)
   displ. norm   :     0.6230313 α      lambda       -0.1033209E-02
   maximum displ.:     0.1699513 α      in ANC's #21, #24, #8, ...

........................................................................
.............................. CYCLE   51 ..............................
........................................................................
   1   -436.8239801 -0.436824E+03  0.590E-02    1.38       0.0  T
   2   -436.8239931 -0.130195E-04  0.307E-02    1.38       1.0  T
   3   -436.8239780  0.151469E-04  0.100E-02    1.38       1.0  T
   4   -436.8239942 -0.162061E-04  0.510E-03    1.38       1.3  T
   5   -436.8239972 -0.303342E-05  0.227E-03    1.38       2.8  T
   6   -436.8239980 -0.773333E-06  0.658E-04    1.38       9.8  T
   7   -436.8239981 -0.861452E-07  0.284E-04    1.38      22.6  T
     SCC iter.                  ...        0 min,  0.416 sec
     gradient                   ...        0 min,  0.217 sec
 * total energy  :  -431.0365348 Eh     change       -0.7181335E-03 Eh
   gradient norm :     0.0102480 Eh/α   predicted    -0.7171434E-03 (  -0.14%)
   displ. norm   :     0.7905290 α      lambda       -0.9260762E-03
   maximum displ.:     0.2121042 α      in ANC's #21, #24, #19, ...

........................................................................
.............................. CYCLE   52 ..............................
........................................................................
   1   -436.8198015 -0.436820E+03  0.795E-02    1.38       0.0  T
   2   -436.8198189 -0.173344E-04  0.403E-02    1.38       1.0  T
   3   -436.8197918  0.270520E-04  0.127E-02    1.38       1.0  T
   4   -436.8198230 -0.312121E-04  0.605E-03    1.38       1.1  T
   5   -436.8198255 -0.243609E-05  0.259E-03    1.38       2.5  T
   6   -436.8198268 -0.133205E-05  0.750E-04    1.38       8.6  T
   7   -436.8198269 -0.981601E-07  0.350E-04    1.38      18.4  T
   8   -436.8198269 -0.738191E-08  0.214E-04    1.38      30.0  T
     SCC iter.                  ...        0 min,  0.473 sec
     gradient                   ...        0 min,  0.217 sec
 * total energy  :  -431.0372524 Eh     change       -0.7175396E-03 Eh
   gradient norm :     0.0096847 Eh/α   predicted    -0.7524125E-03 (   4.86%)
   displ. norm   :     0.6715926 α      lambda       -0.6767818E-03
   maximum displ.:     0.1847550 α      in ANC's #21, #8, #24, ...

........................................................................
.............................. CYCLE   53 ..............................
........................................................................
   1   -436.8187154 -0.436819E+03  0.611E-02    1.38       0.0  T
   2   -436.8187251 -0.964942E-05  0.309E-02    1.38       1.0  T
   3   -436.8187096  0.154376E-04  0.978E-03    1.38       1.0  T
   4   -436.8187271 -0.174845E-04  0.473E-03    1.38       1.4  T
   5   -436.8187287 -0.160460E-05  0.207E-03    1.38       3.1  T
   6   -436.8187296 -0.921718E-06  0.478E-04    1.38      13.4  T
   7   -436.8187297 -0.341522E-07  0.250E-04    1.38      25.7  T
     SCC iter.                  ...        0 min,  0.429 sec
     gradient                   ...        0 min,  0.217 sec
 * total energy  :  -431.0378374 Eh     change       -0.5850265E-03 Eh
   gradient norm :     0.0088901 Eh/α   predicted    -0.4910189E-03 ( -16.07%)
   displ. norm   :     0.6397550 α      lambda       -0.8014592E-03
   maximum displ.:     0.1875870 α      in ANC's #8, #21, #4, ...

........................................................................
.............................. CYCLE   54 ..............................
........................................................................
   1   -436.8229703 -0.436823E+03  0.575E-02    1.38       0.0  T
   2   -436.8229807 -0.103929E-04  0.294E-02    1.38       1.0  T
   3   -436.8229683  0.124134E-04  0.953E-03    1.38       1.0  T
   4   -436.8229828 -0.145202E-04  0.451E-03    1.38       1.4  T
   5   -436.8229840 -0.115451E-05  0.235E-03    1.38       2.7  T
   6   -436.8229851 -0.114222E-05  0.528E-04    1.38      12.2  T
   7   -436.8229852 -0.399820E-07  0.272E-04    1.38      23.6  T
   8   -436.8229852 -0.391134E-08  0.168E-04    1.38      38.2  T
     SCC iter.                  ...        0 min,  0.478 sec
     gradient                   ...        0 min,  0.217 sec
 * total energy  :  -431.0384500 Eh     change       -0.6126275E-03 Eh
   gradient norm :     0.0060075 Eh/α   predicted    -0.5647448E-03 (  -7.82%)
   displ. norm   :     0.7911486 α      lambda       -0.6392953E-03
   maximum displ.:     0.2234929 α      in ANC's #21, #8, #24, ...

........................................................................
.............................. CYCLE   55 ..............................
........................................................................
   1   -436.8181455 -0.436818E+03  0.735E-02    1.38       0.0  T
   2   -436.8181601 -0.145742E-04  0.368E-02    1.38       1.0  T
   3   -436.8181419  0.182057E-04  0.109E-02    1.38       1.0  T
   4   -436.8181625 -0.206318E-04  0.565E-03    1.38       1.1  T
   5   -436.8181649 -0.239360E-05  0.250E-03    1.38       2.6  T
   6   -436.8181662 -0.135654E-05  0.588E-04    1.38      10.9  T
   7   -436.8181663 -0.496642E-07  0.303E-04    1.38      21.2  T
   8   -436.8181663 -0.526387E-08  0.188E-04    1.38      34.2  T
     SCC iter.                  ...        0 min,  0.475 sec
     gradient                   ...        0 min,  0.217 sec
 * total energy  :  -431.0389800 Eh     change       -0.5300332E-03 Eh
   gradient norm :     0.0057251 Eh/α   predicted    -0.5197294E-03 (  -1.94%)
   displ. norm   :     0.6838202 α      lambda       -0.5801783E-03
   maximum displ.:     0.2106929 α      in ANC's #8, #21, #4, ...

........................................................................
.............................. CYCLE   56 ..............................
........................................................................
   1   -436.8206691 -0.436821E+03  0.620E-02    1.38       0.0  T
   2   -436.8206798 -0.107135E-04  0.309E-02    1.38       1.0  T
   3   -436.8206713  0.855158E-05  0.837E-03    1.38       1.0  T
   4   -436.8206803 -0.903770E-05  0.480E-03    1.38       1.3  T
   5   -436.8206827 -0.238204E-05  0.199E-03    1.38       3.2  T
   6   -436.8206836 -0.839513E-06  0.466E-04    1.38      13.8  T
   7   -436.8206836 -0.333991E-07  0.222E-04    1.38      28.9  T
     SCC iter.                  ...        0 min,  0.417 sec
     gradient                   ...        0 min,  0.218 sec
 * total energy  :  -431.0394534 Eh     change       -0.4733427E-03 Eh
   gradient norm :     0.0055324 Eh/α   predicted    -0.4257421E-03 ( -10.06%)
   displ. norm   :     0.6855959 α      lambda       -0.4961518E-03
   maximum displ.:     0.2154721 α      in ANC's #8, #21, #4, ...

........................................................................
.............................. CYCLE   57 ..............................
........................................................................
   1   -436.8233620 -0.436823E+03  0.656E-02    1.39       0.0  T
   2   -436.8233735 -0.114406E-04  0.325E-02    1.39       1.0  T
   3   -436.8233655  0.794705E-05  0.852E-03    1.39       1.0  T
   4   -436.8233740 -0.850578E-05  0.492E-03    1.39       1.3  T
   5   -436.8233765 -0.243509E-05  0.194E-03    1.39       3.3  T
   6   -436.8233772 -0.775833E-06  0.526E-04    1.39      12.2  T
   7   -436.8233773 -0.428951E-07  0.251E-04    1.39      25.7  T
     SCC iter.                  ...        0 min,  0.412 sec
     gradient                   ...        0 min,  0.217 sec
 * total energy  :  -431.0398626 Eh     change       -0.4092442E-03 Eh
   gradient norm :     0.0062037 Eh/α   predicted    -0.3646831E-03 ( -10.89%)
   displ. norm   :     0.6864407 α      lambda       -0.4935803E-03
   maximum displ.:     0.2191402 α      in ANC's #8, #21, #4, ...

........................................................................
.............................. CYCLE   58 ..............................
........................................................................
   1   -436.8266300 -0.436827E+03  0.650E-02    1.39       0.0  T
   2   -436.8266409 -0.109242E-04  0.324E-02    1.39       1.0  T
   3   -436.8266334  0.750706E-05  0.848E-03    1.39       1.0  T
   4   -436.8266416 -0.819366E-05  0.479E-03    1.39       1.3  T
   5   -436.8266437 -0.217639E-05  0.192E-03    1.39       3.3  T
   6   -436.8266445 -0.769334E-06  0.482E-04    1.39      13.3  T
   7   -436.8266445 -0.403263E-07  0.210E-04    1.39      30.5  T
     SCC iter.                  ...        0 min,  0.424 sec
     gradient                   ...        0 min,  0.218 sec
 * total energy  :  -431.0402502 Eh     change       -0.3875506E-03 Eh
   gradient norm :     0.0068863 Eh/α   predicted    -0.3630824E-03 (  -6.31%)
   displ. norm   :     0.6722592 α      lambda       -0.4490445E-03
   maximum displ.:     0.2151347 α      in ANC's #8, #21, #4, ...

........................................................................
.............................. CYCLE   59 ..............................
........................................................................
   1   -436.8275254 -0.436828E+03  0.665E-02    1.39       0.0  T
   2   -436.8275369 -0.115584E-04  0.329E-02    1.39       1.0  T
   3   -436.8275309  0.607410E-05  0.834E-03    1.39       1.0  T
   4   -436.8275377 -0.683193E-05  0.479E-03    1.39       1.3  T
   5   -436.8275397 -0.202794E-05  0.191E-03    1.39       3.4  T
[...]

Topologies differ in bond orders
Writing corrected topology to xtbtopo.mol

molecular dipole:
                 x           y           z       tot (Debye)
 q only:        0.553      -0.712       1.284
   full:        0.758      -1.273       1.293       4.998
molecular quadrupole (traceless):
                xx          xy          yy          xz          yz          zz
 q only:       -6.564       0.142       1.766     -13.787     -11.406       4.798
  q+dip:       -8.567      -3.558      17.388     -14.960      -9.608      -8.821
   full:       -7.336      -4.354      19.673     -12.271      -9.826     -12.337

           -------------------------------------------------
          |                Geometry Summary                 |
           -------------------------------------------------

      molecular mass/u    :     2397.1523834
   center of mass at/Å    :       -0.0376183      -0.3800272      -0.2483020
  moments of inertia/u·Å² :        0.9847442E+05   0.1061762E+06   0.1397323E+06
rotational constants/cm⁻¹ :        0.1711879E-03   0.1587704E-03   0.1206423E-03

 * 229 selected distances

     #   Z          #   Z                                           value/Å
     1   6 C        2   6 C                                       1.3474882
     2   6 C        3   6 C                                       1.4265912
     3   6 C        4   6 C                                       1.4048799
     5   6 C        6   6 C                                       1.3961826
     6   6 C        7   6 C                                       1.3815458
     7   6 C        8   6 C                                       1.3897150
    10   6 C       11   6 C                                       1.5138060
     8   6 C       12   6 C                                       1.3909366
     5   6 C       14   6 C                                       1.3924331
    12   6 C       14   6 C                                       1.3807172
     4   6 C       15   6 C                                       1.3908000
    15   6 C       16   6 C                                       1.4154752
    16   6 C       17   6 C                                       1.4032865
    18   6 C       19   6 C                                       1.3906395
    19   6 C       20   6 C                                       1.3817703
    20   6 C       21   6 C                                       1.3903992
    23   6 C       24   6 C                                       1.5171624
    21   6 C       25   6 C                                       1.3963447
    18   6 C       26   6 C                                       1.3947477
    25   6 C       26   6 C                                       1.3751897
     3   6 C       28   6 C                                       1.4164058
    17   6 C       28   6 C                                       1.3867891
     1   6 C       29  16 S                                       1.7302348
    28   6 C       29  16 S                                       1.7455203
    16   6 C       30   6 C                                       1.4197922
    30   6 C       31   6 C                                       1.3625561
    15   6 C       32  16 S                                       1.7429326
    31   6 C       32  16 S                                       1.7605042 (max)
    31   6 C       33   6 C                                       1.4333494
    33   6 C       34  16 S                                       1.7352485
    34  16 S       35   6 C                                       1.7387985
    35   6 C       36   6 C                                       1.3702385
    33   6 C       37   6 C                                       1.3822016
    36   6 C       37   6 C                                       1.4148349
    38   6 C       39   6 C                                       1.5292175
    39   6 C       40   9 F                                       1.3453648
    39   6 C       41   9 F                                       1.3405133
    39   6 C       42   9 F                                       1.3398825
    43   6 C       44   6 C                                       1.5253884
    36   6 C       45   6 C                                       1.4929328
    44   6 C       45   6 C                                       1.5289748
    35   6 C       46   6 C                                       1.4398014
    46   6 C       47  16 S                                       1.7386759
    47  16 S       48   6 C                                       1.7432469
    48   6 C       49   6 C                                       1.3716435
    46   6 C       50   6 C                                       1.3766388
    49   6 C       50   6 C                                       1.4172903
    51   6 C       52   6 C                                       1.5291432
    52   6 C       53   9 F                                       1.3416618
    52   6 C       54   9 F                                       1.3439672
    52   6 C       55   9 F                                       1.3392461
    56   6 C       57   6 C                                       1.5242594
    49   6 C       58   6 C                                       1.4911959
    57   6 C       58   6 C                                       1.5270175
    48   6 C       59   6 C                                       1.4318433
    59   6 C       60   6 C                                       1.3626734
    60   6 C       61   6 C                                       1.4171415
    61   6 C       62   6 C                                       1.4056057
    63   6 C       64   6 C                                       1.3937692
    64   6 C       65   6 C                                       1.3776235
    65   6 C       66   6 C                                       1.3951271
    68   6 C       69   6 C                                       1.5160231
    66   6 C       70   6 C                                       1.3919727
    63   6 C       72   6 C                                       1.3917956
    70   6 C       72   6 C                                       1.3796508
    62   6 C       73   6 C                                       1.3852103
    73   6 C       74   6 C                                       1.4191859
    74   6 C       75   6 C                                       1.4065550
    76   6 C       77   6 C                                       1.3930410
    77   6 C       78   6 C                                       1.3799103
    78   6 C       79   6 C                                       1.3907919
    81   6 C       82   6 C                                       1.5152838
    79   6 C       83   6 C                                       1.3953187
    76   6 C       84   6 C                                       1.3913925
    83   6 C       84   6 C                                       1.3785502
    61   6 C       86   6 C                                       1.4158231
    75   6 C       86   6 C                                       1.3845652
    59   6 C       87  16 S                                       1.7600930
    86   6 C       87  16 S                                       1.7502632
    74   6 C       88   6 C                                       1.4162815
    88   6 C       89   6 C                                       1.3673079
    73   6 C       90  16 S                                       1.7446311
    89   6 C       90  16 S                                       1.7551731
    89   6 C       91   6 C                                       1.4302455
    91   6 C       92   6 C                                       1.3675535
    92   6 C       93   6 C                                       1.4159565
    93   6 C       94   6 C                                       1.4071807
    95   6 C       96   6 C                                       1.3921714
    96   6 C       97   6 C                                       1.3809139
    97   6 C       98   6 C                                       1.3895787
   100   6 C      101   6 C                                       1.5167232
    98   6 C      102   6 C                                       1.3956747
    95   6 C      104   6 C                                       1.3943348
   102   6 C      104   6 C                                       1.3769273
    94   6 C      105   6 C                                       1.3862678
   105   6 C      106   6 C                                       1.4167861
   106   6 C      107   6 C                                       1.4043804
   108   6 C      109   6 C                                       1.3943435
   109   6 C      110   6 C                                       1.3781761
   110   6 C      111   6 C                                       1.3930976
   113   6 C      114   6 C                                       1.5150844
   111   6 C      115   6 C                                       1.3917139
   108   6 C      116   6 C                                       1.3901631
   115   6 C      116   6 C                                       1.3797616
    93   6 C      118   6 C                                       1.4180205
   107   6 C      118   6 C                                       1.3847577
    91   6 C      119  16 S                                       1.7534337
   118   6 C      119  16 S                                       1.7455068
   106   6 C      120   6 C                                       1.4168439
   120   6 C      121   6 C                                       1.3600976
   105   6 C      122  16 S                                       1.7478641
   121   6 C      122  16 S                                       1.7561097
   121   6 C      123   6 C                                       1.4266841
   123   6 C      124   6 C                                       1.3601503
   124   6 C      125   6 C                                       1.4202011
   125   6 C      126   6 C                                       1.4026775
   127   6 C      128   6 C                                       1.3923764
   128   6 C      129   6 C                                       1.3809314
   129   6 C      130   6 C                                       1.3901694
   132   6 C      133   6 C                                       1.5170936
   130   6 C      134   6 C                                       1.3964901
   127   6 C      136   6 C                                       1.3928064
   134   6 C      136   6 C                                       1.3766753
   126   6 C      137   6 C                                       1.3883913
   137   6 C      138   6 C                                       1.4157711
   138   6 C      139   6 C                                       1.4033500
   140   6 C      141   6 C                                       1.3948251
   141   6 C      142   6 C                                       1.3782556
   142   6 C      143   6 C                                       1.3947501
   145   6 C      146   6 C                                       1.5159644
   143   6 C      147   6 C                                       1.3911054
   140   6 C      148   6 C                                       1.3907465
   147   6 C      148   6 C                                       1.3816035
   125   6 C      150   6 C                                       1.4167600
   139   6 C      150   6 C                                       1.3870740
   123   6 C      151  16 S                                       1.7528089
   150   6 C      151  16 S                                       1.7438771
   138   6 C      152   6 C                                       1.4267808
   152   6 C      153   6 C                                       1.3483368
   137   6 C      154  16 S                                       1.7444288
   153   6 C      154  16 S                                       1.7296980
     1   6 C      155   1 H                                       1.0726911
     2   6 C      156   1 H                                       1.0722506
     6   6 C      157   1 H                                       1.0793153
     7   6 C      158   1 H                                       1.0803714
    10   6 C      159   1 H                                       1.0886752
    10   6 C      160   1 H                                       1.0895701
    11   6 C      161   1 H                                       1.0872028
    11   6 C      162   1 H                                       1.0862018
    11   6 C      163   1 H                                       1.0879056
    14   6 C      164   1 H                                       1.0782764
    19   6 C      165   1 H                                       1.0790673
    20   6 C      166   1 H                                       1.0775840
    23   6 C      167   1 H                                       1.0892097
    23   6 C      168   1 H                                       1.0901754
    24   6 C      169   1 H                                       1.0878706
    24   6 C      170   1 H                                       1.0882567
    24   6 C      171   1 H                                       1.0872613
    26   6 C      172   1 H                                       1.0791750
    30   6 C      173   1 H                                       1.0720008 (min)
    38   6 C      174   1 H                                       1.0926339
    43   6 C      175   1 H                                       1.0900367
    43   6 C      176   1 H                                       1.0920540
    44   6 C      177   1 H                                       1.0918696
    44   6 C      178   1 H                                       1.0902869
    45   6 C      179   1 H                                       1.0938338
    45   6 C      180   1 H                                       1.0914535
    51   6 C      181   1 H                                       1.0931656
    56   6 C      182   1 H                                       1.0923270
    56   6 C      183   1 H                                       1.0902810
    57   6 C      184   1 H                                       1.0920978
    57   6 C      185   1 H                                       1.0900784
    58   6 C      186   1 H                                       1.0907291
    58   6 C      187   1 H                                       1.0936331
    60   6 C      188   1 H                                       1.0758053
    64   6 C      189   1 H                                       1.0779520
    65   6 C      190   1 H                                       1.0786837
    68   6 C      191   1 H                                       1.0888054
    68   6 C      192   1 H                                       1.0889472
    69   6 C      193   1 H                                       1.0876871
    69   6 C      194   1 H                                       1.0879891
    69   6 C      195   1 H                                       1.0875704
    72   6 C      196   1 H                                       1.0793562
    77   6 C      197   1 H                                       1.0799235
    78   6 C      198   1 H                                       1.0785288
    81   6 C      199   1 H                                       1.0890474
    81   6 C      200   1 H                                       1.0895159
    82   6 C      201   1 H                                       1.0883840
    82   6 C      202   1 H                                       1.0872207
    82   6 C      203   1 H                                       1.0878426
    84   6 C      204   1 H                                       1.0787548
    88   6 C      205   1 H                                       1.0736066
    92   6 C      206   1 H                                       1.0745739
    96   6 C      207   1 H                                       1.0785911
    97   6 C      208   1 H                                       1.0780218
   100   6 C      209   1 H                                       1.0893590
   100   6 C      210   1 H                                       1.0900001
   101   6 C      211   1 H                                       1.0877529
   101   6 C      212   1 H                                       1.0884878
   101   6 C      213   1 H                                       1.0887045
   104   6 C      214   1 H                                       1.0788786
   109   6 C      215   1 H                                       1.0797914
   110   6 C      216   1 H                                       1.0791282
   113   6 C      217   1 H                                       1.0901550
   113   6 C      218   1 H                                       1.0876479
   114   6 C      219   1 H                                       1.0880966
   114   6 C      220   1 H                                       1.0885989
   114   6 C      221   1 H                                       1.0882479
   116   6 C      222   1 H                                       1.0777025
   120   6 C      223   1 H                                       1.0741780
   124   6 C      224   1 H                                       1.0752693
   128   6 C      225   1 H                                       1.0796696
   129   6 C      226   1 H                                       1.0778767
   132   6 C      227   1 H                                       1.0894105
   132   6 C      228   1 H                                       1.0899893
   133   6 C      229   1 H                                       1.0872539
   133   6 C      230   1 H                                       1.0879485
   133   6 C      231   1 H                                       1.0884153
   136   6 C      232   1 H                                       1.0783381
   141   6 C      233   1 H                                       1.0794471
   142   6 C      234   1 H                                       1.0791704
   145   6 C      235   1 H                                       1.0898698
   145   6 C      236   1 H                                       1.0857947
   146   6 C      237   1 H                                       1.0880228
   146   6 C      238   1 H                                       1.0892660
   146   6 C      239   1 H                                       1.0884615
   148   6 C      240   1 H                                       1.0791218
   152   6 C      241   1 H                                       1.0749669
   153   6 C      242   1 H                                       1.0724971

 * 4 distinct bonds (by element types)

   Z      Z             #   av. dist./Å        max./Å        min./Å
   1 H    6 C          88     1.0846803     1.0938338     1.0720008
   6 C    6 C         115     1.4113822     1.5292175     1.3474882
   6 C    9 F           6     1.3417726     1.3453648     1.3392461
   6 C   16 S          20     1.7459525     1.7605042     1.7296980


optimized geometry written to: xtbopt.mol


           -------------------------------------------------
          | TOTAL ENERGY             -431.055016965322 Eh   |
          | GRADIENT NORM               0.000479159414 Eh/α |
          | HOMO-LUMO GAP               1.399442187664 eV   |
           -------------------------------------------------

------------------------------------------------------------------------
 * finished run on 2022/03/04 at 03:06:46.963     
------------------------------------------------------------------------
 total:
 * wall-time:     0 d,  0 h,  2 min, 39.165 sec
 *  cpu-time:     0 d,  0 h, 21 min, 13.072 sec
 * ratio c/w:     7.998 speedup
 SCF:
 * wall-time:     0 d,  0 h,  0 min,  1.146 sec
 *  cpu-time:     0 d,  0 h,  0 min,  9.139 sec
 * ratio c/w:     7.974 speedup
 ANC optimizer:
 * wall-time:     0 d,  0 h,  2 min, 37.867 sec
 *  cpu-time:     0 d,  0 h, 21 min,  2.875 sec
 * ratio c/w:     8.000 speedup

