      -----------------------------------------------------------      
     |                   =====================                   |     
     |                           x T B                           |     
     |                   =====================                   |     
     |                         S. Grimme                         |     
     |          Mulliken Center for Theoretical Chemistry        |     
     |                    University of Bonn                     |     
      -----------------------------------------------------------      

   * xtb version 6.4.1 (unknown) compiled by 'oda6@login1.crc.pitt.edu' on 2021-06-25

   xtb is free software: you can redistribute it and/or modify it under
   the terms of the GNU Lesser General Public License as published by
   the Free Software Foundation, either version 3 of the License, or
   (at your option) any later version.
   
   xtb is distributed in the hope that it will be useful,
   but WITHOUT ANY WARRANTY; without even the implied warranty of
   MERCHANTABILITY or FITNESS FOR A PARTICULAR PURPOSE.  See the
   GNU Lesser General Public License for more details.
   
   Cite this work as:
   * C. Bannwarth, E. Caldeweyher, S. Ehlert, A. Hansen, P. Pracht,
     J. Seibert, S. Spicher, S. Grimme, WIREs Comput. Mol. Sci., 2020, 11,
     e01493. DOI: 10.1002/wcms.1493
   
   for GFN2-xTB:
   * C. Bannwarth, S. Ehlert and S. Grimme., J. Chem. Theory Comput., 2019,
     15, 1652-1671. DOI: 10.1021/acs.jctc.8b01176
   for GFN1-xTB:
   * S. Grimme, C. Bannwarth, P. Shushkov, J. Chem. Theory Comput., 2017,
     13, 1989-2009. DOI: 10.1021/acs.jctc.7b00118
   for GFN0-xTB:
   * P. Pracht, E. Caldeweyher, S. Ehlert, S. Grimme, ChemRxiv, 2019, preprint.
     DOI: 10.26434/chemrxiv.8326202.v1
   for GFN-FF:
   * S. Spicher and S. Grimme, Angew. Chem. Int. Ed., 2020, 59, 15665-15673.
     DOI: 10.1002/anie.202004239
   
   for DFT-D4:
   * E. Caldeweyher, C. Bannwarth and S. Grimme, J. Chem. Phys., 2017,
     147, 034112. DOI: 10.1063/1.4993215
   * E. Caldeweyher, S. Ehlert, A. Hansen, H. Neugebauer, S. Spicher,
     C. Bannwarth and S. Grimme, J. Chem. Phys., 2019, 150, 154122.
     DOI: 10.1063/1.5090222
   * E. Caldeweyher, J.-M. Mewes, S. Ehlert and S. Grimme, Phys. Chem. Chem. Phys.
     2020, 22, 8499-8512. DOI: 10.1039/D0CP00502A
   
   for sTDA-xTB:
   * S. Grimme and C. Bannwarth, J. Chem. Phys., 2016, 145, 054103.
     DOI: 10.1063/1.4959605
   
   in the mass-spec context:
   * V. Asgeirsson, C. Bauer and S. Grimme, Chem. Sci., 2017, 8, 4879.
     DOI: 10.1039/c7sc00601b
   * J. Koopman and S. Grimme, ACS Omega 2019, 4, 12, 15120-15133.
     DOI: 10.1021/acsomega.9b02011
   
   for metadynamics refer to:
   * S. Grimme, J. Chem. Theory Comput., 2019, 155, 2847-2862
     DOI: 10.1021/acs.jctc.9b00143
   
   for SPH calculations refer to:
   * S. Spicher and S. Grimme, J. Chem. Theory Comput., 2021, 17, 1701-1714
     DOI: 10.1021/acs.jctc.0c01306
   
   with help from (in alphabetical order)
   P. Atkinson, C. Bannwarth, F. Bohle, G. Brandenburg, E. Caldeweyher
   M. Checinski, S. Dohm, S. Ehlert, S. Ehrlich, I. Gerasimov, J. Koopman
   C. Lavigne, S. Lehtola, F. März, M. Müller, F. Musil, H. Neugebauer
   J. Pisarek, C. Plett, P. Pracht, J. Seibert, P. Shushkov, S. Spicher
   M. Stahn, M. Steiner, T. Strunk, J. Stückrath, T. Rose, and J. Unsleber
   
 * started run on 2022/03/01 at 10:33:17.184     

           -------------------------------------------------
          |                Calculation Setup                |
           -------------------------------------------------

          program call               : /ihome/ghutchison/oda6/xtb/xtb-641/bin/xtb ../../FF_optimized/751_61_101111.mol -opt
          hostname                   : smp-n90
          coordinate file            : ../../FF_optimized/751_61_101111.mol
          omp threads                :                     8
          number of atoms            :                   225
          number of electrons        :                   810
          charge                     :                     0
          spin                       :                   0.0
          first test random number   :      0.42399908604097

   ID    Z sym.   atoms
    1    6 C      1-5, 7-10, 12, 14-17, 19-23, 26, 28, 29, 31, 33-39, 41-45,
                  47-50, 52, 54-57, 59-63, 66, 68, 69, 71-75, 77-80, 82,
                  84-87, 89-93, 96, 98, 99, 101-105, 107-110, 112, 114-117,
                  119-123, 126, 128, 129, 131-135, 137-140, 142, 144-147,
                  149-153, 156, 158, 159
    2   16 S      6, 18, 27, 30, 32, 46, 58, 67, 70, 76, 88, 97, 100, 106,
                  118, 127, 130, 136, 148, 157, 160
    3   17 Cl     11, 13, 24, 25, 51, 53, 64, 65, 81, 83, 94, 95, 111, 113,
                  124, 125, 141, 143, 154, 155
    4    9 F      40
    5    1 H      161-225
########################################################################
[WARNING] Please study the warnings concerning your input carefully
-1- prog_main_parseArguments: the use of '-opt' is discouraged, please use '--opt' next time
########################################################################

           -------------------------------------------------
          |                 G F N 2 - x T B                 |
           -------------------------------------------------

        Reference                      10.1021/acs.jctc.8b01176
      * Hamiltonian:
        H0-scaling (s, p, d)           1.850000    2.230000    2.230000
        zeta-weighting                 0.500000
      * Dispersion:
        s8                             2.700000
        a1                             0.520000
        a2                             5.000000
        s9                             5.000000
      * Repulsion:
        kExp                           1.500000    1.000000
        rExp                           1.000000
      * Coulomb:
        alpha                          2.000000
        third order                    shell-resolved
        anisotropic                    true
        a3                             3.000000
        a5                             4.000000
        cn-shift                       1.200000
        cn-exp                         4.000000
        max-rad                        5.000000


          ...................................................
          :                      SETUP                      :
          :.................................................:
          :  # basis functions                 951          :
          :  # atomic orbitals                 910          :
          :  # shells                          426          :
          :  # electrons                       810          :
          :  max. iterations                   250          :
          :  Hamiltonian                  GFN2-xTB          :
          :  restarted?                      false          :
          :  GBSA solvation                  false          :
          :  PC potential                    false          :
          :  electronic temp.          300.0000000     K    :
          :  accuracy                    1.0000000          :
          :  -> integral cutoff          0.2500000E+02      :
          :  -> integral neglect         0.1000000E-07      :
          :  -> SCF convergence          0.1000000E-05 Eh   :
          :  -> wf. convergence          0.1000000E-03 e    :
          :  Broyden damping             0.4000000          :
          ...................................................

 iter      E             dE          RMSdq      gap      omega  full diag
   1   -454.8060625 -0.454806E+03  0.419E+00    1.52       0.0  T
   2   -455.0456150 -0.239552E+00  0.240E+00    1.47       1.0  T
   3   -454.7534910  0.292124E+00  0.138E+00    1.55       1.0  T
   4   -455.0722296 -0.318739E+00  0.600E-01    1.44       1.0  T
   5   -455.1244226 -0.521930E-01  0.252E-01    1.48       1.0  T
   6   -455.1300251 -0.560255E-02  0.167E-01    1.48       1.0  T
   7   -455.1344043 -0.437921E-02  0.913E-02    1.48       1.0  T
   8   -455.1350823 -0.677959E-03  0.651E-02    1.48       1.0  T
   9   -455.1353129 -0.230647E-03  0.476E-02    1.48       1.0  T
  10   -455.1354794 -0.166419E-03  0.265E-02    1.48       1.0  T
  11   -455.1355392 -0.598047E-04  0.159E-02    1.48       1.0  T
  12   -455.1355676 -0.284666E-04  0.864E-03    1.48       1.0  T
  13   -455.1355750 -0.739992E-05  0.429E-03    1.48       1.6  T
  14   -455.1355771 -0.203880E-05  0.224E-03    1.48       3.0  T
  15   -455.1355775 -0.403625E-06  0.160E-03    1.48       4.2  T
  16   -455.1355776 -0.130435E-06  0.116E-03    1.48       5.8  T
  17   -455.1355777 -0.113564E-06  0.801E-04    1.48       8.3  T
  18   -455.1355778 -0.565074E-07  0.548E-04    1.48      12.2  T

   *** convergence criteria satisfied after 18 iterations ***

         #    Occupation            Energy/Eh            Energy/eV
      -------------------------------------------------------------
         1        2.0000           -1.0665627             -29.0226
       ...           ...                  ...                  ...
       399        2.0000           -0.3932272             -10.7003
       400        2.0000           -0.3826023             -10.4111
       401        2.0000           -0.3774124             -10.2699
       402        2.0000           -0.3759185             -10.2293
       403        2.0000           -0.3753771             -10.2145
       404        2.0000           -0.3721023             -10.1254
       405        2.0000           -0.3692323             -10.0473 (HOMO)
       406                         -0.3149022              -8.5689 (LUMO)
       407                         -0.3092639              -8.4155
       408                         -0.3004907              -8.1768
       409                         -0.2953074              -8.0357
       410                         -0.2907872              -7.9127
       ...                                ...                  ...
       910                          0.7781030              21.1733
      -------------------------------------------------------------
                  HL-Gap            0.0543302 Eh            1.4784 eV
             Fermi-level           -0.3420673 Eh           -9.3081 eV

 SCC (total)                   0 d,  0 h,  0 min,  1.624 sec
 SCC setup                      ...        0 min,  0.004 sec (  0.253%)
 Dispersion                     ...        0 min,  0.012 sec (  0.720%)
 classical contributions        ...        0 min,  0.000 sec (  0.028%)
 integral evaluation            ...        0 min,  0.072 sec (  4.460%)
 iterations                     ...        0 min,  1.325 sec ( 81.587%)
 molecular gradient             ...        0 min,  0.203 sec ( 12.513%)
 printout                       ...        0 min,  0.007 sec (  0.433%)

         :::::::::::::::::::::::::::::::::::::::::::::::::::::
         ::                     SUMMARY                     ::
         :::::::::::::::::::::::::::::::::::::::::::::::::::::
         :: total energy            -449.892406449885 Eh    ::
         :: gradient norm              0.406397786129 Eh/a0 ::
         :: HOMO-LUMO gap              1.478399176440 eV    ::
         ::.................................................::
         :: SCC energy              -455.135577776492 Eh    ::
         :: -> isotropic ES            0.106262728914 Eh    ::
         :: -> anisotropic ES         -0.024650221729 Eh    ::
         :: -> anisotropic XC          0.114738346878 Eh    ::
         :: -> dispersion             -0.439080260241 Eh    ::
         :: repulsion energy           5.233946117822 Eh    ::
         :: add. restraining           0.000000000000 Eh    ::
         :: total charge               0.000000000000 e     ::
         :::::::::::::::::::::::::::::::::::::::::::::::::::::

      ----------------------------------------------------------- 
     |                   =====================                   |
     |                        A N C O P T                        |
     |                   =====================                   |
     |               Approximate Normal Coordinate               |
     |                Rational Function Optimizer                |
      ----------------------------------------------------------- 

          ...................................................
          :                      SETUP                      :
          :.................................................:
          :   optimization level            normal          :
          :   max. optcycles                   675          :
          :   ANC micro-cycles                  20          :
          :   degrees of freedom               669          :
          :.................................................:
          :   RF solver                   davidson          :
          :   write xtbopt.log                true          :
          :   linear?                        false          :
          :   energy convergence         0.5000000E-05 Eh   :
          :   grad. convergence          0.1000000E-02 Eh/α :
          :   maximium RF displ.         1.0000000          :
          :   Hlow (freq-cutoff)         0.1000000E-01      :
          :   Hmax (freq-cutoff)         5.0000000          :
          :   S6 in model hess.         20.0000000          :
          ...................................................

generating ANC from model Hessian ...
Using Lindh-Hessian (1995)
 Shifting diagonal of input Hessian by   9.995125219813713E-003
 Lowest  eigenvalues of input Hessian
    0.000000    0.000000    0.000000    0.000000    0.000000    0.000000
    0.010000    0.010003    0.010007    0.010010    0.010018    0.010022
    0.010031    0.010047    0.010054    0.010074    0.010087    0.010091
 Highest eigenvalues
    2.076982    2.092948    2.097422    2.101110    2.104852    2.109234
 

........................................................................
.............................. CYCLE    1 ..............................
........................................................................
   1   -455.1355778 -0.455136E+03  0.336E-04    1.48       0.0  T
   2   -455.1355778  0.766192E-09  0.306E-04    1.48      21.8  T
   3   -455.1355778 -0.102461E-07  0.231E-04    1.48      28.9  T
     SCC iter.                  ...        0 min,  0.227 sec
     gradient                   ...        0 min,  0.199 sec
 * total energy  :  -449.8924065 Eh     change       -0.4011434E-07 Eh
   gradient norm :     0.4063980 Eh/α   predicted     0.0000000E+00 (-100.00%)
   displ. norm   :     0.4172719 α      lambda       -0.1344461E+00
   maximum displ.:     0.1292989 α      in ANC's #566, #403, #488, ...

........................................................................
.............................. CYCLE    2 ..............................
........................................................................
   1   -455.2813350 -0.455281E+03  0.270E-01    1.50       0.0  T
   2   -455.2829531 -0.161813E-02  0.162E-01    1.51       1.0  T
   3   -455.2828480  0.105062E-03  0.879E-02    1.50       1.0  T
   4   -455.2837777 -0.929630E-03  0.408E-02    1.51       1.0  T
   5   -455.2838994 -0.121692E-03  0.202E-02    1.50       1.0  T
   6   -455.2839282 -0.288523E-04  0.136E-02    1.50       1.0  T
   7   -455.2839457 -0.175127E-04  0.903E-03    1.50       1.0  T
   8   -455.2839493 -0.354822E-05  0.699E-03    1.50       1.0  T
   9   -455.2839524 -0.315930E-05  0.444E-03    1.50       1.5  T
  10   -455.2839554 -0.298664E-05  0.212E-03    1.50       3.1  T
  11   -455.2839560 -0.556498E-06  0.996E-04    1.50       6.7  T
  12   -455.2839561 -0.787826E-07  0.638E-04    1.50      10.5  T
     SCC iter.                  ...        0 min,  0.904 sec
     gradient                   ...        0 min,  0.199 sec
 * total energy  :  -449.9960202 Eh     change       -0.1036137E+00 Eh
   gradient norm :     0.2292302 Eh/α   predicted    -0.7893601E-01 ( -23.82%)
   displ. norm   :     0.4159252 α      lambda       -0.7850119E-01
   maximum displ.:     0.1448540 α      in ANC's #566, #488, #617, ...

........................................................................
.............................. CYCLE    3 ..............................
........................................................................
   1   -455.3967356 -0.455397E+03  0.279E-01    1.53       0.0  T
   2   -455.3990885 -0.235289E-02  0.166E-01    1.54       1.0  T
   3   -455.3994072 -0.318677E-03  0.894E-02    1.53       1.0  T
   4   -455.4001640 -0.756800E-03  0.481E-02    1.54       1.0  T
   5   -455.4003424 -0.178387E-03  0.219E-02    1.54       1.0  T
   6   -455.4003580 -0.155878E-04  0.165E-02    1.54       1.0  T
   7   -455.4003841 -0.261496E-04  0.108E-02    1.54       1.0  T
   8   -455.4003906 -0.652112E-05  0.739E-03    1.54       1.0  T
   9   -455.4003955 -0.487332E-05  0.387E-03    1.54       1.7  T
  10   -455.4003966 -0.108451E-05  0.247E-03    1.54       2.7  T
  11   -455.4003978 -0.117094E-05  0.940E-04    1.54       7.1  T
  12   -455.4003978 -0.420989E-07  0.656E-04    1.54      10.2  T
  13   -455.4003978 -0.374221E-07  0.382E-04    1.54      17.5  T
     SCC iter.                  ...        0 min,  0.970 sec
     gradient                   ...        0 min,  0.200 sec
 * total energy  :  -450.0439754 Eh     change       -0.4795526E-01 Eh
   gradient norm :     0.0592292 Eh/α   predicted    -0.4604543E-01 (  -3.98%)
   displ. norm   :     0.3719728 α      lambda       -0.1013476E-01
   maximum displ.:     0.1094396 α      in ANC's #105, #99, #72, ...

........................................................................
.............................. CYCLE    4 ..............................
........................................................................
   1   -455.4308901 -0.455431E+03  0.110E-01    1.52       0.0  T
   2   -455.4310904 -0.200301E-03  0.635E-02    1.53       1.0  T
   3   -455.4310188  0.715417E-04  0.349E-02    1.52       1.0  T
   4   -455.4311787 -0.159907E-03  0.157E-02    1.52       1.0  T
   5   -455.4311970 -0.183028E-04  0.798E-03    1.52       1.0  T
   6   -455.4311984 -0.137863E-05  0.635E-03    1.52       1.1  T
   7   -455.4312035 -0.510663E-05  0.396E-03    1.52       1.7  T
   8   -455.4312042 -0.662004E-06  0.303E-03    1.52       2.2  T
   9   -455.4312051 -0.952435E-06  0.157E-03    1.52       4.2  T
  10   -455.4312054 -0.272325E-06  0.783E-04    1.52       8.5  T
  11   -455.4312055 -0.803094E-07  0.361E-04    1.52      18.5  T
     SCC iter.                  ...        0 min,  0.811 sec
     gradient                   ...        0 min,  0.199 sec
 * total energy  :  -450.0506168 Eh     change       -0.6641341E-02 Eh
   gradient norm :     0.0212340 Eh/α   predicted    -0.5768570E-02 ( -13.14%)
   displ. norm   :     0.3852139 α      lambda       -0.3098389E-02
   maximum displ.:     0.1341545 α      in ANC's #72, #99, #105, ...

........................................................................
.............................. CYCLE    5 ..............................
........................................................................
   1   -455.4506546 -0.455451E+03  0.635E-02    1.51       0.0  T
   2   -455.4506692 -0.145488E-04  0.350E-02    1.51       1.0  T
   3   -455.4506435  0.256880E-04  0.131E-02    1.51       1.0  T
   4   -455.4506717 -0.282012E-04  0.602E-03    1.51       1.1  T
   5   -455.4506736 -0.186735E-05  0.385E-03    1.51       1.7  T
   6   -455.4506761 -0.254198E-05  0.190E-03    1.51       3.5  T
   7   -455.4506765 -0.376369E-06  0.131E-03    1.51       5.1  T
   8   -455.4506765 -0.671634E-07  0.102E-03    1.51       6.6  T
   9   -455.4506766 -0.810568E-07  0.577E-04    1.51      11.5  T
  10   -455.4506767 -0.444996E-07  0.270E-04    1.51      24.7  T
     SCC iter.                  ...        0 min,  0.743 sec
     gradient                   ...        0 min,  0.200 sec
 * total energy  :  -450.0528224 Eh     change       -0.2205689E-02 Eh
   gradient norm :     0.0107506 Eh/α   predicted    -0.1779083E-02 ( -19.34%)
   displ. norm   :     0.4133400 α      lambda       -0.1665302E-02
   maximum displ.:     0.1503694 α      in ANC's #72, #99, #105, ...

........................................................................
.............................. CYCLE    6 ..............................
........................................................................
   1   -455.4676911 -0.455468E+03  0.591E-02    1.50       0.0  T
   2   -455.4676981 -0.697828E-05  0.323E-02    1.50       1.0  T
   3   -455.4676848  0.132583E-04  0.970E-03    1.50       1.0  T
   4   -455.4676987 -0.138855E-04  0.439E-03    1.50       1.5  T
   5   -455.4676995 -0.853443E-06  0.268E-03    1.50       2.5  T
   6   -455.4677010 -0.148451E-05  0.996E-04    1.50       6.7  T
   7   -455.4677012 -0.162508E-06  0.548E-04    1.50      12.2  T
   8   -455.4677012 -0.158219E-07  0.422E-04    1.50      15.8  T
     SCC iter.                  ...        0 min,  0.599 sec
     gradient                   ...        0 min,  0.201 sec
 * total energy  :  -450.0540469 Eh     change       -0.1224453E-02 Eh
   gradient norm :     0.0102707 Eh/α   predicted    -0.9750153E-03 ( -20.37%)
   displ. norm   :     0.4516614 α      lambda       -0.1166116E-02
   maximum displ.:     0.1464389 α      in ANC's #72, #37, #58, ...

........................................................................
.............................. CYCLE    7 ..............................
........................................................................
   1   -455.4790621 -0.455479E+03  0.635E-02    1.49       0.0  T
   2   -455.4790723 -0.102074E-04  0.350E-02    1.49       1.0  T
   3   -455.4790539  0.184609E-04  0.111E-02    1.49       1.0  T
   4   -455.4790738 -0.199363E-04  0.468E-03    1.49       1.4  T
   5   -455.4790756 -0.181230E-05  0.223E-03    1.49       3.0  T
   6   -455.4790763 -0.656481E-06  0.115E-03    1.49       5.8  T
   7   -455.4790765 -0.249572E-06  0.572E-04    1.49      11.7  T
   8   -455.4790765 -0.241398E-07  0.441E-04    1.49      15.1  T
     SCC iter.                  ...        0 min,  0.587 sec
     gradient                   ...        0 min,  0.200 sec
 * total energy  :  -450.0549637 Eh     change       -0.9168116E-03 Eh
   gradient norm :     0.0106312 Eh/α   predicted    -0.7020900E-03 ( -23.42%)
   displ. norm   :     0.5544242 α      lambda       -0.1168807E-02
   maximum displ.:     0.1810864 α      in ANC's #37, #58, #27, ...

........................................................................
.............................. CYCLE    8 ..............................
........................................................................
   1   -455.4841219 -0.455484E+03  0.766E-02    1.48       0.0  T
   2   -455.4841355 -0.135892E-04  0.423E-02    1.48       1.0  T
   3   -455.4841118  0.236552E-04  0.124E-02    1.48       1.0  T
   4   -455.4841367 -0.248632E-04  0.562E-03    1.48       1.2  T
   5   -455.4841400 -0.330158E-05  0.237E-03    1.48       2.8  T
   6   -455.4841406 -0.631755E-06  0.120E-03    1.48       5.6  T
   7   -455.4841408 -0.219616E-06  0.688E-04    1.48       9.7  T
   8   -455.4841408 -0.175897E-07  0.568E-04    1.48      11.7  T
     SCC iter.                  ...        0 min,  0.593 sec
     gradient                   ...        0 min,  0.200 sec
 * total energy  :  -450.0559279 Eh     change       -0.9642325E-03 Eh
   gradient norm :     0.0093716 Eh/α   predicted    -0.7640513E-03 ( -20.76%)
   displ. norm   :     0.6403091 α      lambda       -0.1251056E-02
   maximum displ.:     0.2307495 α      in ANC's #37, #27, #58, ...

........................................................................
.............................. CYCLE    9 ..............................
........................................................................
   1   -455.4824077 -0.455482E+03  0.859E-02    1.48       0.0  T
   2   -455.4824209 -0.131956E-04  0.476E-02    1.48       1.0  T
   3   -455.4823959  0.250079E-04  0.127E-02    1.48       1.0  T
   4   -455.4824219 -0.259461E-04  0.600E-03    1.48       1.1  T
   5   -455.4824255 -0.362698E-05  0.255E-03    1.48       2.6  T
   6   -455.4824265 -0.952878E-06  0.112E-03    1.48       5.9  T
   7   -455.4824266 -0.147139E-06  0.739E-04    1.48       9.0  T
   8   -455.4824266 -0.191014E-07  0.587E-04    1.48      11.3  T
     SCC iter.                  ...        0 min,  0.592 sec
     gradient                   ...        0 min,  0.200 sec
 * total energy  :  -450.0569856 Eh     change       -0.1057693E-02 Eh
   gradient norm :     0.0085818 Eh/α   predicted    -0.8819963E-03 ( -16.61%)
   displ. norm   :     0.6781930 α      lambda       -0.1271773E-02
   maximum displ.:     0.2600671 α      in ANC's #37, #27, #60, ...

........................................................................
.............................. CYCLE   10 ..............................
........................................................................
   1   -455.4765580 -0.455477E+03  0.877E-02    1.47       0.0  T
   2   -455.4765687 -0.107698E-04  0.488E-02    1.47       1.0  T
   3   -455.4765448  0.239231E-04  0.124E-02    1.47       1.0  T
   4   -455.4765704 -0.255806E-04  0.572E-03    1.47       1.2  T
   5   -455.4765726 -0.225349E-05  0.274E-03    1.47       2.4  T
   6   -455.4765741 -0.147840E-05  0.998E-04    1.47       6.7  T
   7   -455.4765742 -0.659085E-07  0.774E-04    1.47       8.6  T
   8   -455.4765742 -0.209810E-07  0.606E-04    1.47      11.0  T
     SCC iter.                  ...        0 min,  0.590 sec
     gradient                   ...        0 min,  0.200 sec
 * total energy  :  -450.0580631 Eh     change       -0.1077478E-02 Eh
   gradient norm :     0.0096508 Eh/α   predicted    -0.9283726E-03 ( -13.84%)
   displ. norm   :     0.6924360 α      lambda       -0.1186361E-02
   maximum displ.:     0.2732075 α      in ANC's #37, #27, #33, ...

........................................................................
.............................. CYCLE   11 ..............................
........................................................................
   1   -455.4698803 -0.455470E+03  0.863E-02    1.46       0.0  T
   2   -455.4698903 -0.996170E-05  0.482E-02    1.46       1.0  T
   3   -455.4698666  0.236802E-04  0.123E-02    1.46       1.0  T
   4   -455.4698916 -0.249759E-04  0.569E-03    1.46       1.2  T
   5   -455.4698928 -0.124932E-05  0.340E-03    1.46       2.0  T
   6   -455.4698954 -0.255800E-05  0.118E-03    1.46       5.6  T
   7   -455.4698955 -0.143992E-06  0.868E-04    1.46       7.7  T
   8   -455.4698955 -0.450949E-07  0.638E-04    1.46      10.5  T
     SCC iter.                  ...        0 min,  0.590 sec
     gradient                   ...        0 min,  0.200 sec
 * total energy  :  -450.0590731 Eh     change       -0.1009999E-02 Eh
   gradient norm :     0.0100604 Eh/α   predicted    -0.8775969E-03 ( -13.11%)
   displ. norm   :     0.7031818 α      lambda       -0.1093423E-02
   maximum displ.:     0.2781935 α      in ANC's #37, #27, #33, ...

........................................................................
.............................. CYCLE   12 ..............................
........................................................................
   1   -455.4651263 -0.455465E+03  0.843E-02    1.45       0.0  T
   2   -455.4651361 -0.982088E-05  0.471E-02    1.45       1.0  T
   3   -455.4651166  0.194692E-04  0.116E-02    1.45       1.0  T
   4   -455.4651373 -0.206881E-04  0.542E-03    1.45       1.2  T
   5   -455.4651389 -0.156655E-05  0.296E-03    1.45       2.2  T
   6   -455.4651406 -0.176817E-05  0.123E-03    1.45       5.4  T
   7   -455.4651408 -0.163409E-06  0.880E-04    1.45       7.6  T
   8   -455.4651409 -0.456392E-07  0.649E-04    1.45      10.3  T
     SCC iter.                  ...        0 min,  0.594 sec
     gradient                   ...        0 min,  0.200 sec
 * total energy  :  -450.0600030 Eh     change       -0.9298696E-03 Eh
   gradient norm :     0.0085162 Eh/α   predicted    -0.8170474E-03 ( -12.13%)
   displ. norm   :     0.7000821 α      lambda       -0.9818589E-03
   maximum displ.:     0.2683398 α      in ANC's #37, #27, #33, ...

........................................................................
.............................. CYCLE   13 ..............................
........................................................................
   1   -455.4641577 -0.455464E+03  0.799E-02    1.44       0.0  T
   2   -455.4641663 -0.864404E-05  0.448E-02    1.44       1.0  T
   3   -455.4641479  0.184548E-04  0.110E-02    1.44       1.0  T
   4   -455.4641673 -0.194323E-04  0.516E-03    1.45       1.3  T
   5   -455.4641690 -0.169438E-05  0.273E-03    1.44       2.4  T
   6   -455.4641704 -0.142817E-05  0.123E-03    1.44       5.4  T
   7   -455.4641706 -0.163407E-06  0.879E-04    1.44       7.6  T
   8   -455.4641706 -0.448935E-07  0.645E-04    1.44      10.3  T
     SCC iter.                  ...        0 min,  0.618 sec
     gradient                   ...        0 min,  0.200 sec
 * total energy  :  -450.0608283 Eh     change       -0.8253278E-03 Eh
   gradient norm :     0.0069461 Eh/α   predicted    -0.7315439E-03 ( -11.36%)
   displ. norm   :     0.6955750 α      lambda       -0.8403814E-03
   maximum displ.:     0.2485830 α      in ANC's #27, #37, #33, ...

........................................................................
.............................. CYCLE   14 ..............................
........................................................................
   1   -455.4645588 -0.455465E+03  0.759E-02    1.43       0.0  T
   2   -455.4645663 -0.750549E-05  0.425E-02    1.44       1.0  T
   3   -455.4645482  0.181006E-04  0.107E-02    1.44       1.0  T
   4   -455.4645674 -0.192384E-04  0.483E-03    1.44       1.4  T
   5   -455.4645690 -0.162177E-05  0.236E-03    1.44       2.8  T
   6   -455.4645700 -0.993583E-06  0.111E-03    1.44       6.0  T
   7   -455.4645701 -0.126127E-06  0.808E-04    1.44       8.2  T
   8   -455.4645702 -0.383383E-07  0.597E-04    1.44      11.2  T
     SCC iter.                  ...        0 min,  0.601 sec
     gradient                   ...        0 min,  0.200 sec
 * total energy  :  -450.0615360 Eh     change       -0.7076668E-03 Eh
   gradient norm :     0.0075469 Eh/α   predicted    -0.6235070E-03 ( -11.89%)
   displ. norm   :     0.6664425 α      lambda       -0.7615501E-03
   maximum displ.:     0.2428188 α      in ANC's #27, #33, #37, ...

........................................................................
.............................. CYCLE   15 ..............................
........................................................................
   1   -455.4725973 -0.455473E+03  0.656E-02    1.43       0.0  T
   2   -455.4726031 -0.581143E-05  0.369E-02    1.43       1.0  T
   3   -455.4725816  0.214288E-04  0.108E-02    1.43       1.0  T
   4   -455.4726050 -0.233610E-04  0.433E-03    1.43       1.5  T
   5   -455.4726061 -0.109095E-05  0.227E-03    1.43       2.9  T
   6   -455.4726069 -0.783509E-06  0.124E-03    1.43       5.4  T
   7   -455.4726070 -0.131501E-06  0.946E-04    1.43       7.0  T
   8   -455.4726071 -0.455559E-07  0.701E-04    1.43       9.5  T
     SCC iter.                  ...        0 min,  0.592 sec
     gradient                   ...        0 min,  0.200 sec
 * total energy  :  -450.0621419 Eh     change       -0.6059498E-03 Eh
   gradient norm :     0.0086076 Eh/α   predicted    -0.5498963E-03 (  -9.25%)
   displ. norm   :     0.7607777 α      lambda       -0.7609868E-03
   maximum displ.:     0.2839212 α      in ANC's #27, #33, #37, ...

........................................................................
.............................. CYCLE   16 ..............................
........................................................................
   1   -455.4618129 -0.455462E+03  0.856E-02    1.42       0.0  T
   2   -455.4618309 -0.179840E-04  0.475E-02    1.43       1.0  T
   3   -455.4617940  0.368603E-04  0.153E-02    1.43       1.0  T
   4   -455.4618348 -0.407779E-04  0.640E-03    1.43       1.0  T
   5   -455.4618385 -0.368002E-05  0.310E-03    1.43       2.1  T
   6   -455.4618394 -0.858775E-06  0.174E-03    1.43       3.8  T
   7   -455.4618397 -0.317629E-06  0.125E-03    1.43       5.3  T
   8   -455.4618397 -0.504628E-07  0.947E-04    1.43       7.0  T
   9   -455.4618398 -0.606855E-07  0.601E-04    1.43      11.1  T
     SCC iter.                  ...        0 min,  0.663 sec
     gradient                   ...        0 min,  0.200 sec
 * total energy  :  -450.0626036 Eh     change       -0.4617050E-03 Eh
   gradient norm :     0.0114260 Eh/α   predicted    -0.6007181E-03 (  30.11%)
   displ. norm   :     0.4869347 α      lambda       -0.6486473E-03
   maximum displ.:     0.1721441 α      in ANC's #27, #33, #6, ...

........................................................................
.............................. CYCLE   17 ..............................
........................................................................
   1   -455.4731405 -0.455473E+03  0.416E-02    1.43       0.0  T
   2   -455.4731439 -0.341389E-05  0.237E-02    1.43       1.0  T
   3   -455.4731307  0.131523E-04  0.839E-03    1.43       1.0  T
   4   -455.4731455 -0.147826E-04  0.307E-03    1.43       2.2  T
   5   -455.4731462 -0.651894E-06  0.178E-03    1.43       3.7  T
   6   -455.4731464 -0.295333E-06  0.111E-03    1.43       6.0  T
   7   -455.4731465 -0.782489E-07  0.870E-04    1.43       7.7  T
   8   -455.4731466 -0.359168E-07  0.606E-04    1.43      11.0  T
     SCC iter.                  ...        0 min,  0.588 sec
     gradient                   ...        0 min,  0.200 sec
 * total energy  :  -450.0630856 Eh     change       -0.4819353E-03 Eh
   gradient norm :     0.0064945 Eh/α   predicted    -0.4012308E-03 ( -16.75%)
   displ. norm   :     0.5947052 α      lambda       -0.4632716E-03
   maximum displ.:     0.2239640 α      in ANC's #27, #33, #6, ...

........................................................................
.............................. CYCLE   18 ..............................
........................................................................
   1   -455.4739802 -0.455474E+03  0.510E-02    1.43       0.0  T
   2   -455.4739835 -0.326849E-05  0.286E-02    1.43       1.0  T
   3   -455.4739738  0.972985E-05  0.764E-03    1.43       1.0  T
   4   -455.4739842 -0.104738E-04  0.331E-03    1.43       2.0  T
   5   -455.4739849 -0.664713E-06  0.172E-03    1.43       3.9  T
   6   -455.4739854 -0.482603E-06  0.863E-04    1.43       7.7  T
   7   -455.4739855 -0.729208E-07  0.650E-04    1.43      10.3  T
     SCC iter.                  ...        0 min,  0.514 sec
     gradient                   ...        0 min,  0.200 sec
 * total energy  :  -450.0634683 Eh     change       -0.3827224E-03 Eh
   gradient norm :     0.0066264 Eh/α   predicted    -0.3135633E-03 ( -18.07%)
   displ. norm   :     0.6036369 α      lambda       -0.4942604E-03
   maximum displ.:     0.2189670 α      in ANC's #27, #6, #33, ...

........................................................................
.............................. CYCLE   19 ..............................
........................................................................
   1   -455.4767582 -0.455477E+03  0.473E-02    1.43       0.0  T
   2   -455.4767616 -0.341830E-05  0.267E-02    1.43       1.0  T
   3   -455.4767512  0.104102E-04  0.785E-03    1.43       1.0  T
   4   -455.4767626 -0.114500E-04  0.315E-03    1.43       2.1  T
   5   -455.4767632 -0.552268E-06  0.178E-03    1.43       3.8  T
   6   -455.4767637 -0.474167E-06  0.953E-04    1.43       7.0  T
   7   -455.4767637 -0.724937E-07  0.742E-04    1.43       9.0  T
     SCC iter.                  ...        0 min,  0.514 sec
     gradient                   ...        0 min,  0.200 sec
 * total energy  :  -450.0638598 Eh     change       -0.3914964E-03 Eh
   gradient norm :     0.0075515 Eh/α   predicted    -0.3371820E-03 ( -13.87%)
   displ. norm   :     0.6698002 α      lambda       -0.4729007E-03
   maximum displ.:     0.2476046 α      in ANC's #27, #33, #6, ...

........................................................................
.............................. CYCLE   20 ..............................
........................................................................
   1   -455.4715847 -0.455472E+03  0.537E-02    1.43       0.0  T
   2   -455.4715886 -0.397909E-05  0.302E-02    1.43       1.0  T
   3   -455.4715795  0.911413E-05  0.779E-03    1.43       1.0  T
   4   -455.4715891 -0.959249E-05  0.361E-03    1.43       1.8  T
   5   -455.4715900 -0.932522E-06  0.189E-03    1.43       3.5  T
   6   -455.4715906 -0.584798E-06  0.997E-04    1.43       6.7  T
   7   -455.4715907 -0.847856E-07  0.775E-04    1.43       8.6  T
     SCC iter.                  ...        0 min,  0.523 sec
     gradient                   ...        0 min,  0.200 sec
 * total energy  :  -450.0642338 Eh     change       -0.3739817E-03 Eh
   gradient norm :     0.0079938 Eh/α   predicted    -0.3425302E-03 (  -8.41%)
   displ. norm   :     0.6052620 α      lambda       -0.4604189E-03
   maximum displ.:     0.1970706 α      in ANC's #27, #6, #5, ...
 * RMSD in coord.:     0.6033895 α      energy gain  -0.1718273E+00 Eh

generating ANC from model Hessian ...
Using Lindh-Hessian (1995)
 Shifting diagonal of input Hessian by   9.995938105311086E-003
 Lowest  eigenvalues of input Hessian
    0.000000    0.000000    0.000000    0.000000    0.000000    0.000000
    0.010000    0.010003    0.010007    0.010011    0.010018    0.010023
    0.010029    0.010046    0.010052    0.010075    0.010084    0.010099
 Highest eigenvalues
    2.070248    2.075273    2.077033    2.081004    2.096253    2.116650
 

........................................................................
.............................. CYCLE   21 ..............................
........................................................................
   1   -455.4726186 -0.455473E+03  0.422E-02    1.43       0.0  T
   2   -455.4726212 -0.259240E-05  0.238E-02    1.43       1.0  T
   3   -455.4726136  0.765923E-05  0.678E-03    1.43       1.0  T
   4   -455.4726216 -0.808682E-05  0.301E-03    1.43       2.2  T
   5   -455.4726225 -0.839224E-06  0.159E-03    1.43       4.2  T
   6   -455.4726228 -0.333169E-06  0.936E-04    1.43       7.1  T
   7   -455.4726229 -0.492251E-07  0.778E-04    1.43       8.6  T
     SCC iter.                  ...        0 min,  0.532 sec
     gradient                   ...        0 min,  0.201 sec
 * total energy  :  -450.0646021 Eh     change       -0.3683674E-03 Eh
   gradient norm :     0.0073999 Eh/α   predicted     0.0000000E+00 (-100.00%)
   displ. norm   :     0.0920186 α      lambda       -0.1627115E-03
   maximum displ.:     0.0293432 α      in ANC's #5, #72, #18, ...

........................................................................
.............................. CYCLE   22 ..............................
........................................................................
   1   -455.4730973 -0.455473E+03  0.121E-02    1.43       0.0  T
   2   -455.4730978 -0.550958E-06  0.693E-03    1.43       1.0  T
   3   -455.4730956  0.219318E-05  0.357E-03    1.43       1.9  T
   4   -455.4730980 -0.243616E-05  0.121E-03    1.43       5.5  T
   5   -455.4730982 -0.107091E-06  0.829E-04    1.43       8.0  T
   6   -455.4730983 -0.110251E-06  0.413E-04    1.43      16.2  T
     SCC iter.                  ...        0 min,  0.451 sec
     gradient                   ...        0 min,  0.200 sec
 * total energy  :  -450.0647528 Eh     change       -0.1506350E-03 Eh
   gradient norm :     0.0041850 Eh/α   predicted    -0.8931452E-04 ( -40.71%)
   displ. norm   :     0.3138811 α      lambda       -0.3950109E-03
   maximum displ.:     0.1045190 α      in ANC's #5, #46, #18, ...

........................................................................
.............................. CYCLE   23 ..............................
........................................................................
   1   -455.4739793 -0.455474E+03  0.333E-02    1.42       0.0  T
   2   -455.4739829 -0.364779E-05  0.190E-02    1.42       1.0  T
   3   -455.4739715  0.114715E-04  0.845E-03    1.42       1.0  T
   4   -455.4739848 -0.132949E-04  0.273E-03    1.42       2.4  T
   5   -455.4739852 -0.457063E-06  0.162E-03    1.42       4.1  T
   6   -455.4739855 -0.288230E-06  0.992E-04    1.42       6.7  T
   7   -455.4739856 -0.706505E-07  0.774E-04    1.42       8.6  T
     SCC iter.                  ...        0 min,  0.527 sec
     gradient                   ...        0 min,  0.200 sec
 * total energy  :  -450.0650155 Eh     change       -0.2626935E-03 Eh
   gradient norm :     0.0043884 Eh/α   predicted    -0.2169664E-03 ( -17.41%)
   displ. norm   :     0.2603949 α      lambda       -0.1724860E-03
   maximum displ.:     0.0942212 α      in ANC's #5, #18, #46, ...

........................................................................
.............................. CYCLE   24 ..............................
........................................................................
   1   -455.4742032 -0.455474E+03  0.226E-02    1.42       0.0  T
   2   -455.4742042 -0.965053E-06  0.128E-02    1.42       1.0  T
   3   -455.4742001  0.407891E-05  0.481E-03    1.42       1.4  T
   4   -455.4742046 -0.445573E-05  0.180E-03    1.42       3.7  T
   5   -455.4742047 -0.149233E-06  0.116E-03    1.42       5.7  T
   6   -455.4742049 -0.207393E-06  0.652E-04    1.42      10.2  T
   7   -455.4742050 -0.341565E-07  0.509E-04    1.42      13.1  T
     SCC iter.                  ...        0 min,  0.526 sec
     gradient                   ...        0 min,  0.200 sec
 * total energy  :  -450.0651581 Eh     change       -0.1426655E-03 Eh
   gradient norm :     0.0066111 Eh/α   predicted    -0.9267754E-04 ( -35.04%)
   displ. norm   :     0.4451307 α      lambda       -0.2896206E-03
   maximum displ.:     0.1661576 α      in ANC's #5, #18, #46, ...

........................................................................
.............................. CYCLE   25 ..............................
........................................................................
   1   -455.4740396 -0.455474E+03  0.350E-02    1.42       0.0  T
   2   -455.4740410 -0.142590E-05  0.196E-02    1.42       1.0  T
   3   -455.4740348  0.619971E-05  0.583E-03    1.42       1.1  T
   4   -455.4740413 -0.653584E-05  0.237E-03    1.42       2.8  T
   5   -455.4740418 -0.440248E-06  0.110E-03    1.42       6.0  T
   6   -455.4740420 -0.205472E-06  0.504E-04    1.42      13.2  T
   7   -455.4740420 -0.168081E-07  0.404E-04    1.42      16.5  T
     SCC iter.                  ...        0 min,  0.527 sec
     gradient                   ...        0 min,  0.200 sec
 * total energy  :  -450.0653982 Eh     change       -0.2400976E-03 Eh
   gradient norm :     0.0072437 Eh/α   predicted    -0.1735043E-03 ( -27.74%)
   displ. norm   :     0.5473564 α      lambda       -0.3479722E-03
   maximum displ.:     0.2137874 α      in ANC's #5, #18, #6, ...

........................................................................
.............................. CYCLE   26 ..............................
........................................................................
   1   -455.4735004 -0.455474E+03  0.400E-02    1.42       0.0  T
   2   -455.4735021 -0.171979E-05  0.225E-02    1.42       1.0  T
   3   -455.4734953  0.681880E-05  0.630E-03    1.42       1.1  T
   4   -455.4735025 -0.717081E-05  0.261E-03    1.42       2.6  T
   5   -455.4735030 -0.489034E-06  0.121E-03    1.42       5.5  T
   6   -455.4735032 -0.263330E-06  0.553E-04    1.42      12.1  T
   7   -455.4735033 -0.255696E-07  0.429E-04    1.42      15.5  T
     SCC iter.                  ...        0 min,  0.526 sec
     gradient                   ...        0 min,  0.200 sec
 * total energy  :  -450.0656850 Eh     change       -0.2867452E-03 Eh
   gradient norm :     0.0057495 Eh/α   predicted    -0.2261193E-03 ( -21.14%)
   displ. norm   :     0.5674814 α      lambda       -0.3335803E-03
   maximum displ.:     0.2333027 α      in ANC's #5, #18, #6, ...

........................................................................
.............................. CYCLE   27 ..............................
........................................................................
   1   -455.4735418 -0.455474E+03  0.384E-02    1.42       0.0  T
   2   -455.4735439 -0.206501E-05  0.217E-02    1.42       1.0  T
   3   -455.4735356  0.832404E-05  0.693E-03    1.42       1.0  T
   4   -455.4735446 -0.902880E-05  0.260E-03    1.42       2.6  T
   5   -455.4735450 -0.443891E-06  0.139E-03    1.42       4.8  T
   6   -455.4735453 -0.267866E-06  0.760E-04    1.42       8.8  T
   7   -455.4735453 -0.413845E-07  0.601E-04    1.42      11.1  T
     SCC iter.                  ...        0 min,  0.533 sec
     gradient                   ...        0 min,  0.200 sec
 * total energy  :  -450.0659574 Eh     change       -0.2724554E-03 Eh
   gradient norm :     0.0042048 Eh/α   predicted    -0.2205092E-03 ( -19.07%)
   displ. norm   :     0.5693007 α      lambda       -0.2946476E-03
   maximum displ.:     0.2443355 α      in ANC's #5, #18, #6, ...

........................................................................
.............................. CYCLE   28 ..............................
........................................................................
   1   -455.4742986 -0.455474E+03  0.354E-02    1.42       0.0  T
   2   -455.4743005 -0.187022E-05  0.201E-02    1.42       1.0  T
   3   -455.4742921  0.840671E-05  0.691E-03    1.42       1.0  T
   4   -455.4743013 -0.924568E-05  0.243E-03    1.42       2.7  T
   5   -455.4743017 -0.380158E-06  0.131E-03    1.42       5.1  T
   6   -455.4743019 -0.201689E-06  0.809E-04    1.42       8.2  T
   7   -455.4743020 -0.471272E-07  0.649E-04    1.42      10.3  T
     SCC iter.                  ...        0 min,  0.528 sec
     gradient                   ...        0 min,  0.200 sec
 * total energy  :  -450.0662044 Eh     change       -0.2469719E-03 Eh
   gradient norm :     0.0046251 Eh/α   predicted    -0.1950904E-03 ( -21.01%)
   displ. norm   :     0.5903835 α      lambda       -0.2947617E-03
   maximum displ.:     0.2619410 α      in ANC's #5, #18, #6, ...

........................................................................
.............................. CYCLE   29 ..............................
........................................................................
   1   -455.4757697 -0.455476E+03  0.338E-02    1.42       0.0  T
   2   -455.4757711 -0.143983E-05  0.192E-02    1.42       1.0  T
   3   -455.4757630  0.816554E-05  0.663E-03    1.42       1.0  T
   4   -455.4757719 -0.889361E-05  0.225E-03    1.42       3.0  T
   5   -455.4757721 -0.263103E-06  0.131E-03    1.42       5.1  T
   6   -455.4757724 -0.255765E-06  0.774E-04    1.42       8.6  T
   7   -455.4757724 -0.509461E-07  0.600E-04    1.42      11.1  T
     SCC iter.                  ...        0 min,  0.525 sec
     gradient                   ...        0 min,  0.200 sec
 * total energy  :  -450.0664605 Eh     change       -0.2561182E-03 Eh
   gradient norm :     0.0055455 Eh/α   predicted    -0.1987513E-03 ( -22.40%)
   displ. norm   :     0.6350296 α      lambda       -0.3324639E-03
   maximum displ.:     0.2889345 α      in ANC's #5, #18, #6, ...

........................................................................
.............................. CYCLE   30 ..............................
........................................................................
   1   -455.4776906 -0.455478E+03  0.341E-02    1.42       0.0  T
   2   -455.4776918 -0.115551E-05  0.195E-02    1.42       1.0  T
   3   -455.4776851  0.670472E-05  0.600E-03    1.42       1.1  T
   4   -455.4776924 -0.728493E-05  0.206E-03    1.42       3.2  T
   5   -455.4776926 -0.248411E-06  0.113E-03    1.42       5.9  T
   6   -455.4776928 -0.200001E-06  0.632E-04    1.42      10.6  T
   7   -455.4776928 -0.228590E-07  0.517E-04    1.42      12.9  T
     SCC iter.                  ...        0 min,  0.526 sec
     gradient                   ...        0 min,  0.200 sec
 * total energy  :  -450.0667551 Eh     change       -0.2945533E-03 Eh
   gradient norm :     0.0058707 Eh/α   predicted    -0.2333082E-03 ( -20.79%)
   displ. norm   :     0.6852581 α      lambda       -0.3776018E-03
   maximum displ.:     0.3174839 α      in ANC's #5, #6, #18, ...

........................................................................
.............................. CYCLE   31 ..............................
........................................................................
   1   -455.4791357 -0.455479E+03  0.361E-02    1.42       0.0  T
   2   -455.4791370 -0.124666E-05  0.207E-02    1.42       1.0  T
   3   -455.4791323  0.466873E-05  0.518E-03    1.42       1.3  T
   4   -455.4791373 -0.496390E-05  0.209E-03    1.42       3.2  T
   5   -455.4791376 -0.296711E-06  0.118E-03    1.42       5.6  T
   6   -455.4791378 -0.240833E-06  0.627E-04    1.42      10.6  T
   7   -455.4791378 -0.260183E-07  0.507E-04    1.42      13.2  T
     SCC iter.                  ...        0 min,  0.521 sec
     gradient                   ...        0 min,  0.200 sec
 * total energy  :  -450.0670914 Eh     change       -0.3363748E-03 Eh
   gradient norm :     0.0055130 Eh/α   predicted    -0.2774854E-03 ( -17.51%)
   displ. norm   :     0.7179225 α      lambda       -0.4023734E-03
   maximum displ.:     0.3377123 α      in ANC's #5, #6, #18, ...

........................................................................
.............................. CYCLE   32 ..............................
........................................................................
   1   -455.4794818 -0.455479E+03  0.385E-02    1.42       0.0  T
   2   -455.4794835 -0.169587E-05  0.220E-02    1.42       1.0  T
   3   -455.4794773  0.618422E-05  0.582E-03    1.42       1.1  T
   4   -455.4794838 -0.653879E-05  0.235E-03    1.42       2.8  T
   5   -455.4794843 -0.451024E-06  0.136E-03    1.42       4.9  T
   6   -455.4794845 -0.263625E-06  0.759E-04    1.42       8.8  T
   7   -455.4794846 -0.465118E-07  0.588E-04    1.42      11.3  T
     SCC iter.                  ...        0 min,  0.520 sec
     gradient                   ...        0 min,  0.201 sec
 * total energy  :  -450.0674486 Eh     change       -0.3571955E-03 Eh
   gradient norm :     0.0050175 Eh/α   predicted    -0.3048813E-03 ( -14.65%)
   displ. norm   :     0.7343143 α      lambda       -0.4004410E-03
   maximum displ.:     0.3512579 α      in ANC's #5, #6, #18, ...

........................................................................
.............................. CYCLE   33 ..............................
........................................................................
   1   -455.4785183 -0.455479E+03  0.404E-02    1.41       0.0  T
   2   -455.4785203 -0.206704E-05  0.231E-02    1.41       1.0  T
   3   -455.4785115  0.884665E-05  0.692E-03    1.41       1.0  T
   4   -455.4785212 -0.974013E-05  0.242E-03    1.41       2.8  T
   5   -455.4785216 -0.418345E-06  0.133E-03    1.41       5.0  T
   6   -455.4785218 -0.211838E-06  0.803E-04    1.41       8.3  T
   7   -455.4785219 -0.369661E-07  0.648E-04    1.41      10.3  T
     SCC iter.                  ...        0 min,  0.519 sec
     gradient                   ...        0 min,  0.200 sec
 * total energy  :  -450.0678031 Eh     change       -0.3544646E-03 Eh
   gradient norm :     0.0049031 Eh/α   predicted    -0.3081834E-03 ( -13.06%)
   displ. norm   :     0.7355887 α      lambda       -0.3841725E-03
   maximum displ.:     0.3593525 α      in ANC's #5, #6, #1, ...

........................................................................
.............................. CYCLE   34 ..............................
........................................................................
   1   -455.4770691 -0.455477E+03  0.410E-02    1.41       0.0  T
   2   -455.4770712 -0.208578E-05  0.234E-02    1.41       1.0  T
   3   -455.4770606  0.105899E-04  0.755E-03    1.41       1.0  T
   4   -455.4770724 -0.118088E-04  0.244E-03    1.41       2.7  T
   5   -455.4770727 -0.295835E-06  0.138E-03    1.41       4.8  T
   6   -455.4770729 -0.255817E-06  0.819E-04    1.41       8.1  T
   7   -455.4770730 -0.372637E-07  0.663E-04    1.41      10.1  T
     SCC iter.                  ...        0 min,  0.517 sec
     gradient                   ...        0 min,  0.200 sec
 * total energy  :  -450.0681425 Eh     change       -0.3393894E-03 Eh
   gradient norm :     0.0049780 Eh/α   predicted    -0.2960232E-03 ( -12.78%)
   displ. norm   :     0.7375906 α      lambda       -0.3627879E-03
   maximum displ.:     0.3675751 α      in ANC's #5, #6, #1, ...

........................................................................
.............................. CYCLE   35 ..............................
........................................................................
   1   -455.4749723 -0.455475E+03  0.400E-02    1.40       0.0  T
   2   -455.4749742 -0.185969E-05  0.228E-02    1.40       1.0  T
   3   -455.4749658  0.839844E-05  0.679E-03    1.40       1.0  T
   4   -455.4749751 -0.931616E-05  0.240E-03    1.40       2.8  T
   5   -455.4749753 -0.165445E-06  0.148E-03    1.40       4.5  T
   6   -455.4749757 -0.370713E-06  0.822E-04    1.40       8.1  T
   7   -455.4749757 -0.444442E-07  0.664E-04    1.40      10.0  T
     SCC iter.                  ...        0 min,  0.515 sec
     gradient                   ...        0 min,  0.201 sec
 * total energy  :  -450.0684656 Eh     change       -0.3231292E-03 Eh
   gradient norm :     0.0049806 Eh/α   predicted    -0.2800905E-03 ( -13.32%)
   displ. norm   :     0.7156151 α      lambda       -0.3572956E-03
   maximum displ.:     0.3681055 α      in ANC's #5, #6, #1, ...

........................................................................
.............................. CYCLE   36 ..............................
........................................................................
   1   -455.4759127 -0.455476E+03  0.397E-02    1.40       0.0  T
   2   -455.4759147 -0.200763E-05  0.225E-02    1.40       1.0  T
   3   -455.4759073  0.742565E-05  0.642E-03    1.40       1.0  T
   4   -455.4759154 -0.811345E-05  0.249E-03    1.40       2.7  T
   5   -455.4759158 -0.348970E-06  0.144E-03    1.40       4.6  T
   6   -455.4759161 -0.323177E-06  0.774E-04    1.40       8.6  T
   7   -455.4759161 -0.317460E-07  0.641E-04    1.40      10.4  T
     SCC iter.                  ...        0 min,  0.527 sec
     gradient                   ...        0 min,  0.200 sec
 * total energy  :  -450.0687738 Eh     change       -0.3081635E-03 Eh
   gradient norm :     0.0047488 Eh/α   predicted    -0.2701370E-03 ( -12.34%)
   displ. norm   :     0.7781599 α      lambda       -0.3664860E-03
   maximum displ.:     0.3916243 α      in ANC's #5, #6, #1, ...

........................................................................
.............................. CYCLE   37 ..............................
........................................................................
   1   -455.4710037 -0.455471E+03  0.404E-02    1.40       0.0  T
   2   -455.4710059 -0.228599E-05  0.230E-02    1.40       1.0  T
   3   -455.4710012  0.468956E-05  0.549E-03    1.40       1.2  T
   4   -455.4710063 -0.505980E-05  0.249E-03    1.40       2.7  T
   5   -455.4710069 -0.553183E-06  0.125E-03    1.40       5.3  T
   6   -455.4710071 -0.192749E-06  0.741E-04    1.40       9.0  T
   7   -455.4710071 -0.344816E-07  0.593E-04    1.40      11.2  T
     SCC iter.                  ...        0 min,  0.526 sec
     gradient                   ...        0 min,  0.201 sec
 * total energy  :  -450.0690670 Eh     change       -0.2931703E-03 Eh
   gradient norm :     0.0062431 Eh/α   predicted    -0.2942059E-03 (   0.35%)
   displ. norm   :     0.6571278 α      lambda       -0.3567108E-03
   maximum displ.:     0.3523280 α      in ANC's #5, #6, #1, ...

........................................................................
.............................. CYCLE   38 ..............................
........................................................................
   1   -455.4745719 -0.455475E+03  0.365E-02    1.40       0.0  T
   2   -455.4745738 -0.192230E-05  0.206E-02    1.40       1.0  T
   3   -455.4745682  0.556563E-05  0.576E-03    1.40       1.2  T
   4   -455.4745742 -0.598989E-05  0.241E-03    1.40       2.8  T
   5   -455.4745746 -0.380460E-06  0.132E-03    1.40       5.1  T
   6   -455.4745749 -0.275196E-06  0.708E-04    1.40       9.4  T
   7   -455.4745749 -0.469616E-07  0.533E-04    1.40      12.5  T
     SCC iter.                  ...        0 min,  0.520 sec
     gradient                   ...        0 min,  0.201 sec
 * total energy  :  -450.0693687 Eh     change       -0.3017753E-03 Eh
   gradient norm :     0.0052576 Eh/α   predicted    -0.2553757E-03 ( -15.38%)
   displ. norm   :     0.7157870 α      lambda       -0.3313141E-03
   maximum displ.:     0.3841116 α      in ANC's #5, #6, #1, ...

........................................................................
.............................. CYCLE   39 ..............................
........................................................................
   1   -455.4757655 -0.455476E+03  0.366E-02    1.40       0.0  T
   2   -455.4757671 -0.165537E-05  0.207E-02    1.40       1.0  T
   3   -455.4757608  0.635837E-05  0.596E-03    1.40       1.1  T
   4   -455.4757676 -0.677576E-05  0.236E-03    1.40       2.8  T
   5   -455.4757678 -0.276219E-06  0.140E-03    1.40       4.8  T
   6   -455.4757682 -0.381279E-06  0.656E-04    1.40      10.2  T
   7   -455.4757683 -0.458836E-07  0.476E-04    1.40      14.0  T
     SCC iter.                  ...        0 min,  0.525 sec
     gradient                   ...        0 min,  0.201 sec
 * total energy  :  -450.0696709 Eh     change       -0.3021609E-03 Eh
   gradient norm :     0.0048330 Eh/α   predicted    -0.2505327E-03 ( -17.09%)
   displ. norm   :     0.7315320 α      lambda       -0.3544840E-03
   maximum displ.:     0.4000983 α      in ANC's #5, #1, #6, ...

........................................................................
.............................. CYCLE   40 ..............................
........................................................................
   1   -455.4785727 -0.455479E+03  0.372E-02    1.39       0.0  T
   2   -455.4785747 -0.198046E-05  0.210E-02    1.39       1.0  T
   3   -455.4785669  0.777304E-05  0.648E-03    1.39       1.0  T
   4   -455.4785752 -0.828673E-05  0.244E-03    1.39       2.7  T
   5   -455.4785756 -0.375648E-06  0.141E-03    1.39       4.7  T
   6   -455.4785759 -0.349204E-06  0.693E-04    1.39       9.6  T
   7   -455.4785760 -0.610223E-07  0.466E-04    1.39      14.3  T
     SCC iter.                  ...        0 min,  0.516 sec
     gradient                   ...        0 min,  0.201 sec
 * total energy  :  -450.0699889 Eh     change       -0.3179928E-03 Eh
   gradient norm :     0.0041175 Eh/α   predicted    -0.2720956E-03 ( -14.43%)
   displ. norm   :     0.7717305 α      lambda       -0.3483822E-03
   maximum displ.:     0.4247623 α      in ANC's #5, #1, #6, ...

........................................................................
.............................. CYCLE   41 ..............................
........................................................................
   1   -455.4792848 -0.455479E+03  0.384E-02    1.39       0.0  T
   2   -455.4792869 -0.209085E-05  0.217E-02    1.39       1.0  T
   3   -455.4792810  0.590914E-05  0.594E-03    1.39       1.1  T
   4   -455.4792873 -0.634186E-05  0.242E-03    1.39       2.8  T
   5   -455.4792878 -0.477884E-06  0.122E-03    1.39       5.5  T
   6   -455.4792880 -0.207500E-06  0.672E-04    1.39       9.9  T
   7   -455.4792880 -0.430540E-07  0.499E-04    1.39      13.4  T
     SCC iter.                  ...        0 min,  0.518 sec
     gradient                   ...        0 min,  0.201 sec
 * total energy  :  -450.0702971 Eh     change       -0.3082506E-03 Eh
   gradient norm :     0.0046445 Eh/α   predicted    -0.2779400E-03 (  -9.83%)
   displ. norm   :     0.7554143 α      lambda       -0.3385131E-03
   maximum displ.:     0.4238760 α      in ANC's #5, #1, #6, ...

........................................................................
.............................. CYCLE   42 ..............................
........................................................................
   1   -455.4795051 -0.455480E+03  0.366E-02    1.38       0.0  T
   2   -455.4795070 -0.196046E-05  0.207E-02    1.38       1.0  T
   3   -455.4795021  0.489582E-05  0.556E-03    1.38       1.2  T
   4   -455.4795073 -0.519586E-05  0.238E-03    1.38       2.8  T
   5   -455.4795078 -0.511258E-06  0.116E-03    1.38       5.7  T
   6   -455.4795080 -0.164568E-06  0.676E-04    1.38       9.9  T
   7   -455.4795080 -0.364536E-07  0.516E-04    1.38      12.9  T
     SCC iter.                  ...        0 min,  0.519 sec
     gradient                   ...        0 min,  0.200 sec
 * total energy  :  -450.0705929 Eh     change       -0.2957626E-03 Eh
   gradient norm :     0.0049925 Eh/α   predicted    -0.2658440E-03 ( -10.12%)
   displ. norm   :     0.7288665 α      lambda       -0.3197496E-03
   maximum displ.:     0.4149641 α      in ANC's #5, #1, #6, ...
 * RMSD in coord.:     0.8443155 α      energy gain  -0.6359133E-02 Eh

generating ANC from model Hessian ...
Using Lindh-Hessian (1995)
 Shifting diagonal of input Hessian by   9.999101061220020E-003
 Lowest  eigenvalues of input Hessian
    0.000000    0.000000    0.000000    0.000000    0.000000    0.000000
    0.010000    0.010002    0.010009    0.010014    0.010022    0.010026
    0.010033    0.010044    0.010058    0.010082    0.010085    0.010104
 Highest eigenvalues
    2.071321    2.075327    2.078300    2.081701    2.099434    2.119145
 

........................................................................
.............................. CYCLE   43 ..............................
........................................................................
   1   -455.4802953 -0.455480E+03  0.347E-02    1.38       0.0  T
   2   -455.4802966 -0.134470E-05  0.197E-02    1.38       1.0  T
   3   -455.4802926  0.402947E-05  0.513E-03    1.38       1.3  T
   4   -455.4802969 -0.436706E-05  0.212E-03    1.38       3.1  T
   5   -455.4802973 -0.324938E-06  0.102E-03    1.38       6.5  T
   6   -455.4802974 -0.153637E-06  0.565E-04    1.38      11.8  T
   7   -455.4802974 -0.168912E-07  0.457E-04    1.38      14.6  T
     SCC iter.                  ...        0 min,  0.519 sec
     gradient                   ...        0 min,  0.201 sec
 * total energy  :  -450.0708853 Eh     change       -0.2923553E-03 Eh
   gradient norm :     0.0050964 Eh/α   predicted     0.0000000E+00 (-100.00%)
   displ. norm   :     0.0633048 α      lambda       -0.6410561E-04
   maximum displ.:     0.0330775 α      in ANC's #5, #2, #42, ...

........................................................................
.............................. CYCLE   44 ..............................
........................................................................
   1   -455.4802761 -0.455480E+03  0.697E-03    1.38       0.0  T
   2   -455.4802764 -0.240543E-06  0.402E-03    1.38       1.7  T
   3   -455.4802755  0.809495E-06  0.219E-03    1.38       3.0  T
   4   -455.4802765 -0.916053E-06  0.687E-04    1.38       9.7  T
   5   -455.4802765 -0.592901E-07  0.394E-04    1.38      16.9  T
     SCC iter.                  ...        0 min,  0.373 sec
     gradient                   ...        0 min,  0.200 sec
 * total energy  :  -450.0709512 Eh     change       -0.6598549E-04 Eh
   gradient norm :     0.0028782 Eh/α   predicted    -0.3842551E-04 ( -41.77%)
   displ. norm   :     0.2218718 α      lambda       -0.1834080E-03
   maximum displ.:     0.1141122 α      in ANC's #5, #2, #42, ...

........................................................................
.............................. CYCLE   45 ..............................
........................................................................
   1   -455.4791318 -0.455479E+03  0.207E-02    1.38       0.0  T
   2   -455.4791334 -0.158271E-05  0.119E-02    1.38       1.0  T
   3   -455.4791260  0.739952E-05  0.638E-03    1.38       1.0  T
   4   -455.4791344 -0.835887E-05  0.184E-03    1.38       3.6  T
   5   -455.4791348 -0.378338E-06  0.105E-03    1.38       6.4  T
   6   -455.4791349 -0.124965E-06  0.648E-04    1.38      10.3  T
   7   -455.4791349 -0.430989E-07  0.454E-04    1.38      14.7  T
     SCC iter.                  ...        0 min,  0.520 sec
     gradient                   ...        0 min,  0.200 sec
 * total energy  :  -450.0710760 Eh     change       -0.1247637E-03 Eh
   gradient norm :     0.0030343 Eh/α   predicted    -0.9621904E-04 ( -22.88%)
   displ. norm   :     0.1929975 α      lambda       -0.8661379E-04
   maximum displ.:     0.1043632 α      in ANC's #5, #2, #42, ...

........................................................................
.............................. CYCLE   46 ..............................
........................................................................
   1   -455.4781982 -0.455478E+03  0.148E-02    1.38       0.0  T
   2   -455.4781987 -0.468860E-06  0.839E-03    1.38       1.0  T
   3   -455.4781959  0.279691E-05  0.374E-03    1.38       1.8  T
   4   -455.4781990 -0.308175E-05  0.112E-03    1.38       5.9  T
   5   -455.4781991 -0.114332E-06  0.633E-04    1.38      10.5  T
   6   -455.4781991 -0.366196E-07  0.413E-04    1.38      16.1  T
     SCC iter.                  ...        0 min,  0.446 sec
     gradient                   ...        0 min,  0.201 sec
 * total energy  :  -450.0711472 Eh     change       -0.7118314E-04 Eh
   gradient norm :     0.0047908 Eh/α   predicted    -0.4492020E-04 ( -36.89%)
   displ. norm   :     0.2818860 α      lambda       -0.1251337E-03
   maximum displ.:     0.1512353 α      in ANC's #5, #2, #56, ...

........................................................................
.............................. CYCLE   47 ..............................
........................................................................
   1   -455.4774209 -0.455477E+03  0.192E-02    1.39       0.0  T
   2   -455.4774213 -0.473740E-06  0.109E-02    1.39       1.0  T
   3   -455.4774191  0.226056E-05  0.341E-03    1.39       2.0  T
   4   -455.4774215 -0.239851E-05  0.128E-03    1.39       5.2  T
   5   -455.4774216 -0.115618E-06  0.732E-04    1.39       9.1  T
   6   -455.4774217 -0.780364E-07  0.406E-04    1.39      16.4  T
     SCC iter.                  ...        0 min,  0.445 sec
     gradient                   ...        0 min,  0.200 sec
 * total energy  :  -450.0712568 Eh     change       -0.1095791E-03 Eh
   gradient norm :     0.0051222 Eh/α   predicted    -0.6753972E-04 ( -38.36%)
   displ. norm   :     0.4303809 α      lambda       -0.1954627E-03
   maximum displ.:     0.2318274 α      in ANC's #5, #2, #56, ...

........................................................................
.............................. CYCLE   48 ..............................
........................................................................
   1   -455.4770765 -0.455477E+03  0.271E-02    1.39       0.0  T
   2   -455.4770773 -0.823252E-06  0.154E-02    1.39       1.0  T
   3   -455.4770750  0.232639E-05  0.384E-03    1.39       1.7  T
   4   -455.4770775 -0.254273E-05  0.163E-03    1.39       4.1  T
   5   -455.4770777 -0.173437E-06  0.871E-04    1.39       7.7  T
   6   -455.4770778 -0.108011E-06  0.484E-04    1.39      13.8  T
     SCC iter.                  ...        0 min,  0.446 sec
     gradient                   ...        0 min,  0.200 sec
 * total energy  :  -450.0714244 Eh     change       -0.1675936E-03 Eh
   gradient norm :     0.0041663 Eh/α   predicted    -0.1158434E-03 ( -30.88%)
   displ. norm   :     0.5065883 α      lambda       -0.2153703E-03
   maximum displ.:     0.2777805 α      in ANC's #5, #2, #21, ...

........................................................................
.............................. CYCLE   49 ..............................
........................................................................
   1   -455.4776905 -0.455478E+03  0.296E-02    1.39       0.0  T
   2   -455.4776916 -0.107782E-05  0.170E-02    1.39       1.0  T
   3   -455.4776885  0.309495E-05  0.447E-03    1.39       1.5  T
   4   -455.4776920 -0.347469E-05  0.183E-03    1.39       3.6  T
   5   -455.4776921 -0.145093E-06  0.115E-03    1.39       5.8  T
   6   -455.4776923 -0.188770E-06  0.665E-04    1.39      10.0  T
   7   -455.4776924 -0.210024E-07  0.553E-04    1.39      12.1  T
     SCC iter.                  ...        0 min,  0.520 sec
     gradient                   ...        0 min,  0.200 sec
 * total energy  :  -450.0716070 Eh     change       -0.1826434E-03 Eh
   gradient norm :     0.0034896 Eh/α   predicted    -0.1353235E-03 ( -25.91%)
   displ. norm   :     0.5128005 α      lambda       -0.2079971E-03
   maximum displ.:     0.2869189 α      in ANC's #5, #2, #21, ...

........................................................................
.............................. CYCLE   50 ..............................
........................................................................
   1   -455.4793662 -0.455479E+03  0.278E-02    1.38       0.0  T
   2   -455.4793672 -0.992250E-06  0.159E-02    1.38       1.0  T
   3   -455.4793635  0.362889E-05  0.464E-03    1.39       1.4  T
   4   -455.4793675 -0.400454E-05  0.179E-03    1.38       3.7  T
   5   -455.4793677 -0.174347E-06  0.114E-03    1.38       5.9  T
   6   -455.4793679 -0.174505E-06  0.702E-04    1.38       9.5  T
   7   -455.4793679 -0.328771E-07  0.568E-04    1.38      11.7  T
     SCC iter.                  ...        0 min,  0.520 sec
     gradient                   ...        0 min,  0.201 sec
 * total energy  :  -450.0717877 Eh     change       -0.1806942E-03 Eh
   gradient norm :     0.0039589 Eh/α   predicted    -0.1313467E-03 ( -27.31%)
   displ. norm   :     0.5317702 α      lambda       -0.2219367E-03
   maximum displ.:     0.3018648 α      in ANC's #5, #2, #21, ...

........................................................................
.............................. CYCLE   51 ..............................
........................................................................
   1   -455.4816001 -0.455482E+03  0.269E-02    1.38       0.0  T
   2   -455.4816011 -0.927074E-06  0.154E-02    1.38       1.0  T
   3   -455.4815979  0.317189E-05  0.428E-03    1.38       1.6  T
   4   -455.4816013 -0.346850E-05  0.174E-03    1.38       3.8  T
   5   -455.4816016 -0.236845E-06  0.104E-03    1.38       6.4  T
   6   -455.4816017 -0.120530E-06  0.669E-04    1.38      10.0  T
   7   -455.4816017 -0.242807E-07  0.554E-04    1.38      12.0  T
     SCC iter.                  ...        0 min,  0.521 sec
     gradient                   ...        0 min,  0.200 sec
 * total energy  :  -450.0719858 Eh     change       -0.1980654E-03 Eh
   gradient norm :     0.0046564 Eh/α   predicted    -0.1423487E-03 ( -28.13%)
   displ. norm   :     0.5897510 α      lambda       -0.2563834E-03
   maximum displ.:     0.3372924 α      in ANC's #5, #2, #21, ...

........................................................................
.............................. CYCLE   52 ..............................
........................................................................
   1   -455.4833240 -0.455483E+03  0.287E-02    1.38       0.0  T
   2   -455.4833249 -0.899435E-06  0.164E-02    1.38       1.0  T
   3   -455.4833216  0.331313E-05  0.429E-03    1.38       1.6  T
   4   -455.4833251 -0.358171E-05  0.177E-03    1.38       3.8  T
   5   -455.4833254 -0.276106E-06  0.978E-04    1.38       6.8  T
   6   -455.4833255 -0.108262E-06  0.632E-04    1.38      10.6  T
     SCC iter.                  ...        0 min,  0.447 sec
     gradient                   ...        0 min,  0.200 sec
 * total energy  :  -450.0722176 Eh     change       -0.2318807E-03 Eh
   gradient norm :     0.0048724 Eh/α   predicted    -0.1727794E-03 ( -25.49%)
   displ. norm   :     0.6502669 α      lambda       -0.2897770E-03
   maximum displ.:     0.3742342 α      in ANC's #5, #2, #8, ...

........................................................................
.............................. CYCLE   53 ..............................
........................................................................
   1   -455.4838215 -0.455484E+03  0.311E-02    1.38       0.0  T
   2   -455.4838225 -0.101410E-05  0.178E-02    1.38       1.0  T
   3   -455.4838185  0.404831E-05  0.476E-03    1.38       1.4  T
   4   -455.4838229 -0.444240E-05  0.187E-03    1.38       3.6  T
   5   -455.4838232 -0.257426E-06  0.105E-03    1.38       6.3  T
   6   -455.4838233 -0.135712E-06  0.660E-04    1.38      10.1  T
   7   -455.4838233 -0.192881E-07  0.547E-04    1.38      12.2  T
     SCC iter.                  ...        0 min,  0.518 sec
     gradient                   ...        0 min,  0.200 sec
 * total energy  :  -450.0724795 Eh     change       -0.2618782E-03 Eh
   gradient norm :     0.0043318 Eh/α   predicted    -0.2061556E-03 ( -21.28%)
   displ. norm   :     0.6803799 α      lambda       -0.2970234E-03
   maximum displ.:     0.3948697 α      in ANC's #5, #2, #8, ...

........................................................................
.............................. CYCLE   54 ..............................
........................................................................
   1   -455.4831471 -0.455483E+03  0.326E-02    1.38       0.0  T
   2   -455.4831482 -0.107824E-05  0.187E-02    1.38       1.0  T
   3   -455.4831417  0.647060E-05  0.573E-03    1.38       1.2  T
   4   -455.4831487 -0.700196E-05  0.195E-03    1.38       3.4  T
   5   -455.4831489 -0.153316E-06  0.125E-03    1.38       5.3  T
   6   -455.4831491 -0.266507E-06  0.665E-04    1.38      10.0  T
   7   -455.4831492 -0.364370E-07  0.519E-04    1.38      12.9  T
     SCC iter.                  ...        0 min,  0.520 sec
     gradient                   ...        0 min,  0.200 sec
 * total energy  :  -450.0727443 Eh     change       -0.2647535E-03 Eh
   gradient norm :     0.0035229 Eh/α   predicted    -0.2172607E-03 ( -17.94%)
   displ. norm   :     0.6769271 α      lambda       -0.2762582E-03
   maximum displ.:     0.3971724 α      in ANC's #5, #2, #8, ...

........................................................................
.............................. CYCLE   55 ..............................
........................................................................
   1   -455.4818705 -0.455482E+03  0.327E-02    1.38       0.0  T
   2   -455.4818717 -0.114740E-05  0.187E-02    1.38       1.0  T
   3   -455.4818660  0.565706E-05  0.541E-03    1.38       1.2  T
   4   -455.4818722 -0.619311E-05  0.193E-03    1.38       3.5  T
   5   -455.4818725 -0.240914E-06  0.104E-03    1.38       6.4  T
   6   -455.4818726 -0.154960E-06  0.590E-04    1.38      11.3  T
   7   -455.4818726 -0.173222E-07  0.486E-04    1.38      13.7  T
     SCC iter.                  ...        0 min,  0.521 sec
     gradient                   ...        0 min,  0.200 sec
 * total energy  :  -450.0729861 Eh     change       -0.2418554E-03 Eh
   gradient norm :     0.0032935 Eh/α   predicted    -0.2014252E-03 ( -16.72%)
   displ. norm   :     0.6406342 α      lambda       -0.2389214E-03
   maximum displ.:     0.3804619 α      in ANC's #5, #2, #8, ...

........................................................................
.............................. CYCLE   56 ..............................
........................................................................
   1   -455.4806629 -0.455481E+03  0.309E-02    1.38       0.0  T
   2   -455.4806640 -0.100385E-05  0.176E-02    1.38       1.0  T
   3   -455.4806600  0.392800E-05  0.462E-03    1.38       1.4  T
   4   -455.4806643 -0.424038E-05  0.183E-03    1.38       3.6  T
   5   -455.4806645 -0.191696E-06  0.108E-03    1.38       6.2  T
   6   -455.4806646 -0.187150E-06  0.573E-04    1.38      11.6  T
   7   -455.4806647 -0.266166E-07  0.450E-04    1.38      14.8  T
     SCC iter.                  ...        0 min,  0.522 sec
     gradient                   ...        0 min,  0.200 sec
 * total energy  :  -450.0731952 Eh     change       -0.2090452E-03 Eh
   gradient norm :     0.0034987 Eh/α   predicted    -0.1684893E-03 ( -19.40%)
   displ. norm   :     0.5999701 α      lambda       -0.2153410E-03
   maximum displ.:     0.3605656 α      in ANC's #5, #2, #8, ...

........................................................................
.............................. CYCLE   57 ..............................
........................................................................
   1   -455.4801332 -0.455480E+03  0.288E-02    1.38       0.0  T
   2   -455.4801341 -0.904142E-06  0.164E-02    1.38       1.0  T
   3   -455.4801314  0.278102E-05  0.405E-03    1.38       1.6  T
   4   -455.4801344 -0.303063E-05  0.167E-03    1.38       4.0  T
   5   -455.4801346 -0.205808E-06  0.839E-04    1.38       7.9  T
   6   -455.4801347 -0.108204E-06  0.474E-04    1.38      14.1  T
     SCC iter.                  ...        0 min,  0.450 sec
     gradient                   ...        0 min,  0.200 sec
 * total energy  :  -450.0733855 Eh     change       -0.1903563E-03 Eh
   gradient norm :     0.0034724 Eh/α   predicted    -0.1464287E-03 ( -23.08%)
   displ. norm   :     0.5955914 α      lambda       -0.2159269E-03
   maximum displ.:     0.3599929 α      in ANC's #5, #2, #8, ...

........................................................................
.............................. CYCLE   58 ..............................
........................................................................
   1   -455.4798091 -0.455480E+03  0.284E-02    1.37       0.0  T
   2   -455.4798100 -0.935084E-06  0.161E-02    1.37       1.0  T
   3   -455.4798064  0.363397E-05  0.453E-03    1.37       1.5  T
   4   -455.4798103 -0.386792E-05  0.175E-03    1.37       3.8  T
   5   -455.4798104 -0.107932E-06  0.117E-03    1.37       5.7  T
   6   -455.4798107 -0.269048E-06  0.524E-04    1.37      12.7  T
   7   -455.4798107 -0.250815E-07  0.396E-04    1.37      16.8  T
     SCC iter.                  ...        0 min,  0.519 sec
     gradient                   ...        0 min,  0.200 sec
 * total energy  :  -450.0735789 Eh     change       -0.1933602E-03 Eh
   gradient norm :     0.0033057 Eh/α   predicted    -0.1462631E-03 ( -24.36%)
   displ. norm   :     0.6228991 α      lambda       -0.2410227E-03
   maximum displ.:     0.3764018 α      in ANC's #5, #2, #8, ...

........................................................................
.............................. CYCLE   59 ..............................
........................................................................
   1   -455.4805745 -0.455481E+03  0.300E-02    1.37       0.0  T
   2   -455.4805756 -0.112329E-05  0.170E-02    1.37       1.0  T
   3   -455.4805707  0.488016E-05  0.521E-03    1.37       1.3  T
   4   -455.4805760 -0.526805E-05  0.183E-03    1.37       3.6  T
[...]

      molecular mass/u    :     2884.2006753
   center of mass at/Å    :       -0.2326010      -0.3730742      -0.5476688
  moments of inertia/u·Å² :        0.6000288E+05   0.4652875E+06   0.4907319E+06
rotational constants/cm⁻¹ :        0.2809470E-03   0.3623057E-04   0.3435202E-04

 * 240 selected distances

     #   Z          #   Z                                           value/Å
     1   6 C        2   6 C                                       1.3488596
     2   6 C        3   6 C                                       1.4247255
     3   6 C        4   6 C                                       1.4045984
     5   6 C        6  16 S                                       1.7387981
     6  16 S        7   6 C                                       1.7311335
     7   6 C        8   6 C                                       1.4887530
     8   6 C        9   6 C                                       1.5302991
     7   6 C       10   6 C                                       1.3628527
    10   6 C       11  17 Cl                                      1.7164825
     5   6 C       12   6 C                                       1.3670653
    10   6 C       12   6 C                                       1.4211738
    12   6 C       13  17 Cl                                      1.7170833
     4   6 C       14   6 C                                       1.3874357
    14   6 C       15   6 C                                       1.4154840
    15   6 C       16   6 C                                       1.4063151
    17   6 C       18  16 S                                       1.7410375
    18  16 S       19   6 C                                       1.7292315
    19   6 C       20   6 C                                       1.4881952
    20   6 C       21   6 C                                       1.5306871
    19   6 C       22   6 C                                       1.3629520
    17   6 C       23   6 C                                       1.3683249
    22   6 C       23   6 C                                       1.4204036
    23   6 C       24  17 Cl                                      1.7133735
    22   6 C       25  17 Cl                                      1.7158381
     3   6 C       26   6 C                                       1.4158010
    16   6 C       26   6 C                                       1.3909357
     1   6 C       27  16 S                                       1.7279028
    26   6 C       27  16 S                                       1.7404172
    15   6 C       28   6 C                                       1.4135312
    28   6 C       29   6 C                                       1.3681040
    14   6 C       30  16 S                                       1.7413063
    29   6 C       30  16 S                                       1.7554387 (max)
    29   6 C       31   6 C                                       1.4223722
    31   6 C       32  16 S                                       1.7278888
    32  16 S       33   6 C                                       1.7335066
    33   6 C       34   6 C                                       1.3988512
    31   6 C       35   6 C                                       1.3981472
    34   6 C       35   6 C                                       1.4381040
    35   6 C       36   6 C                                       1.4110063
    36   6 C       37   6 C                                       1.3631546
    37   6 C       38   6 C                                       1.4063123
    34   6 C       39   6 C                                       1.4137731
    38   6 C       39   6 C                                       1.3633805
    33   6 C       41   6 C                                       1.4265788
    41   6 C       42   6 C                                       1.3711059
    42   6 C       43   6 C                                       1.4107693
    43   6 C       44   6 C                                       1.4092431
    45   6 C       46  16 S                                       1.7396682
    46  16 S       47   6 C                                       1.7288390
    47   6 C       48   6 C                                       1.4888191
    48   6 C       49   6 C                                       1.5307912
    47   6 C       50   6 C                                       1.3630882
    50   6 C       51  17 Cl                                      1.7131770
    45   6 C       52   6 C                                       1.3691417
    50   6 C       52   6 C                                       1.4198143
    52   6 C       53  17 Cl                                      1.7170053
    44   6 C       54   6 C                                       1.3880419
    54   6 C       55   6 C                                       1.4172635
    55   6 C       56   6 C                                       1.4056111
    57   6 C       58  16 S                                       1.7382578
    58  16 S       59   6 C                                       1.7292879
    59   6 C       60   6 C                                       1.4886229
    60   6 C       61   6 C                                       1.5307922
    59   6 C       62   6 C                                       1.3630783
    57   6 C       63   6 C                                       1.3685915
    62   6 C       63   6 C                                       1.4201377
    63   6 C       64  17 Cl                                      1.7179249
    62   6 C       65  17 Cl                                      1.7154980
    43   6 C       66   6 C                                       1.4167947
    56   6 C       66   6 C                                       1.3879208
    41   6 C       67  16 S                                       1.7502891
    66   6 C       67  16 S                                       1.7370413
    55   6 C       68   6 C                                       1.4138669
    68   6 C       69   6 C                                       1.3633155
    54   6 C       70  16 S                                       1.7435219
    69   6 C       70  16 S                                       1.7518606
    69   6 C       71   6 C                                       1.4244157
    71   6 C       72   6 C                                       1.3629581
    72   6 C       73   6 C                                       1.4174046
    73   6 C       74   6 C                                       1.4069553
    75   6 C       76  16 S                                       1.7385124
    76  16 S       77   6 C                                       1.7303175
    77   6 C       78   6 C                                       1.4884406
    78   6 C       79   6 C                                       1.5304780
    77   6 C       80   6 C                                       1.3631344
    80   6 C       81  17 Cl                                      1.7164651
    75   6 C       82   6 C                                       1.3687089
    80   6 C       82   6 C                                       1.4203983
    82   6 C       83  17 Cl                                      1.7165292
    74   6 C       84   6 C                                       1.3893016
    84   6 C       85   6 C                                       1.4168418
    85   6 C       86   6 C                                       1.4064116
    87   6 C       88  16 S                                       1.7392982
    88  16 S       89   6 C                                       1.7306943
    89   6 C       90   6 C                                       1.4887807
    90   6 C       91   6 C                                       1.5291731
    89   6 C       92   6 C                                       1.3628260
    87   6 C       93   6 C                                       1.3681314
    92   6 C       93   6 C                                       1.4213607
    93   6 C       94  17 Cl                                      1.7173710
    92   6 C       95  17 Cl                                      1.7167071
    73   6 C       96   6 C                                       1.4165011
    86   6 C       96   6 C                                       1.3881109
    71   6 C       97  16 S                                       1.7530290
    96   6 C       97  16 S                                       1.7385298
    85   6 C       98   6 C                                       1.4142285
    98   6 C       99   6 C                                       1.3651069
    84   6 C      100  16 S                                       1.7405806
    99   6 C      100  16 S                                       1.7493404
    99   6 C      101   6 C                                       1.4274557
   101   6 C      102   6 C                                       1.3649614
   102   6 C      103   6 C                                       1.4146135
   103   6 C      104   6 C                                       1.4072657
   105   6 C      106  16 S                                       1.7403321
   106  16 S      107   6 C                                       1.7313719
   107   6 C      108   6 C                                       1.4885463
   108   6 C      109   6 C                                       1.5300808
   107   6 C      110   6 C                                       1.3622362
   110   6 C      111  17 Cl                                      1.7158979
   105   6 C      112   6 C                                       1.3675545
   110   6 C      112   6 C                                       1.4220366
   112   6 C      113  17 Cl                                      1.7131880
   104   6 C      114   6 C                                       1.3890243
   114   6 C      115   6 C                                       1.4173961
   115   6 C      116   6 C                                       1.4068810
   117   6 C      118  16 S                                       1.7420982
   118  16 S      119   6 C                                       1.7311647
   119   6 C      120   6 C                                       1.4891163
   120   6 C      121   6 C                                       1.5261362
   119   6 C      122   6 C                                       1.3625988
   117   6 C      123   6 C                                       1.3677434
   122   6 C      123   6 C                                       1.4217583
   123   6 C      124  17 Cl                                      1.7132811
   122   6 C      125  17 Cl                                      1.7166563
   103   6 C      126   6 C                                       1.4183491
   116   6 C      126   6 C                                       1.3892914
   101   6 C      127  16 S                                       1.7475939
   126   6 C      127  16 S                                       1.7391246
   115   6 C      128   6 C                                       1.4132221
   128   6 C      129   6 C                                       1.3644615
   114   6 C      130  16 S                                       1.7415352
   129   6 C      130  16 S                                       1.7466111
   129   6 C      131   6 C                                       1.4287090
   131   6 C      132   6 C                                       1.3640103
   132   6 C      133   6 C                                       1.4142995
   133   6 C      134   6 C                                       1.4049567
   135   6 C      136  16 S                                       1.7386372
   136  16 S      137   6 C                                       1.7295647
   137   6 C      138   6 C                                       1.4890729
   138   6 C      139   6 C                                       1.5309781
   137   6 C      140   6 C                                       1.3631679
   140   6 C      141  17 Cl                                      1.7148868
   135   6 C      142   6 C                                       1.3688205
   140   6 C      142   6 C                                       1.4191652
   142   6 C      143  17 Cl                                      1.7185174
   134   6 C      144   6 C                                       1.3884605
   144   6 C      145   6 C                                       1.4157870
   145   6 C      146   6 C                                       1.4041871
   147   6 C      148  16 S                                       1.7377890
   148  16 S      149   6 C                                       1.7296014
   149   6 C      150   6 C                                       1.4888167
   150   6 C      151   6 C                                       1.5307796
   149   6 C      152   6 C                                       1.3632746
   147   6 C      153   6 C                                       1.3671381
   152   6 C      153   6 C                                       1.4205560
   153   6 C      154  17 Cl                                      1.7163999
   152   6 C      155  17 Cl                                      1.7157668
   133   6 C      156   6 C                                       1.4151339
   146   6 C      156   6 C                                       1.3888091
   131   6 C      157  16 S                                       1.7487919
   156   6 C      157  16 S                                       1.7425962
   145   6 C      158   6 C                                       1.4259651
   158   6 C      159   6 C                                       1.3480287
   144   6 C      160  16 S                                       1.7407513
   159   6 C      160  16 S                                       1.7304401
     1   6 C      161   1 H                                       1.0725192
     2   6 C      162   1 H                                       1.0741656
     8   6 C      163   1 H                                       1.0917411
     8   6 C      164   1 H                                       1.0912762
     9   6 C      165   1 H                                       1.0875186
     9   6 C      166   1 H                                       1.0871548
     9   6 C      167   1 H                                       1.0866644
    20   6 C      168   1 H                                       1.0910281
    20   6 C      169   1 H                                       1.0917651
    21   6 C      170   1 H                                       1.0865458
    21   6 C      171   1 H                                       1.0870822
    21   6 C      172   1 H                                       1.0872813
    28   6 C      173   1 H                                       1.0747420
    36   6 C      174   1 H                                       1.0771835
    37   6 C      175   1 H                                       1.0784672
    38   6 C      176   1 H                                       1.0781813
    42   6 C      177   1 H                                       1.0747654
    48   6 C      178   1 H                                       1.0909182
    48   6 C      179   1 H                                       1.0917410
    49   6 C      180   1 H                                       1.0868101
    49   6 C      181   1 H                                       1.0871050
    49   6 C      182   1 H                                       1.0865909
    60   6 C      183   1 H                                       1.0916136
    60   6 C      184   1 H                                       1.0911783
    61   6 C      185   1 H                                       1.0866482
    61   6 C      186   1 H                                       1.0870032
    61   6 C      187   1 H                                       1.0873160
    68   6 C      188   1 H                                       1.0744256
    72   6 C      189   1 H                                       1.0749444
    78   6 C      190   1 H                                       1.0911296
    78   6 C      191   1 H                                       1.0916744
    79   6 C      192   1 H                                       1.0866003
    79   6 C      193   1 H                                       1.0870073
    79   6 C      194   1 H                                       1.0871492
    90   6 C      195   1 H                                       1.0929176
    90   6 C      196   1 H                                       1.0911544
    91   6 C      197   1 H                                       1.0866252
    91   6 C      198   1 H                                       1.0872707
    91   6 C      199   1 H                                       1.0873577
    98   6 C      200   1 H                                       1.0733748
   102   6 C      201   1 H                                       1.0730884
   108   6 C      202   1 H                                       1.0925867
   108   6 C      203   1 H                                       1.0911156
   109   6 C      204   1 H                                       1.0879110
   109   6 C      205   1 H                                       1.0865462
   109   6 C      206   1 H                                       1.0872428
   120   6 C      207   1 H                                       1.0944177
   120   6 C      208   1 H                                       1.0916681
   121   6 C      209   1 H                                       1.0881540
   121   6 C      210   1 H                                       1.0870685
   121   6 C      211   1 H                                       1.0868180
   128   6 C      212   1 H                                       1.0727687
   132   6 C      213   1 H                                       1.0732733
   138   6 C      214   1 H                                       1.0906188
   138   6 C      215   1 H                                       1.0921390
   139   6 C      216   1 H                                       1.0871774
   139   6 C      217   1 H                                       1.0865707
   139   6 C      218   1 H                                       1.0867237
   150   6 C      219   1 H                                       1.0917397
   150   6 C      220   1 H                                       1.0911409
   151   6 C      221   1 H                                       1.0874764
   151   6 C      222   1 H                                       1.0865843
   151   6 C      223   1 H                                       1.0870439
   158   6 C      224   1 H                                       1.0741695
   159   6 C      225   1 H                                       1.0723934 (min)

 * 4 distinct bonds (by element types)

   Z      Z             #   av. dist./Å        max./Å        min./Å
   1 H    6 C          65     1.0855858     1.0944177     1.0723934
   6 C    6 C         113     1.4152699     1.5309781     1.3480287
   6 C   16 S          42     1.7386603     1.7554387     1.7278888
   6 C   17 Cl         20     1.7159025     1.7185174     1.7131770


optimized geometry written to: xtbopt.mol


           -------------------------------------------------
          | TOTAL ENERGY             -450.121709867297 Eh   |
          | GRADIENT NORM               0.000857713423 Eh/α |
          | HOMO-LUMO GAP               1.215322134504 eV   |
           -------------------------------------------------

------------------------------------------------------------------------
 * finished run on 2022/03/01 at 10:41:33.751     
------------------------------------------------------------------------
 total:
 * wall-time:     0 d,  0 h,  8 min, 16.567 sec
 *  cpu-time:     0 d,  1 h,  6 min,  7.848 sec
 * ratio c/w:     7.991 speedup
 SCF:
 * wall-time:     0 d,  0 h,  0 min,  1.627 sec
 *  cpu-time:     0 d,  0 h,  0 min, 12.995 sec
 * ratio c/w:     7.988 speedup
 ANC optimizer:
 * wall-time:     0 d,  0 h,  8 min, 14.177 sec
 *  cpu-time:     0 d,  1 h,  5 min, 52.920 sec
 * ratio c/w:     7.999 speedup

