      -----------------------------------------------------------      
     |                   =====================                   |     
     |                           x T B                           |     
     |                   =====================                   |     
     |                         S. Grimme                         |     
     |          Mulliken Center for Theoretical Chemistry        |     
     |                    University of Bonn                     |     
      -----------------------------------------------------------      

   * xtb version 6.4.1 (unknown) compiled by 'oda6@login1.crc.pitt.edu' on 2021-06-25

   xtb is free software: you can redistribute it and/or modify it under
   the terms of the GNU Lesser General Public License as published by
   the Free Software Foundation, either version 3 of the License, or
   (at your option) any later version.
   
   xtb is distributed in the hope that it will be useful,
   but WITHOUT ANY WARRANTY; without even the implied warranty of
   MERCHANTABILITY or FITNESS FOR A PARTICULAR PURPOSE.  See the
   GNU Lesser General Public License for more details.
   
   Cite this work as:
   * C. Bannwarth, E. Caldeweyher, S. Ehlert, A. Hansen, P. Pracht,
     J. Seibert, S. Spicher, S. Grimme, WIREs Comput. Mol. Sci., 2020, 11,
     e01493. DOI: 10.1002/wcms.1493
   
   for GFN2-xTB:
   * C. Bannwarth, S. Ehlert and S. Grimme., J. Chem. Theory Comput., 2019,
     15, 1652-1671. DOI: 10.1021/acs.jctc.8b01176
   for GFN1-xTB:
   * S. Grimme, C. Bannwarth, P. Shushkov, J. Chem. Theory Comput., 2017,
     13, 1989-2009. DOI: 10.1021/acs.jctc.7b00118
   for GFN0-xTB:
   * P. Pracht, E. Caldeweyher, S. Ehlert, S. Grimme, ChemRxiv, 2019, preprint.
     DOI: 10.26434/chemrxiv.8326202.v1
   for GFN-FF:
   * S. Spicher and S. Grimme, Angew. Chem. Int. Ed., 2020, 59, 15665-15673.
     DOI: 10.1002/anie.202004239
   
   for DFT-D4:
   * E. Caldeweyher, C. Bannwarth and S. Grimme, J. Chem. Phys., 2017,
     147, 034112. DOI: 10.1063/1.4993215
   * E. Caldeweyher, S. Ehlert, A. Hansen, H. Neugebauer, S. Spicher,
     C. Bannwarth and S. Grimme, J. Chem. Phys., 2019, 150, 154122.
     DOI: 10.1063/1.5090222
   * E. Caldeweyher, J.-M. Mewes, S. Ehlert and S. Grimme, Phys. Chem. Chem. Phys.
     2020, 22, 8499-8512. DOI: 10.1039/D0CP00502A
   
   for sTDA-xTB:
   * S. Grimme and C. Bannwarth, J. Chem. Phys., 2016, 145, 054103.
     DOI: 10.1063/1.4959605
   
   in the mass-spec context:
   * V. Asgeirsson, C. Bauer and S. Grimme, Chem. Sci., 2017, 8, 4879.
     DOI: 10.1039/c7sc00601b
   * J. Koopman and S. Grimme, ACS Omega 2019, 4, 12, 15120-15133.
     DOI: 10.1021/acsomega.9b02011
   
   for metadynamics refer to:
   * S. Grimme, J. Chem. Theory Comput., 2019, 155, 2847-2862
     DOI: 10.1021/acs.jctc.9b00143
   
   for SPH calculations refer to:
   * S. Spicher and S. Grimme, J. Chem. Theory Comput., 2021, 17, 1701-1714
     DOI: 10.1021/acs.jctc.0c01306
   
   with help from (in alphabetical order)
   P. Atkinson, C. Bannwarth, F. Bohle, G. Brandenburg, E. Caldeweyher
   M. Checinski, S. Dohm, S. Ehlert, S. Ehrlich, I. Gerasimov, J. Koopman
   C. Lavigne, S. Lehtola, F. März, M. Müller, F. Musil, H. Neugebauer
   J. Pisarek, C. Plett, P. Pracht, J. Seibert, P. Shushkov, S. Spicher
   M. Stahn, M. Steiner, T. Strunk, J. Stückrath, T. Rose, and J. Unsleber
   
 * started run on 2022/03/04 at 19:31:41.996     

           -------------------------------------------------
          |                Calculation Setup                |
           -------------------------------------------------

          program call               : /ihome/ghutchison/oda6/xtb/xtb-641/bin/xtb ../../FF_optimized/803_99_110011.mol -opt
          hostname                   : smp-n90
          coordinate file            : ../../FF_optimized/803_99_110011.mol
          omp threads                :                     8
          number of atoms            :                   258
          number of electrons        :                   770
          charge                     :                     0
          spin                       :                   0.0
          first test random number   :      0.40092062069022

   ID    Z sym.   atoms
    1    6 C      1-8, 10-12, 14-21, 23-26, 28, 30, 31, 33-40, 42-44, 46-53,
                  55-58, 60, 62, 63, 65-96, 98-100, 102-109, 111-114, 116,
                  118, 119, 121-128, 130-132, 134-141, 143-146, 148, 150, 151
    2   16 S      9, 22, 29, 32, 41, 54, 61, 64, 97, 110, 117, 120, 129, 142,
                  149, 152
    3    9 F      13, 27, 45, 59, 101, 115, 133, 147
    4    1 H      153-258
########################################################################
[WARNING] Please study the warnings concerning your input carefully
-1- prog_main_parseArguments: the use of '-opt' is discouraged, please use '--opt' next time
########################################################################

           -------------------------------------------------
          |                 G F N 2 - x T B                 |
           -------------------------------------------------

        Reference                      10.1021/acs.jctc.8b01176
      * Hamiltonian:
        H0-scaling (s, p, d)           1.850000    2.230000    2.230000
        zeta-weighting                 0.500000
      * Dispersion:
        s8                             2.700000
        a1                             0.520000
        a2                             5.000000
        s9                             5.000000
      * Repulsion:
        kExp                           1.500000    1.000000
        rExp                           1.000000
      * Coulomb:
        alpha                          2.000000
        third order                    shell-resolved
        anisotropic                    true
        a3                             3.000000
        a5                             4.000000
        cn-shift                       1.200000
        cn-exp                         4.000000
        max-rad                        5.000000


          ...................................................
          :                      SETUP                      :
          :.................................................:
          :  # basis functions                 810          :
          :  # atomic orbitals                 794          :
          :  # shells                          426          :
          :  # electrons                       770          :
          :  max. iterations                   250          :
          :  Hamiltonian                  GFN2-xTB          :
          :  restarted?                      false          :
          :  GBSA solvation                  false          :
          :  PC potential                    false          :
          :  electronic temp.          300.0000000     K    :
          :  accuracy                    1.0000000          :
          :  -> integral cutoff          0.2500000E+02      :
          :  -> integral neglect         0.1000000E-07      :
          :  -> SCF convergence          0.1000000E-05 Eh   :
          :  -> wf. convergence          0.1000000E-03 e    :
          :  Broyden damping             0.4000000          :
          ...................................................

 iter      E             dE          RMSdq      gap      omega  full diag
   1   -423.3193266 -0.423319E+03  0.419E+00    2.10       0.0  T
   2   -423.6758059 -0.356479E+00  0.244E+00    1.88       1.0  T
   3   -423.4831254  0.192680E+00  0.120E+00    1.52       1.0  T
   4   -423.7160887 -0.232963E+00  0.542E-01    1.61       1.0  T
   5   -423.7651933 -0.491046E-01  0.220E-01    1.60       1.0  T
   6   -423.7697783 -0.458502E-02  0.103E-01    1.60       1.0  T
   7   -423.7709143 -0.113596E-02  0.486E-02    1.61       1.0  T
   8   -423.7713379 -0.423663E-03  0.236E-02    1.61       1.0  T
   9   -423.7714126 -0.746656E-04  0.118E-02    1.62       1.0  T
  10   -423.7714222 -0.960126E-05  0.502E-03    1.62       1.2  T
  11   -423.7714258 -0.354385E-05  0.255E-03    1.62       2.4  T
  12   -423.7714270 -0.125923E-05  0.120E-03    1.62       5.2  T
  13   -423.7714271 -0.124433E-06  0.593E-04    1.62      10.5  T
  14   -423.7714272 -0.441290E-07  0.282E-04    1.62      22.1  T

   *** convergence criteria satisfied after 14 iterations ***

         #    Occupation            Energy/Eh            Energy/eV
      -------------------------------------------------------------
         1        2.0000           -0.8307857             -22.6068
       ...           ...                  ...                  ...
       379        2.0000           -0.3631908              -9.8829
       380        2.0000           -0.3630386              -9.8788
       381        2.0000           -0.3629686              -9.8769
       382        2.0000           -0.3612931              -9.8313
       383        2.0000           -0.3603013              -9.8043
       384        2.0000           -0.3602918              -9.8040
       385        2.0000           -0.3600026              -9.7962 (HOMO)
       386                         -0.3005601              -8.1787 (LUMO)
       387                         -0.2954579              -8.0398
       388                         -0.2920508              -7.9471
       389                         -0.2904567              -7.9037
       390                         -0.2703547              -7.3567
       ...                                ...                  ...
       794                          0.7701383              20.9565
      -------------------------------------------------------------
                  HL-Gap            0.0594425 Eh            1.6175 eV
             Fermi-level           -0.3297401 Eh           -8.9727 eV

 SCC (total)                   0 d,  0 h,  0 min,  1.177 sec
 SCC setup                      ...        0 min,  0.005 sec (  0.403%)
 Dispersion                     ...        0 min,  0.013 sec (  1.101%)
 classical contributions        ...        0 min,  0.001 sec (  0.051%)
 integral evaluation            ...        0 min,  0.057 sec (  4.807%)
 iterations                     ...        0 min,  0.849 sec ( 72.149%)
 molecular gradient             ...        0 min,  0.247 sec ( 20.981%)
 printout                       ...        0 min,  0.006 sec (  0.500%)

         :::::::::::::::::::::::::::::::::::::::::::::::::::::
         ::                     SUMMARY                     ::
         :::::::::::::::::::::::::::::::::::::::::::::::::::::
         :: total energy            -417.975086192551 Eh    ::
         :: gradient norm              0.311982909176 Eh/a0 ::
         :: HOMO-LUMO gap              1.617512866618 eV    ::
         ::.................................................::
         :: SCC energy              -423.771427178299 Eh    ::
         :: -> isotropic ES            0.124614396192 Eh    ::
         :: -> anisotropic ES          0.038057635971 Eh    ::
         :: -> anisotropic XC          0.177961896756 Eh    ::
         :: -> dispersion             -0.428076247121 Eh    ::
         :: repulsion energy           5.773862038879 Eh    ::
         :: add. restraining           0.000000000000 Eh    ::
         :: total charge               0.000000000000 e     ::
         :::::::::::::::::::::::::::::::::::::::::::::::::::::

      ----------------------------------------------------------- 
     |                   =====================                   |
     |                        A N C O P T                        |
     |                   =====================                   |
     |               Approximate Normal Coordinate               |
     |                Rational Function Optimizer                |
      ----------------------------------------------------------- 

          ...................................................
          :                      SETUP                      :
          :.................................................:
          :   optimization level            normal          :
          :   max. optcycles                   774          :
          :   ANC micro-cycles                  20          :
          :   degrees of freedom               768          :
          :.................................................:
          :   RF solver                   davidson          :
          :   write xtbopt.log                true          :
          :   linear?                        false          :
          :   energy convergence         0.5000000E-05 Eh   :
          :   grad. convergence          0.1000000E-02 Eh/α :
          :   maximium RF displ.         1.0000000          :
          :   Hlow (freq-cutoff)         0.1000000E-01      :
          :   Hmax (freq-cutoff)         5.0000000          :
          :   S6 in model hess.         20.0000000          :
          ...................................................

generating ANC from model Hessian ...
Using Lindh-Hessian (1995)
 Shifting diagonal of input Hessian by   9.996847975327726E-003
 Lowest  eigenvalues of input Hessian
    0.000000    0.000000    0.000000    0.000000    0.000000    0.000000
    0.010000    0.010003    0.010015    0.010025    0.010037    0.010048
    0.010060    0.010066    0.010081    0.010089    0.010091    0.010100
 Highest eigenvalues
    2.055966    2.057939    2.092058    2.100430    2.102060    2.104589
 

........................................................................
.............................. CYCLE    1 ..............................
........................................................................
   1   -423.7714272 -0.423771E+03  0.154E-04    1.62       0.0  T
   2   -423.7714272  0.212930E-08  0.150E-04    1.62      41.6  T
   3   -423.7714272 -0.666898E-08  0.615E-05    1.62     101.2  T
     SCC iter.                  ...        0 min,  0.185 sec
     gradient                   ...        0 min,  0.242 sec
 * total energy  :  -417.9750862 Eh     change       -0.1126546E-07 Eh
   gradient norm :     0.3119832 Eh/α   predicted     0.0000000E+00 (-100.00%)
   displ. norm   :     0.4696082 α      lambda       -0.1089570E+00
   maximum displ.:     0.0932332 α      in ANC's #438, #453, #440, ...

........................................................................
.............................. CYCLE    2 ..............................
........................................................................
   1   -424.0369633 -0.424037E+03  0.220E-01    1.65       0.0  T
   2   -424.0376103 -0.646968E-03  0.128E-01    1.63       1.0  T
   3   -424.0368759  0.734408E-03  0.706E-02    1.65       1.0  T
   4   -424.0378020 -0.926057E-03  0.267E-02    1.66       1.0  T
   5   -424.0379355 -0.133585E-03  0.105E-02    1.65       1.0  T
   6   -424.0379512 -0.156123E-04  0.445E-03    1.65       1.4  T
   7   -424.0379536 -0.241303E-05  0.201E-03    1.65       3.1  T
   8   -424.0379543 -0.696697E-06  0.977E-04    1.65       6.4  T
   9   -424.0379543 -0.606810E-07  0.476E-04    1.65      13.1  T
     SCC iter.                  ...        0 min,  0.545 sec
     gradient                   ...        0 min,  0.243 sec
 * total energy  :  -418.0557261 Eh     change       -0.8063987E-01 Eh
   gradient norm :     0.1583523 Eh/α   predicted    -0.6651671E-01 ( -17.51%)
   displ. norm   :     0.4400466 α      lambda       -0.4742842E-01
   maximum displ.:     0.0712293 α      in ANC's #112, #438, #711, ...

........................................................................
.............................. CYCLE    3 ..............................
........................................................................
   1   -424.2191430 -0.424219E+03  0.183E-01    1.69       0.0  T
   2   -424.2197379 -0.594861E-03  0.106E-01    1.66       1.0  T
   3   -424.2193326  0.405255E-03  0.583E-02    1.69       1.0  T
   4   -424.2198762 -0.543571E-03  0.257E-02    1.69       1.0  T
   5   -424.2200035 -0.127267E-03  0.877E-03    1.69       1.0  T
   6   -424.2200120 -0.853171E-05  0.415E-03    1.69       1.5  T
   7   -424.2200145 -0.245107E-05  0.153E-03    1.69       4.1  T
   8   -424.2200147 -0.278599E-06  0.865E-04    1.69       7.2  T
   9   -424.2200148 -0.594381E-07  0.381E-04    1.69      16.3  T
     SCC iter.                  ...        0 min,  0.556 sec
     gradient                   ...        0 min,  0.242 sec
 * total energy  :  -418.0851370 Eh     change       -0.2941090E-01 Eh
   gradient norm :     0.0441146 Eh/α   predicted    -0.2830625E-01 (  -3.76%)
   displ. norm   :     0.4638608 α      lambda       -0.9384864E-02
   maximum displ.:     0.1382050 α      in ANC's #112, #115, #124, ...

........................................................................
.............................. CYCLE    4 ..............................
........................................................................
   1   -424.2576839 -0.424258E+03  0.873E-02    1.69       0.0  T
   2   -424.2577434 -0.594679E-04  0.510E-02    1.68       1.0  T
   3   -424.2575727  0.170654E-03  0.274E-02    1.69       1.0  T
   4   -424.2577656 -0.192864E-03  0.945E-03    1.69       1.0  T
   5   -424.2577851 -0.195401E-04  0.325E-03    1.69       1.9  T
   6   -424.2577861 -0.102604E-05  0.153E-03    1.69       4.1  T
   7   -424.2577865 -0.365058E-06  0.610E-04    1.69      10.2  T
   8   -424.2577865 -0.318133E-07  0.377E-04    1.69      16.5  T
     SCC iter.                  ...        0 min,  0.485 sec
     gradient                   ...        0 min,  0.243 sec
 * total energy  :  -418.0919110 Eh     change       -0.6774067E-02 Eh
   gradient norm :     0.0222964 Eh/α   predicted    -0.5702099E-02 ( -15.82%)
   displ. norm   :     0.5363520 α      lambda       -0.4911821E-02
   maximum displ.:     0.1580814 α      in ANC's #112, #115, #67, ...

........................................................................
.............................. CYCLE    5 ..............................
........................................................................
   1   -424.2713800 -0.424271E+03  0.728E-02    1.68       0.0  T
   2   -424.2713970 -0.170176E-04  0.419E-02    1.68       1.0  T
   3   -424.2712909  0.106076E-03  0.194E-02    1.68       1.0  T
   4   -424.2714061 -0.115120E-03  0.549E-03    1.68       1.1  T
   5   -424.2714118 -0.574845E-05  0.224E-03    1.68       2.8  T
   6   -424.2714123 -0.509519E-06  0.941E-04    1.68       6.6  T
   7   -424.2714125 -0.166135E-06  0.386E-04    1.68      16.1  T
     SCC iter.                  ...        0 min,  0.439 sec
     gradient                   ...        0 min,  0.243 sec
 * total energy  :  -418.0955613 Eh     change       -0.3650256E-02 Eh
   gradient norm :     0.0129129 Eh/α   predicted    -0.3162413E-02 ( -13.36%)
   displ. norm   :     0.5645461 α      lambda       -0.2898465E-02
   maximum displ.:     0.1469596 α      in ANC's #67, #112, #64, ...

........................................................................
.............................. CYCLE    6 ..............................
........................................................................
   1   -424.2769433 -0.424277E+03  0.648E-02    1.67       0.0  T
   2   -424.2769507 -0.740743E-05  0.364E-02    1.67       1.0  T
   3   -424.2769131  0.376162E-04  0.122E-02    1.67       1.0  T
   4   -424.2769537 -0.405856E-04  0.417E-03    1.67       1.5  T
   5   -424.2769555 -0.182160E-05  0.195E-03    1.67       3.2  T
   6   -424.2769563 -0.780200E-06  0.523E-04    1.67      11.9  T
   7   -424.2769563 -0.574948E-07  0.251E-04    1.67      24.8  T
     SCC iter.                  ...        0 min,  0.419 sec
     gradient                   ...        0 min,  0.243 sec
 * total energy  :  -418.0978248 Eh     change       -0.2263506E-02 Eh
   gradient norm :     0.0115300 Eh/α   predicted    -0.1911122E-02 ( -15.57%)
   displ. norm   :     0.6217667 α      lambda       -0.2246834E-02
   maximum displ.:     0.1595695 α      in ANC's #64, #67, #59, ...

........................................................................
.............................. CYCLE    7 ..............................
........................................................................
   1   -424.2792224 -0.424279E+03  0.650E-02    1.66       0.0  T
   2   -424.2792303 -0.796181E-05  0.357E-02    1.66       1.0  T
   3   -424.2792054  0.248792E-04  0.105E-02    1.66       1.0  T
   4   -424.2792321 -0.266604E-04  0.448E-03    1.66       1.4  T
   5   -424.2792341 -0.202127E-05  0.197E-03    1.66       3.2  T
   6   -424.2792351 -0.929311E-06  0.428E-04    1.66      14.5  T
   7   -424.2792351 -0.308600E-07  0.232E-04    1.66      26.9  T
     SCC iter.                  ...        0 min,  0.432 sec
     gradient                   ...        0 min,  0.243 sec
 * total energy  :  -418.0996722 Eh     change       -0.1847416E-02 Eh
   gradient norm :     0.0120876 Eh/α   predicted    -0.1557741E-02 ( -15.68%)
   displ. norm   :     0.6838283 α      lambda       -0.2046886E-02
   maximum displ.:     0.1829127 α      in ANC's #64, #22, #59, ...

........................................................................
.............................. CYCLE    8 ..............................
........................................................................
   1   -424.2796507 -0.424280E+03  0.681E-02    1.65       0.0  T
   2   -424.2796615 -0.107970E-04  0.370E-02    1.66       1.0  T
   3   -424.2796324  0.291288E-04  0.111E-02    1.65       1.0  T
   4   -424.2796627 -0.302749E-04  0.522E-03    1.65       1.2  T
   5   -424.2796665 -0.378398E-05  0.203E-03    1.65       3.1  T
   6   -424.2796673 -0.792547E-06  0.547E-04    1.65      11.4  T
   7   -424.2796673 -0.511481E-07  0.247E-04    1.65      25.2  T
     SCC iter.                  ...        0 min,  0.425 sec
     gradient                   ...        0 min,  0.244 sec
 * total energy  :  -418.1014036 Eh     change       -0.1731346E-02 Eh
   gradient norm :     0.0108597 Eh/α   predicted    -0.1502065E-02 ( -13.24%)
   displ. norm   :     0.7177157 α      lambda       -0.1888615E-02
   maximum displ.:     0.1868198 α      in ANC's #64, #22, #59, ...

........................................................................
.............................. CYCLE    9 ..............................
........................................................................
   1   -424.2792298 -0.424279E+03  0.709E-02    1.65       0.0  T
   2   -424.2792420 -0.122150E-04  0.384E-02    1.65       1.0  T
   3   -424.2792115  0.305593E-04  0.115E-02    1.65       1.0  T
   4   -424.2792423 -0.308779E-04  0.568E-03    1.65       1.1  T
   5   -424.2792473 -0.498650E-05  0.202E-03    1.65       3.1  T
   6   -424.2792480 -0.714363E-06  0.600E-04    1.65      10.4  T
   7   -424.2792481 -0.604790E-07  0.262E-04    1.65      23.8  T
     SCC iter.                  ...        0 min,  0.414 sec
     gradient                   ...        0 min,  0.243 sec
 * total energy  :  -418.1030204 Eh     change       -0.1616837E-02 Eh
   gradient norm :     0.0090249 Eh/α   predicted    -0.1430737E-02 ( -11.51%)
   displ. norm   :     0.7399071 α      lambda       -0.1721128E-02
   maximum displ.:     0.1914835 α      in ANC's #22, #26, #21, ...

........................................................................
.............................. CYCLE   10 ..............................
........................................................................
   1   -424.2782394 -0.424278E+03  0.743E-02    1.64       0.0  T
   2   -424.2782516 -0.121670E-04  0.401E-02    1.64       1.0  T
   3   -424.2782279  0.236322E-04  0.109E-02    1.64       1.0  T
   4   -424.2782507 -0.227876E-04  0.582E-03    1.64       1.1  T
   5   -424.2782561 -0.535257E-05  0.196E-03    1.64       3.2  T
   6   -424.2782569 -0.796893E-06  0.572E-04    1.64      10.9  T
   7   -424.2782569 -0.542618E-07  0.262E-04    1.64      23.8  T
     SCC iter.                  ...        0 min,  0.421 sec
     gradient                   ...        0 min,  0.242 sec
 * total energy  :  -418.1045144 Eh     change       -0.1493984E-02 Eh
   gradient norm :     0.0088556 Eh/α   predicted    -0.1331694E-02 ( -10.86%)
   displ. norm   :     0.7642911 α      lambda       -0.1603643E-02
   maximum displ.:     0.2056836 α      in ANC's #26, #22, #21, ...

........................................................................
.............................. CYCLE   11 ..............................
........................................................................
   1   -424.2769979 -0.424277E+03  0.780E-02    1.64       0.0  T
   2   -424.2770106 -0.127376E-04  0.421E-02    1.64       1.0  T
   3   -424.2769952  0.153893E-04  0.102E-02    1.64       1.0  T
   4   -424.2770090 -0.137506E-04  0.584E-03    1.64       1.1  T
   5   -424.2770143 -0.530296E-05  0.202E-03    1.64       3.1  T
   6   -424.2770154 -0.106677E-05  0.558E-04    1.64      11.2  T
   7   -424.2770154 -0.530518E-07  0.255E-04    1.64      24.4  T
   8   -424.2770154 -0.338440E-08  0.150E-04    1.64      41.6  T
     SCC iter.                  ...        0 min,  0.476 sec
     gradient                   ...        0 min,  0.243 sec
 * total energy  :  -418.1059321 Eh     change       -0.1417757E-02 Eh
   gradient norm :     0.0092103 Eh/α   predicted    -0.1270205E-02 ( -10.41%)
   displ. norm   :     0.7878949 α      lambda       -0.1548198E-02
   maximum displ.:     0.2226995 α      in ANC's #26, #22, #21, ...

........................................................................
.............................. CYCLE   12 ..............................
........................................................................
   1   -424.2766763 -0.424277E+03  0.809E-02    1.63       0.0  T
   2   -424.2766906 -0.142461E-04  0.436E-02    1.64       1.0  T
   3   -424.2766766  0.139549E-04  0.104E-02    1.64       1.0  T
   4   -424.2766897 -0.131122E-04  0.580E-03    1.64       1.1  T
   5   -424.2766941 -0.441808E-05  0.219E-03    1.64       2.8  T
   6   -424.2766956 -0.143929E-05  0.602E-04    1.64      10.3  T
   7   -424.2766957 -0.725255E-07  0.261E-04    1.64      23.8  T
   8   -424.2766957 -0.310229E-08  0.151E-04    1.64      41.3  T
     SCC iter.                  ...        0 min,  0.474 sec
     gradient                   ...        0 min,  0.243 sec
 * total energy  :  -418.1073185 Eh     change       -0.1386357E-02 Eh
   gradient norm :     0.0085746 Eh/α   predicted    -0.1254659E-02 (  -9.50%)
   displ. norm   :     0.8067624 α      lambda       -0.1508499E-02
   maximum displ.:     0.2351682 α      in ANC's #26, #22, #21, ...

........................................................................
.............................. CYCLE   13 ..............................
........................................................................
   1   -424.2778765 -0.424278E+03  0.824E-02    1.63       0.0  T
   2   -424.2778923 -0.158126E-04  0.445E-02    1.63       1.0  T
   3   -424.2778769  0.154264E-04  0.110E-02    1.63       1.0  T
   4   -424.2778928 -0.159436E-04  0.576E-03    1.64       1.1  T
   5   -424.2778964 -0.352567E-05  0.227E-03    1.63       2.7  T
   6   -424.2778979 -0.155015E-05  0.655E-04    1.63       9.5  T
   7   -424.2778980 -0.960160E-07  0.278E-04    1.63      22.4  T
   8   -424.2778980 -0.381334E-08  0.159E-04    1.63      39.0  T
     SCC iter.                  ...        0 min,  0.489 sec
     gradient                   ...        0 min,  0.243 sec
 * total energy  :  -418.1086790 Eh     change       -0.1360488E-02 Eh
   gradient norm :     0.0077961 Eh/α   predicted    -0.1245185E-02 (  -8.48%)
   displ. norm   :     0.8198629 α      lambda       -0.1461019E-02
   maximum displ.:     0.2423843 α      in ANC's #26, #21, #22, ...

........................................................................
.............................. CYCLE   14 ..............................
........................................................................
   1   -424.2804546 -0.424280E+03  0.829E-02    1.62       0.0  T
   2   -424.2804710 -0.163682E-04  0.447E-02    1.63       1.0  T
   3   -424.2804560  0.150259E-04  0.111E-02    1.63       1.0  T
   4   -424.2804728 -0.168096E-04  0.557E-03    1.63       1.1  T
   5   -424.2804755 -0.271199E-05  0.210E-03    1.63       3.0  T
   6   -424.2804768 -0.128670E-05  0.678E-04    1.63       9.2  T
   7   -424.2804769 -0.111411E-06  0.287E-04    1.63      21.7  T
   8   -424.2804769 -0.496817E-08  0.162E-04    1.63      38.5  T
     SCC iter.                  ...        0 min,  0.480 sec
     gradient                   ...        0 min,  0.243 sec
 * total energy  :  -418.1100043 Eh     change       -0.1325310E-02 Eh
   gradient norm :     0.0084366 Eh/α   predicted    -0.1221551E-02 (  -7.83%)
   displ. norm   :     0.8289589 α      lambda       -0.1419879E-02
   maximum displ.:     0.2451004 α      in ANC's #26, #21, #22, ...

........................................................................
.............................. CYCLE   15 ..............................
........................................................................
   1   -424.2838026 -0.424284E+03  0.830E-02    1.62       0.0  T
   2   -424.2838191 -0.165440E-04  0.448E-02    1.63       1.0  T
   3   -424.2838055  0.136484E-04  0.110E-02    1.63       1.0  T
   4   -424.2838216 -0.161616E-04  0.537E-03    1.63       1.2  T
   5   -424.2838242 -0.255365E-05  0.159E-03    1.63       3.9  T
   6   -424.2838248 -0.611545E-06  0.706E-04    1.63       8.8  T
   7   -424.2838249 -0.135286E-06  0.287E-04    1.63      21.7  T
     SCC iter.                  ...        0 min,  0.419 sec
     gradient                   ...        0 min,  0.243 sec
 * total energy  :  -418.1112996 Eh     change       -0.1295288E-02 Eh
   gradient norm :     0.0094614 Eh/α   predicted    -0.1197794E-02 (  -7.53%)
   displ. norm   :     0.8325328 α      lambda       -0.1387788E-02
   maximum displ.:     0.2434759 α      in ANC's #26, #21, #47, ...

........................................................................
.............................. CYCLE   16 ..............................
........................................................................
   1   -424.2873162 -0.424287E+03  0.828E-02    1.61       0.0  T
   2   -424.2873334 -0.171269E-04  0.448E-02    1.62       1.0  T
   3   -424.2873170  0.164236E-04  0.112E-02    1.62       1.0  T
   4   -424.2873356 -0.186965E-04  0.550E-03    1.63       1.1  T
   5   -424.2873387 -0.301303E-05  0.175E-03    1.62       3.6  T
   6   -424.2873393 -0.685159E-06  0.744E-04    1.62       8.4  T
   7   -424.2873395 -0.137235E-06  0.280E-04    1.62      22.2  T
     SCC iter.                  ...        0 min,  0.424 sec
     gradient                   ...        0 min,  0.243 sec
 * total energy  :  -418.1125645 Eh     change       -0.1264862E-02 Eh
   gradient norm :     0.0091114 Eh/α   predicted    -0.1174845E-02 (  -7.12%)
   displ. norm   :     0.8334268 α      lambda       -0.1327561E-02
   maximum displ.:     0.2393155 α      in ANC's #26, #21, #47, ...

........................................................................
.............................. CYCLE   17 ..............................
........................................................................
   1   -424.2895009 -0.424290E+03  0.824E-02    1.61       0.0  T
   2   -424.2895189 -0.179821E-04  0.446E-02    1.62       1.0  T
   3   -424.2894957  0.231555E-04  0.121E-02    1.62       1.0  T
   4   -424.2895209 -0.252118E-04  0.579E-03    1.62       1.1  T
   5   -424.2895245 -0.356937E-05  0.219E-03    1.62       2.8  T
   6   -424.2895256 -0.106754E-05  0.780E-04    1.62       8.0  T
   7   -424.2895257 -0.140526E-06  0.289E-04    1.62      21.5  T
   8   -424.2895257 -0.624073E-08  0.167E-04    1.62      37.4  T
     SCC iter.                  ...        0 min,  0.477 sec
     gradient                   ...        0 min,  0.243 sec
 * total energy  :  -418.1137659 Eh     change       -0.1201440E-02 Eh
   gradient norm :     0.0075162 Eh/α   predicted    -0.1124850E-02 (  -6.37%)
   displ. norm   :     0.8287618 α      lambda       -0.1225608E-02
   maximum displ.:     0.2314510 α      in ANC's #26, #5, #47, ...

........................................................................
.............................. CYCLE   18 ..............................
........................................................................
   1   -424.2920606 -0.424292E+03  0.805E-02    1.61       0.0  T
   2   -424.2920780 -0.174868E-04  0.436E-02    1.62       1.0  T
   3   -424.2920503  0.277451E-04  0.126E-02    1.62       1.0  T
   4   -424.2920805 -0.301619E-04  0.578E-03    1.62       1.1  T
   5   -424.2920839 -0.346497E-05  0.229E-03    1.62       2.7  T
   6   -424.2920851 -0.117792E-05  0.757E-04    1.62       8.2  T
   7   -424.2920852 -0.126457E-06  0.290E-04    1.62      21.5  T
   8   -424.2920852 -0.700834E-08  0.168E-04    1.62      37.0  T
     SCC iter.                  ...        0 min,  0.481 sec
     gradient                   ...        0 min,  0.243 sec
 * total energy  :  -418.1148672 Eh     change       -0.1101298E-02 Eh
   gradient norm :     0.0066766 Eh/α   predicted    -0.1033707E-02 (  -6.14%)
   displ. norm   :     0.8399078 α      lambda       -0.1121599E-02
   maximum displ.:     0.2309567 α      in ANC's #26, #5, #47, ...

........................................................................
.............................. CYCLE   19 ..............................
........................................................................
   1   -424.2876882 -0.424288E+03  0.807E-02    1.61       0.0  T
   2   -424.2877060 -0.178097E-04  0.437E-02    1.62       1.0  T
   3   -424.2876813  0.247452E-04  0.125E-02    1.62       1.0  T
   4   -424.2877087 -0.274328E-04  0.565E-03    1.62       1.1  T
   5   -424.2877115 -0.281581E-05  0.233E-03    1.62       2.7  T
   6   -424.2877129 -0.132457E-05  0.748E-04    1.62       8.3  T
   7   -424.2877130 -0.125191E-06  0.285E-04    1.62      21.9  T
   8   -424.2877130 -0.748071E-08  0.165E-04    1.62      37.8  T
     SCC iter.                  ...        0 min,  0.479 sec
     gradient                   ...        0 min,  0.243 sec
 * total energy  :  -418.1158731 Eh     change       -0.1005952E-02 Eh
   gradient norm :     0.0079520 Eh/α   predicted    -0.9564138E-03 (  -4.92%)
   displ. norm   :     0.8182268 α      lambda       -0.1209837E-02
   maximum displ.:     0.2465534 α      in ANC's #5, #47, #13, ...

........................................................................
.............................. CYCLE   20 ..............................
........................................................................
   1   -424.3083531 -0.424308E+03  0.750E-02    1.62       0.0  T
   2   -424.3083696 -0.165552E-04  0.409E-02    1.62       1.0  T
   3   -424.3083382  0.314728E-04  0.127E-02    1.62       1.0  T
   4   -424.3083737 -0.355129E-04  0.530E-03    1.63       1.2  T
   5   -424.3083759 -0.225851E-05  0.236E-03    1.62       2.6  T
   6   -424.3083773 -0.133940E-05  0.713E-04    1.62       8.7  T
   7   -424.3083774 -0.895803E-07  0.339E-04    1.62      18.3  T
   8   -424.3083774 -0.114774E-07  0.188E-04    1.62      33.1  T
     SCC iter.                  ...        0 min,  0.479 sec
     gradient                   ...        0 min,  0.243 sec
 * total energy  :  -418.1166970 Eh     change       -0.8238082E-03 Eh
   gradient norm :     0.0125205 Eh/α   predicted    -0.1009916E-02 (  22.59%)
   displ. norm   :     0.7782016 α      lambda       -0.1172856E-02
   maximum displ.:     0.2086284 α      in ANC's #26, #47, #5, ...
 * RMSD in coord.:     0.7180807 α      energy gain  -0.1416108E+00 Eh

generating ANC from model Hessian ...
Using Lindh-Hessian (1995)
 Shifting diagonal of input Hessian by   1.000398458212172E-002
 Lowest  eigenvalues of input Hessian
    0.010000    0.010004    0.000000    0.000000    0.000000    0.000000
    0.000000    0.000000    0.010018    0.010028    0.010043    0.010055
    0.010066    0.010080    0.010094    0.010106    0.010108    0.010126
 Highest eigenvalues
    2.098455    2.106199    2.109158    2.110351    2.115200    2.118607
 

........................................................................
.............................. CYCLE   21 ..............................
........................................................................
   1   -424.2907205 -0.424291E+03  0.759E-02    1.62       0.0  T
   2   -424.2907398 -0.192550E-04  0.414E-02    1.62       1.0  T
   3   -424.2907180  0.218421E-04  0.129E-02    1.62       1.0  T
   4   -424.2907445 -0.265623E-04  0.504E-03    1.62       1.2  T
   5   -424.2907450 -0.514873E-06  0.254E-03    1.62       2.5  T
   6   -424.2907470 -0.194086E-05  0.756E-04    1.62       8.2  T
   7   -424.2907471 -0.144499E-06  0.280E-04    1.62      22.3  T
   8   -424.2907471 -0.685930E-08  0.153E-04    1.62      40.6  T
     SCC iter.                  ...        0 min,  0.473 sec
     gradient                   ...        0 min,  0.243 sec
 * total energy  :  -418.1176378 Eh     change       -0.9408294E-03 Eh
   gradient norm :     0.0093137 Eh/α   predicted     0.0000000E+00 (-100.00%)
   displ. norm   :     0.1274489 α      lambda       -0.3047279E-03
   maximum displ.:     0.0440353 α      in ANC's #47, #13, #5, ...

........................................................................
.............................. CYCLE   22 ..............................
........................................................................
   1   -424.2944189 -0.424294E+03  0.131E-02    1.62       0.0  T
   2   -424.2944197 -0.737764E-06  0.749E-03    1.62       1.0  T
   3   -424.2944168  0.288872E-05  0.364E-03    1.62       1.7  T
   4   -424.2944201 -0.329703E-05  0.106E-03    1.62       5.9  T
   5   -424.2944202 -0.118636E-06  0.563E-04    1.62      11.1  T
   6   -424.2944203 -0.648331E-07  0.148E-04    1.62      42.1  T
     SCC iter.                  ...        0 min,  0.356 sec
     gradient                   ...        0 min,  0.243 sec
 * total energy  :  -418.1179007 Eh     change       -0.2629007E-03 Eh
   gradient norm :     0.0049342 Eh/α   predicted    -0.1548398E-03 ( -41.10%)
   displ. norm   :     0.4639002 α      lambda       -0.7645048E-03
   maximum displ.:     0.1662510 α      in ANC's #47, #13, #5, ...

........................................................................
.............................. CYCLE   23 ..............................
........................................................................
   1   -424.2991861 -0.424299E+03  0.421E-02    1.62       0.0  T
   2   -424.2991919 -0.580602E-05  0.237E-02    1.61       1.0  T
   3   -424.2991682  0.237107E-04  0.102E-02    1.62       1.0  T
   4   -424.2991944 -0.262138E-04  0.333E-03    1.62       1.9  T
   5   -424.2991956 -0.121125E-05  0.163E-03    1.62       3.8  T
   6   -424.2991962 -0.580774E-06  0.393E-04    1.62      15.9  T
   7   -424.2991962 -0.215659E-07  0.204E-04    1.62      30.6  T
     SCC iter.                  ...        0 min,  0.413 sec
     gradient                   ...        0 min,  0.243 sec
 * total energy  :  -418.1184712 Eh     change       -0.5705239E-03 Eh
   gradient norm :     0.0067825 Eh/α   predicted    -0.4645389E-03 ( -18.58%)
   displ. norm   :     0.5340750 α      lambda       -0.5795394E-03
   maximum displ.:     0.1975536 α      in ANC's #47, #13, #5, ...

........................................................................
.............................. CYCLE   24 ..............................
........................................................................
   1   -424.2986886 -0.424299E+03  0.452E-02    1.62       0.0  T
   2   -424.2986935 -0.490954E-05  0.249E-02    1.61       1.0  T
   3   -424.2986806  0.129005E-04  0.795E-03    1.61       1.0  T
   4   -424.2986939 -0.133132E-04  0.350E-03    1.61       1.8  T
   5   -424.2986955 -0.159685E-05  0.141E-03    1.61       4.4  T
   6   -424.2986960 -0.469771E-06  0.365E-04    1.61      17.1  T
   7   -424.2986960 -0.220243E-07  0.167E-04    1.61      37.3  T
     SCC iter.                  ...        0 min,  0.415 sec
     gradient                   ...        0 min,  0.243 sec
 * total energy  :  -418.1189712 Eh     change       -0.5000146E-03 Eh
   gradient norm :     0.0118686 Eh/α   predicted    -0.3724372E-03 ( -25.51%)
   displ. norm   :     0.7174884 α      lambda       -0.7765489E-03
   maximum displ.:     0.2691348 α      in ANC's #47, #13, #5, ...

........................................................................
.............................. CYCLE   25 ..............................
........................................................................
   1   -424.2941968 -0.424294E+03  0.597E-02    1.61       0.0  T
   2   -424.2942047 -0.787102E-05  0.327E-02    1.61       1.0  T
   3   -424.2941943  0.103764E-04  0.837E-03    1.61       1.0  T
   4   -424.2942039 -0.963421E-05  0.446E-03    1.61       1.4  T
   5   -424.2942068 -0.288905E-05  0.166E-03    1.61       3.8  T
   6   -424.2942075 -0.699128E-06  0.496E-04    1.61      12.5  T
   7   -424.2942076 -0.494947E-07  0.201E-04    1.61      30.9  T
     SCC iter.                  ...        0 min,  0.434 sec
     gradient                   ...        0 min,  0.243 sec
 * total energy  :  -418.1196682 Eh     change       -0.6970205E-03 Eh
   gradient norm :     0.0134036 Eh/α   predicted    -0.5881552E-03 ( -15.62%)
   displ. norm   :     0.7471970 α      lambda       -0.9228422E-03
   maximum displ.:     0.2739317 α      in ANC's #47, #13, #5, ...

........................................................................
.............................. CYCLE   26 ..............................
........................................................................
   1   -424.2888778 -0.424289E+03  0.629E-02    1.62       0.0  T
   2   -424.2888880 -0.101544E-04  0.343E-02    1.62       1.0  T
   3   -424.2888709  0.170330E-04  0.103E-02    1.62       1.0  T
   4   -424.2888894 -0.184579E-04  0.458E-03    1.62       1.4  T
   5   -424.2888912 -0.184426E-05  0.196E-03    1.62       3.2  T
   6   -424.2888922 -0.995333E-06  0.563E-04    1.62      11.1  T
   7   -424.2888923 -0.683798E-07  0.250E-04    1.62      24.9  T
     SCC iter.                  ...        0 min,  0.442 sec
     gradient                   ...        0 min,  0.244 sec
 * total energy  :  -418.1204738 Eh     change       -0.8055452E-03 Eh
   gradient norm :     0.0110431 Eh/α   predicted    -0.7190444E-03 ( -10.74%)
   displ. norm   :     0.6714997 α      lambda       -0.9784099E-03
   maximum displ.:     0.2205884 α      in ANC's #47, #13, #5, ...

........................................................................
.............................. CYCLE   27 ..............................
........................................................................
   1   -424.2887394 -0.424289E+03  0.599E-02    1.62       0.0  T
   2   -424.2887524 -0.130107E-04  0.325E-02    1.63       1.0  T
   3   -424.2887185  0.338453E-04  0.131E-02    1.62       1.0  T
   4   -424.2887572 -0.386617E-04  0.464E-03    1.63       1.3  T
   5   -424.2887587 -0.146869E-05  0.227E-03    1.63       2.7  T
   6   -424.2887598 -0.113066E-05  0.616E-04    1.63      10.1  T
   7   -424.2887599 -0.730333E-07  0.292E-04    1.63      21.3  T
   8   -424.2887599 -0.153444E-07  0.157E-04    1.63      39.7  T
     SCC iter.                  ...        0 min,  0.495 sec
     gradient                   ...        0 min,  0.243 sec
 * total energy  :  -418.1212632 Eh     change       -0.7894241E-03 Eh
   gradient norm :     0.0092553 Eh/α   predicted    -0.7098546E-03 ( -10.08%)
   displ. norm   :     0.7343972 α      lambda       -0.8225928E-03
   maximum displ.:     0.2343053 α      in ANC's #47, #13, #5, ...

........................................................................
.............................. CYCLE   28 ..............................
........................................................................
   1   -424.2863070 -0.424286E+03  0.631E-02    1.63       0.0  T
   2   -424.2863195 -0.125692E-04  0.338E-02    1.63       1.0  T
   3   -424.2863009  0.186377E-04  0.108E-02    1.63       1.0  T
   4   -424.2863219 -0.210409E-04  0.470E-03    1.63       1.3  T
   5   -424.2863239 -0.192644E-05  0.183E-03    1.63       3.4  T
   6   -424.2863246 -0.692038E-06  0.616E-04    1.63      10.1  T
   7   -424.2863246 -0.837759E-07  0.224E-04    1.63      27.8  T
     SCC iter.                  ...        0 min,  0.415 sec
     gradient                   ...        0 min,  0.243 sec
 * total energy  :  -418.1220018 Eh     change       -0.7385633E-03 Eh
   gradient norm :     0.0118523 Eh/α   predicted    -0.6331249E-03 ( -14.28%)
   displ. norm   :     0.7010494 α      lambda       -0.1046924E-02
   maximum displ.:     0.2271723 α      in ANC's #5, #13, #47, ...

........................................................................
.............................. CYCLE   29 ..............................
........................................................................
   1   -424.2966245 -0.424297E+03  0.638E-02    1.63       0.0  T
   2   -424.2966398 -0.152905E-04  0.339E-02    1.64       1.0  T
   3   -424.2966169  0.228670E-04  0.114E-02    1.64       1.0  T
   4   -424.2966429 -0.259975E-04  0.494E-03    1.64       1.3  T
   5   -424.2966452 -0.222508E-05  0.202E-03    1.64       3.1  T
   6   -424.2966459 -0.754720E-06  0.757E-04    1.64       8.2  T
   7   -424.2966460 -0.128026E-06  0.287E-04    1.64      21.7  T
     SCC iter.                  ...        0 min,  0.415 sec
     gradient                   ...        0 min,  0.243 sec
 * total energy  :  -418.1228082 Eh     change       -0.8064254E-03 Eh
   gradient norm :     0.0126218 Eh/α   predicted    -0.7807290E-03 (  -3.19%)
   displ. norm   :     0.8336569 α      lambda       -0.1000522E-02
   maximum displ.:     0.2616015 α      in ANC's #13, #5, #47, ...

........................................................................
.............................. CYCLE   30 ..............................
........................................................................
   1   -424.2902510 -0.424290E+03  0.712E-02    1.63       0.0  T
   2   -424.2902677 -0.166869E-04  0.379E-02    1.64       1.0  T
   3   -424.2902530  0.146963E-04  0.110E-02    1.64       1.0  T
   4   -424.2902703 -0.172912E-04  0.507E-03    1.64       1.2  T
   5   -424.2902722 -0.193564E-05  0.194E-03    1.64       3.2  T
   6   -424.2902731 -0.849301E-06  0.747E-04    1.64       8.3  T
   7   -424.2902733 -0.152919E-06  0.260E-04    1.64      23.9  T
     SCC iter.                  ...        0 min,  0.438 sec
     gradient                   ...        0 min,  0.244 sec
 * total energy  :  -418.1236908 Eh     change       -0.8826477E-03 Eh
   gradient norm :     0.0100096 Eh/α   predicted    -0.8479482E-03 (  -3.93%)
   displ. norm   :     0.7741180 α      lambda       -0.9589890E-03
   maximum displ.:     0.2519275 α      in ANC's #5, #13, #47, ...

........................................................................
.............................. CYCLE   31 ..............................
........................................................................
   1   -424.2927124 -0.424293E+03  0.658E-02    1.63       0.0  T
   2   -424.2927268 -0.143753E-04  0.350E-02    1.64       1.0  T
   3   -424.2927079  0.188789E-04  0.113E-02    1.64       1.0  T
   4   -424.2927299 -0.219888E-04  0.489E-03    1.64       1.3  T
   5   -424.2927312 -0.126808E-05  0.225E-03    1.64       2.8  T
   6   -424.2927325 -0.135977E-05  0.622E-04    1.64      10.0  T
   7   -424.2927326 -0.871390E-07  0.261E-04    1.64      23.8  T
   8   -424.2927326 -0.368135E-08  0.157E-04    1.64      39.6  T
     SCC iter.                  ...        0 min,  0.501 sec
     gradient                   ...        0 min,  0.243 sec
 * total energy  :  -418.1245205 Eh     change       -0.8296296E-03 Eh
   gradient norm :     0.0079432 Eh/α   predicted    -0.7668376E-03 (  -7.57%)
   displ. norm   :     0.8173568 α      lambda       -0.8783314E-03
   maximum displ.:     0.2724504 α      in ANC's #5, #13, #12, ...

........................................................................
.............................. CYCLE   32 ..............................
........................................................................
   1   -424.2937833 -0.424294E+03  0.682E-02    1.63       0.0  T
   2   -424.2937988 -0.154210E-04  0.361E-02    1.64       1.0  T
   3   -424.2937829  0.159111E-04  0.108E-02    1.64       1.0  T
   4   -424.2938019 -0.190429E-04  0.485E-03    1.64       1.3  T
   5   -424.2938036 -0.167547E-05  0.181E-03    1.64       3.4  T
   6   -424.2938043 -0.697136E-06  0.686E-04    1.64       9.1  T
   7   -424.2938044 -0.119021E-06  0.242E-04    1.64      25.7  T
     SCC iter.                  ...        0 min,  0.428 sec
     gradient                   ...        0 min,  0.243 sec
 * total energy  :  -418.1253236 Eh     change       -0.8031263E-03 Eh
   gradient norm :     0.0085138 Eh/α   predicted    -0.7325620E-03 (  -8.79%)
   displ. norm   :     0.7826258 α      lambda       -0.9471425E-03
   maximum displ.:     0.2763387 α      in ANC's #5, #13, #12, ...

........................................................................
.............................. CYCLE   33 ..............................
........................................................................
   1   -424.3063687 -0.424306E+03  0.634E-02    1.63       0.0  T
   2   -424.3063826 -0.138568E-04  0.337E-02    1.64       1.0  T
   3   -424.3063656  0.170054E-04  0.102E-02    1.64       1.0  T
   4   -424.3063856 -0.200477E-04  0.453E-03    1.65       1.4  T
   5   -424.3063871 -0.151353E-05  0.186E-03    1.65       3.3  T
   6   -424.3063880 -0.818254E-06  0.673E-04    1.65       9.3  T
   7   -424.3063881 -0.114616E-06  0.267E-04    1.65      23.3  T
     SCC iter.                  ...        0 min,  0.427 sec
     gradient                   ...        0 min,  0.243 sec
 * total energy  :  -418.1260883 Eh     change       -0.7646893E-03 Eh
   gradient norm :     0.0090505 Eh/α   predicted    -0.7636432E-03 (  -0.14%)
   displ. norm   :     0.8928712 α      lambda       -0.9308271E-03
   maximum displ.:     0.3006345 α      in ANC's #5, #13, #12, ...

........................................................................
.............................. CYCLE   34 ..............................
........................................................................
   1   -424.2953869 -0.424295E+03  0.735E-02    1.64       0.0  T
   2   -424.2954070 -0.200986E-04  0.391E-02    1.65       1.0  T
   3   -424.2953784  0.285959E-04  0.132E-02    1.65       1.0  T
   4   -424.2954115 -0.331312E-04  0.544E-03    1.65       1.1  T
   5   -424.2954136 -0.209162E-05  0.247E-03    1.65       2.5  T
   6   -424.2954150 -0.135681E-05  0.856E-04    1.65       7.3  T
   7   -424.2954151 -0.188175E-06  0.298E-04    1.65      20.9  T
   8   -424.2954152 -0.974285E-08  0.179E-04    1.65      34.8  T
     SCC iter.                  ...        0 min,  0.483 sec
     gradient                   ...        0 min,  0.244 sec
 * total energy  :  -418.1268717 Eh     change       -0.7834570E-03 Eh
   gradient norm :     0.0076476 Eh/α   predicted    -0.8364533E-03 (   6.76%)
   displ. norm   :     0.7900950 α      lambda       -0.7549570E-03
   maximum displ.:     0.2875611 α      in ANC's #5, #13, #12, ...

........................................................................
.............................. CYCLE   35 ..............................
........................................................................
   1   -424.2945462 -0.424295E+03  0.607E-02    1.65       0.0  T
   2   -424.2945589 -0.126605E-04  0.323E-02    1.66       1.0  T
   3   -424.2945363  0.225853E-04  0.108E-02    1.66       1.0  T
   4   -424.2945614 -0.250919E-04  0.465E-03    1.66       1.3  T
   5   -424.2945634 -0.199805E-05  0.209E-03    1.66       3.0  T
   6   -424.2945644 -0.979286E-06  0.712E-04    1.66       8.7  T
   7   -424.2945645 -0.130320E-06  0.257E-04    1.66      24.2  T
     SCC iter.                  ...        0 min,  0.424 sec
     gradient                   ...        0 min,  0.244 sec
 * total energy  :  -418.1275539 Eh     change       -0.6821751E-03 Eh
   gradient norm :     0.0075697 Eh/α   predicted    -0.6131215E-03 ( -10.12%)
   displ. norm   :     0.7608135 α      lambda       -0.8201086E-03
   maximum displ.:     0.2927243 α      in ANC's #5, #13, #12, ...

........................................................................
.............................. CYCLE   36 ..............................
........................................................................
   1   -424.3008843 -0.424301E+03  0.554E-02    1.66       0.0  T
   2   -424.3008946 -0.102810E-04  0.298E-02    1.66       1.0  T
   3   -424.3008700  0.245892E-04  0.104E-02    1.66       1.0  T
   4   -424.3008970 -0.269878E-04  0.437E-03    1.67       1.4  T
   5   -424.3008990 -0.200696E-05  0.197E-03    1.67       3.2  T
   6   -424.3008998 -0.820551E-06  0.655E-04    1.66       9.5  T
   7   -424.3008999 -0.989838E-07  0.270E-04    1.67      23.0  T
     SCC iter.                  ...        0 min,  0.420 sec
     gradient                   ...        0 min,  0.244 sec
 * total energy  :  -418.1282492 Eh     change       -0.6952820E-03 Eh
   gradient norm :     0.0064469 Eh/α   predicted    -0.6474092E-03 (  -6.89%)
   displ. norm   :     0.8582845 α      lambda       -0.7249093E-03
   maximum displ.:     0.3300054 α      in ANC's #5, #13, #12, ...

........................................................................
.............................. CYCLE   37 ..............................
........................................................................
   1   -424.2998343 -0.424300E+03  0.630E-02    1.66       0.0  T
   2   -424.2998480 -0.136943E-04  0.334E-02    1.67       1.0  T
   3   -424.2998291  0.188980E-04  0.104E-02    1.66       1.0  T
   4   -424.2998500 -0.209530E-04  0.479E-03    1.67       1.3  T
   5   -424.2998524 -0.235991E-05  0.200E-03    1.67       3.1  T
   6   -424.2998532 -0.808538E-06  0.766E-04    1.67       8.1  T
   7   -424.2998534 -0.153032E-06  0.265E-04    1.67      23.5  T
     SCC iter.                  ...        0 min,  0.420 sec
     gradient                   ...        0 min,  0.244 sec
 * total energy  :  -418.1288976 Eh     change       -0.6483873E-03 Eh
   gradient norm :     0.0051264 Eh/α   predicted    -0.6294602E-03 (  -2.92%)
   displ. norm   :     0.8227132 α      lambda       -0.6661590E-03
   maximum displ.:     0.3318577 α      in ANC's #5, #13, #12, ...

........................................................................
.............................. CYCLE   38 ..............................
........................................................................
   1   -424.3014131 -0.424301E+03  0.589E-02    1.66       0.0  T
   2   -424.3014249 -0.118172E-04  0.312E-02    1.67       1.0  T
   3   -424.3014075  0.174405E-04  0.959E-03    1.67       1.0  T
   4   -424.3014266 -0.190841E-04  0.458E-03    1.67       1.4  T
   5   -424.3014290 -0.243517E-05  0.182E-03    1.67       3.4  T
   6   -424.3014296 -0.625901E-06  0.675E-04    1.67       9.2  T
   7   -424.3014297 -0.110938E-06  0.254E-04    1.67      24.5  T
     SCC iter.                  ...        0 min,  0.419 sec
     gradient                   ...        0 min,  0.244 sec
 * total energy  :  -418.1294694 Eh     change       -0.5718025E-03 Eh
   gradient norm :     0.0043200 Eh/α   predicted    -0.5585282E-03 (  -2.32%)
   displ. norm   :     0.7861325 α      lambda       -0.5902442E-03
   maximum displ.:     0.3363440 α      in ANC's #5, #13, #12, ...

........................................................................
.............................. CYCLE   39 ..............................
........................................................................
   1   -424.3084936 -0.424308E+03  0.536E-02    1.66       0.0  T
   2   -424.3085039 -0.103266E-04  0.285E-02    1.67       1.0  T
   3   -424.3084867  0.172330E-04  0.915E-03    1.67       1.0  T
   4   -424.3085056 -0.189091E-04  0.427E-03    1.67       1.5  T
   5   -424.3085076 -0.202947E-05  0.183E-03    1.67       3.4  T
   6   -424.3085083 -0.631489E-06  0.691E-04    1.67       9.0  T
   7   -424.3085084 -0.116628E-06  0.264E-04    1.67      23.6  T
     SCC iter.                  ...        0 min,  0.420 sec
     gradient                   ...        0 min,  0.244 sec
 * total energy  :  -418.1298913 Eh     change       -0.4219316E-03 Eh
   gradient norm :     0.0069395 Eh/α   predicted    -0.4775147E-03 (  13.17%)
   displ. norm   :     0.7791942 α      lambda       -0.5538887E-03
   maximum displ.:     0.3133651 α      in ANC's #5, #13, #12, ...

........................................................................
.............................. CYCLE   40 ..............................
........................................................................
   1   -424.2974186 -0.424297E+03  0.595E-02    1.66       0.0  T
   2   -424.2974332 -0.145778E-04  0.311E-02    1.67       1.0  T
   3   -424.2974180  0.152280E-04  0.106E-02    1.67       1.0  T
   4   -424.2974371 -0.191049E-04  0.431E-03    1.67       1.4  T
   5   -424.2974379 -0.814584E-06  0.192E-03    1.67       3.2  T
   6   -424.2974387 -0.836260E-06  0.678E-04    1.67       9.2  T
   7   -424.2974389 -0.111600E-06  0.259E-04    1.67      24.1  T
     SCC iter.                  ...        0 min,  0.414 sec
     gradient                   ...        0 min,  0.244 sec
 * total energy  :  -418.1302401 Eh     change       -0.3488100E-03 Eh
   gradient norm :     0.0068822 Eh/α   predicted    -0.4450905E-03 (  27.60%)
   displ. norm   :     0.5278285 α      lambda       -0.4031819E-03
   maximum displ.:     0.2468386 α      in ANC's #5, #13, #12, ...

........................................................................
.............................. CYCLE   41 ..............................
........................................................................
   1   -424.3022031 -0.424302E+03  0.376E-02    1.67       0.0  T
   2   -424.3022141 -0.110284E-04  0.200E-02    1.67       1.0  T
   3   -424.3022040  0.101109E-04  0.785E-03    1.67       1.0  T
   4   -424.3022173 -0.133132E-04  0.312E-03    1.67       2.0  T
   5   -424.3022178 -0.546369E-06  0.167E-03    1.67       3.7  T
   6   -424.3022184 -0.595911E-06  0.483E-04    1.67      12.9  T
   7   -424.3022185 -0.445771E-07  0.210E-04    1.67      29.6  T
     SCC iter.                  ...        0 min,  0.414 sec
     gradient                   ...        0 min,  0.244 sec
 * total energy  :  -418.1304751 Eh     change       -0.2349627E-03 Eh
   gradient norm :     0.0077341 Eh/α   predicted    -0.2577562E-03 (   9.70%)
   displ. norm   :     0.5098453 α      lambda       -0.3733965E-03
   maximum displ.:     0.2428392 α      in ANC's #5, #13, #12, ...

........................................................................
.............................. CYCLE   42 ..............................
........................................................................
   1   -424.3073906 -0.424307E+03  0.340E-02    1.67       0.0  T
   2   -424.3073951 -0.445867E-05  0.174E-02    1.67       1.0  T
   3   -424.3073921  0.293666E-05  0.504E-03    1.67       1.2  T
   4   -424.3073959 -0.375771E-05  0.249E-03    1.67       2.5  T
   5   -424.3073962 -0.334969E-06  0.105E-03    1.67       5.9  T
   6   -424.3073965 -0.269124E-06  0.395E-04    1.67      15.8  T
   7   -424.3073965 -0.359620E-07  0.155E-04    1.67      40.1  T
     SCC iter.                  ...        0 min,  0.415 sec
     gradient                   ...        0 min,  0.244 sec
 * total energy  :  -418.1307308 Eh     change       -0.2557171E-03 Eh
   gradient norm :     0.0064519 Eh/α   predicted    -0.2352326E-03 (  -8.01%)
   displ. norm   :     0.5524141 α      lambda       -0.3309337E-03
   maximum displ.:     0.2670904 α      in ANC's #5, #13, #12, ...
 * RMSD in coord.:     0.8979159 α      energy gain  -0.1403387E-01 Eh

generating ANC from model Hessian ...
Using Lindh-Hessian (1995)
 Shifting diagonal of input Hessian by   1.000800593224655E-002
 Lowest  eigenvalues of input Hessian
    0.010000    0.010005    0.000000    0.000000    0.000000    0.000000
    0.000000    0.000000    0.010020    0.010034    0.010044    0.010055
    0.010063    0.010070    0.010078    0.010101    0.010116    0.010125
 Highest eigenvalues
    2.098022    2.108083    2.111441    2.113587    2.115774    2.120313
 

........................................................................
.............................. CYCLE   43 ..............................
........................................................................
   1   -424.3077488 -0.424308E+03  0.371E-02    1.67       0.0  T
   2   -424.3077544 -0.561598E-05  0.190E-02    1.67       1.0  T
   3   -424.3077499  0.442649E-05  0.601E-03    1.67       1.0  T
   4   -424.3077558 -0.583715E-05  0.266E-03    1.67       2.3  T
   5   -424.3077559 -0.160166E-06  0.125E-03    1.67       5.0  T
   6   -424.3077564 -0.413616E-06  0.416E-04    1.67      15.0  T
   7   -424.3077564 -0.429009E-07  0.158E-04    1.67      39.4  T
     SCC iter.                  ...        0 min,  0.417 sec
     gradient                   ...        0 min,  0.244 sec
 * total energy  :  -418.1309743 Eh     change       -0.2434665E-03 Eh
   gradient norm :     0.0055137 Eh/α   predicted     0.0000000E+00 (-100.00%)
   displ. norm   :     0.1024320 α      lambda       -0.1870848E-03
   maximum displ.:     0.0460791 α      in ANC's #64, #5, #11, ...

........................................................................
.............................. CYCLE   44 ..............................
........................................................................
   1   -424.3061337 -0.424306E+03  0.123E-02    1.67       0.0  T
   2   -424.3061342 -0.533279E-06  0.681E-03    1.67       1.0  T
   3   -424.3061339  0.304037E-06  0.172E-03    1.67       3.6  T
   4   -424.3061343 -0.398879E-06  0.797E-04    1.67       7.8  T
   5   -424.3061343 -0.406595E-07  0.343E-04    1.67      18.1  T
     SCC iter.                  ...        0 min,  0.298 sec
     gradient                   ...        0 min,  0.244 sec
 * total energy  :  -418.1311299 Eh     change       -0.1556293E-03 Eh
   gradient norm :     0.0024314 Eh/α   predicted    -0.9456295E-04 ( -39.24%)
   displ. norm   :     0.3294067 α      lambda       -0.3878665E-03
   maximum displ.:     0.1453056 α      in ANC's #64, #5, #11, ...

........................................................................
.............................. CYCLE   45 ..............................
........................................................................
   1   -424.3031490 -0.424303E+03  0.358E-02    1.67       0.0  T
   2   -424.3031523 -0.329603E-05  0.194E-02    1.67       1.0  T
   3   -424.3031507  0.160275E-05  0.436E-03    1.67       1.4  T
   4   -424.3031528 -0.204216E-05  0.229E-03    1.67       2.7  T
   5   -424.3031532 -0.439893E-06  0.790E-04    1.67       7.9  T
   6   -424.3031534 -0.142732E-06  0.324E-04    1.67      19.2  T
     SCC iter.                  ...        0 min,  0.364 sec
     gradient                   ...        0 min,  0.244 sec
 * total energy  :  -418.1314042 Eh     change       -0.2742990E-03 Eh
   gradient norm :     0.0047107 Eh/α   predicted    -0.2149913E-03 ( -21.62%)
   displ. norm   :     0.3422792 α      lambda       -0.2493890E-03
   maximum displ.:     0.1413998 α      in ANC's #64, #5, #11, ...

........................................................................
.............................. CYCLE   46 ..............................
........................................................................
   1   -424.3021097 -0.424302E+03  0.348E-02    1.67       0.0  T
   2   -424.3021123 -0.261792E-05  0.188E-02    1.68       1.0  T
   3   -424.3021107  0.157644E-05  0.404E-03    1.68       1.5  T
   4   -424.3021121 -0.135161E-05  0.244E-03    1.68       2.6  T
   5   -424.3021130 -0.888218E-06  0.854E-04    1.68       7.3  T
   6   -424.3021132 -0.189688E-06  0.278E-04    1.68      22.4  T
     SCC iter.                  ...        0 min,  0.361 sec
     gradient                   ...        0 min,  0.244 sec
 * total energy  :  -418.1316050 Eh     change       -0.2008036E-03 Eh
   gradient norm :     0.0065430 Eh/α   predicted    -0.1393032E-03 ( -30.63%)
   displ. norm   :     0.4727619 α      lambda       -0.3238573E-03
   maximum displ.:     0.1765954 α      in ANC's #64, #5, #11, ...

........................................................................
.............................. CYCLE   47 ..............................
........................................................................
   1   -424.3026037 -0.424303E+03  0.456E-02    1.68       0.0  T
   2   -424.3026081 -0.440625E-05  0.243E-02    1.68       1.0  T
   3   -424.3026055  0.265694E-05  0.528E-03    1.68       1.2  T
   4   -424.3026074 -0.195036E-05  0.327E-03    1.68       1.9  T
   5   -424.3026093 -0.187019E-05  0.101E-03    1.68       6.2  T
   6   -424.3026095 -0.237580E-06  0.323E-04    1.68      19.3  T
   7   -424.3026095 -0.211310E-07  0.154E-04    1.68      40.3  T
     SCC iter.                  ...        0 min,  0.418 sec
     gradient                   ...        0 min,  0.244 sec
 * total energy  :  -418.1318707 Eh     change       -0.2657137E-03 Eh
   gradient norm :     0.0058469 Eh/α   predicted    -0.1981211E-03 ( -25.44%)
   displ. norm   :     0.5354611 α      lambda       -0.3475642E-03
   maximum displ.:     0.1900465 α      in ANC's #5, #11, #64, ...

........................................................................
.............................. CYCLE   48 ..............................
........................................................................
   1   -424.3047647 -0.424305E+03  0.484E-02    1.68       0.0  T
   2   -424.3047701 -0.539201E-05  0.255E-02    1.68       1.0  T
   3   -424.3047664  0.369905E-05  0.598E-03    1.68       1.0  T
   4   -424.3047695 -0.314000E-05  0.355E-03    1.69       1.8  T
   5   -424.3047715 -0.197900E-05  0.112E-03    1.68       5.5  T
   6   -424.3047718 -0.303686E-06  0.336E-04    1.68      18.5  T
   7   -424.3047718 -0.208890E-07  0.154E-04    1.68      40.3  T
     SCC iter.                  ...        0 min,  0.422 sec
     gradient                   ...        0 min,  0.244 sec
 * total energy  :  -418.1321540 Eh     change       -0.2832988E-03 Eh
   gradient norm :     0.0035010 Eh/α   predicted    -0.2236096E-03 ( -21.07%)
   displ. norm   :     0.5641010 α      lambda       -0.3123290E-03
   maximum displ.:     0.2118047 α      in ANC's #11, #5, #64, ...

........................................................................
.............................. CYCLE   49 ..............................
........................................................................
   1   -424.3068797 -0.424307E+03  0.480E-02    1.69       0.0  T
   2   -424.3068855 -0.581203E-05  0.249E-02    1.69       1.0  T
   3   -424.3068818  0.375391E-05  0.608E-03    1.69       1.0  T
   4   -424.3068851 -0.328891E-05  0.360E-03    1.69       1.7  T
   5   -424.3068870 -0.195114E-05  0.114E-03    1.69       5.4  T
   6   -424.3068874 -0.330775E-06  0.331E-04    1.69      18.8  T
   7   -424.3068874 -0.200506E-07  0.149E-04    1.69      41.7  T
     SCC iter.                  ...        0 min,  0.421 sec
     gradient                   ...        0 min,  0.244 sec
 * total energy  :  -418.1324146 Eh     change       -0.2605382E-03 Eh
   gradient norm :     0.0032841 Eh/α   predicted    -0.2058656E-03 ( -20.98%)
   displ. norm   :     0.5985606 α      lambda       -0.3027612E-03
   maximum displ.:     0.2355562 α      in ANC's #11, #5, #6, ...

........................................................................
.............................. CYCLE   50 ..............................
........................................................................
   1   -424.3080973 -0.424308E+03  0.489E-02    1.69       0.0  T
   2   -424.3081040 -0.664814E-05  0.249E-02    1.69       1.0  T
   3   -424.3081000  0.394889E-05  0.624E-03    1.69       1.0  T
   4   -424.3081036 -0.357423E-05  0.373E-03    1.69       1.7  T
   5   -424.3081057 -0.207503E-05  0.115E-03    1.69       5.4  T
   6   -424.3081060 -0.324056E-06  0.345E-04    1.69      18.0  T
   7   -424.3081060 -0.235092E-07  0.140E-04    1.69      44.3  T
     SCC iter.                  ...        0 min,  0.422 sec
     gradient                   ...        0 min,  0.244 sec
 * total energy  :  -418.1326795 Eh     change       -0.2649335E-03 Eh
   gradient norm :     0.0045898 Eh/α   predicted    -0.2056588E-03 ( -22.37%)
   displ. norm   :     0.6406821 α      lambda       -0.3455768E-03
   maximum displ.:     0.2627152 α      in ANC's #11, #5, #6, ...

........................................................................
.............................. CYCLE   51 ..............................
........................................................................
   1   -424.3091671 -0.424309E+03  0.507E-02    1.69       0.0  T
   2   -424.3091752 -0.819205E-05  0.252E-02    1.69       1.0  T
   3   -424.3091706  0.461052E-05  0.656E-03    1.69       1.0  T
   4   -424.3091753 -0.469156E-05  0.386E-03    1.69       1.6  T
   5   -424.3091773 -0.201139E-05  0.123E-03    1.69       5.1  T
   6   -424.3091777 -0.344410E-06  0.398E-04    1.69      15.6  T
   7   -424.3091777 -0.350127E-07  0.135E-04    1.69      46.0  T
     SCC iter.                  ...        0 min,  0.426 sec
     gradient                   ...        0 min,  0.244 sec
 * total energy  :  -418.1329914 Eh     change       -0.3119034E-03 Eh
   gradient norm :     0.0056544 Eh/α   predicted    -0.2437147E-03 ( -21.86%)
   displ. norm   :     0.6985320 α      lambda       -0.4266679E-03
   maximum displ.:     0.2947611 α      in ANC's #11, #5, #6, ...

........................................................................
.............................. CYCLE   52 ..............................
........................................................................
   1   -424.3095413 -0.424310E+03  0.549E-02    1.69       0.0  T
   2   -424.3095522 -0.109617E-04  0.269E-02    1.70       1.0  T
   3   -424.3095462  0.600838E-05  0.718E-03    1.69       1.0  T
   4   -424.3095529 -0.671753E-05  0.410E-03    1.70       1.5  T
   5   -424.3095550 -0.207962E-05  0.141E-03    1.70       4.4  T
   6   -424.3095554 -0.394519E-06  0.495E-04    1.70      12.6  T
   7   -424.3095555 -0.582834E-07  0.146E-04    1.70      42.6  T
     SCC iter.                  ...        0 min,  0.427 sec
     gradient                   ...        0 min,  0.244 sec
 * total energy  :  -418.1333849 Eh     change       -0.3935040E-03 Eh
   gradient norm :     0.0059887 Eh/α   predicted    -0.3174359E-03 ( -19.33%)
   displ. norm   :     0.7503129 α      lambda       -0.5360675E-03
   maximum displ.:     0.3208643 α      in ANC's #11, #5, #6, ...

........................................................................
.............................. CYCLE   53 ..............................
........................................................................
   1   -424.3092168 -0.424309E+03  0.604E-02    1.69       0.0  T
   2   -424.3092314 -0.145788E-04  0.294E-02    1.70       1.0  T
   3   -424.3092230  0.843337E-05  0.809E-03    1.69       1.0  T
   4   -424.3092327 -0.974523E-05  0.448E-03    1.70       1.4  T
   5   -424.3092351 -0.238098E-05  0.168E-03    1.70       3.7  T
   6   -424.3092356 -0.496672E-06  0.615E-04    1.70      10.1  T
   7   -424.3092357 -0.928168E-07  0.179E-04    1.70      34.8  T
     SCC iter.                  ...        0 min,  0.423 sec
     gradient                   ...        0 min,  0.244 sec
 * total energy  :  -418.1338786 Eh     change       -0.4937336E-03 Eh
   gradient norm :     0.0055837 Eh/α   predicted    -0.4189330E-03 ( -15.15%)
   displ. norm   :     0.7813415 α      lambda       -0.6166880E-03
   maximum displ.:     0.3338361 α      in ANC's #11, #5, #6, ...

........................................................................
.............................. CYCLE   54 ..............................
........................................................................
   1   -424.3073024 -0.424307E+03  0.658E-02    1.69       0.0  T
   2   -424.3073203 -0.178934E-04  0.322E-02    1.70       1.0  T
   3   -424.3073088  0.115388E-04  0.908E-03    1.70       1.0  T
   4   -424.3073218 -0.130449E-04  0.495E-03    1.70       1.3  T
   5   -424.3073248 -0.298121E-05  0.195E-03    1.70       3.2  T
   6   -424.3073254 -0.665275E-06  0.727E-04    1.70       8.6  T
   7   -424.3073256 -0.137118E-06  0.221E-04    1.70      28.2  T
     SCC iter.                  ...        0 min,  0.423 sec
     gradient                   ...        0 min,  0.245 sec
 * total energy  :  -418.1344347 Eh     change       -0.5560646E-03 Eh
   gradient norm :     0.0054597 Eh/α   predicted    -0.4965875E-03 ( -10.70%)
   displ. norm   :     0.7822339 α      lambda       -0.6200465E-03
   maximum displ.:     0.3350896 α      in ANC's #11, #5, #6, ...

........................................................................
.............................. CYCLE   55 ..............................
........................................................................
   1   -424.3051762 -0.424305E+03  0.681E-02    1.69       0.0  T
   2   -424.3051950 -0.187771E-04  0.334E-02    1.70       1.0  T
   3   -424.3051821  0.128076E-04  0.946E-03    1.70       1.0  T
   4   -424.3051966 -0.144434E-04  0.511E-03    1.70       1.2  T
   5   -424.3051997 -0.311693E-05  0.202E-03    1.70       3.1  T
   6   -424.3052005 -0.757121E-06  0.752E-04    1.70       8.3  T
   7   -424.3052006 -0.150445E-06  0.230E-04    1.70      27.0  T
     SCC iter.                  ...        0 min,  0.425 sec
     gradient                   ...        0 min,  0.244 sec
 * total energy  :  -418.1349835 Eh     change       -0.5488305E-03 Eh
   gradient norm :     0.0065643 Eh/α   predicted    -0.4997309E-03 (  -8.95%)
   displ. norm   :     0.7594111 α      lambda       -0.6076639E-03
   maximum displ.:     0.3320505 α      in ANC's #11, #5, #6, ...

........................................................................
.............................. CYCLE   56 ..............................
........................................................................
   1   -424.3041155 -0.424304E+03  0.669E-02    1.70       0.0  T
   2   -424.3041331 -0.176308E-04  0.326E-02    1.71       1.0  T
   3   -424.3041218  0.113403E-04  0.910E-03    1.71       1.0  T
   4   -424.3041350 -0.132422E-04  0.487E-03    1.71       1.3  T
   5   -424.3041376 -0.256785E-05  0.193E-03    1.71       3.2  T
   6   -424.3041384 -0.754754E-06  0.708E-04    1.71       8.8  T
   7   -424.3041385 -0.138599E-06  0.220E-04    1.71      28.3  T
     SCC iter.                  ...        0 min,  0.423 sec
     gradient                   ...        0 min,  0.244 sec
 * total energy  :  -418.1355231 Eh     change       -0.5396017E-03 Eh
   gradient norm :     0.0071642 Eh/α   predicted    -0.4790601E-03 ( -11.22%)
   displ. norm   :     0.7434037 α      lambda       -0.6413299E-03
   maximum displ.:     0.3313646 α      in ANC's #11, #5, #6, ...

........................................................................
.............................. CYCLE   57 ..............................
........................................................................
   1   -424.3069101 -0.424307E+03  0.656E-02    1.70       0.0  T
   2   -424.3069266 -0.165101E-04  0.317E-02    1.71       1.0  T
   3   -424.3069174  0.916641E-05  0.866E-03    1.71       1.0  T
   4   -424.3069288 -0.114389E-04  0.460E-03    1.71       1.4  T
   5   -424.3069307 -0.191091E-05  0.180E-03    1.71       3.5  T
   6   -424.3069315 -0.705536E-06  0.653E-04    1.71       9.5  T
   7   -424.3069316 -0.117742E-06  0.217E-04    1.71      28.6  T
     SCC iter.                  ...        0 min,  0.421 sec
     gradient                   ...        0 min,  0.244 sec
 * total energy  :  -418.1360836 Eh     change       -0.5604983E-03 Eh
   gradient norm :     0.0061341 Eh/α   predicted    -0.4978821E-03 ( -11.17%)
   displ. norm   :     0.8323368 α      lambda       -0.6345542E-03
   maximum displ.:     0.3743042 α      in ANC's #11, #5, #6, ...

........................................................................
.............................. CYCLE   58 ..............................
........................................................................
   1   -424.3041203 -0.424304E+03  0.707E-02    1.71       0.0  T
   2   -424.3041396 -0.192534E-04  0.336E-02    1.72       1.0  T
   3   -424.3041323  0.723157E-05  0.870E-03    1.72       1.0  T
   4   -424.3041423 -0.998318E-05  0.474E-03    1.72       1.3  T
   5   -424.3041442 -0.191314E-05  0.171E-03    1.72       3.6  T
   6   -424.3041448 -0.599989E-06  0.661E-04    1.72       9.4  T
   7   -424.3041449 -0.118493E-06  0.209E-04    1.72      29.8  T
     SCC iter.                  ...        0 min,  0.423 sec
     gradient                   ...        0 min,  0.244 sec
 * total energy  :  -418.1366295 Eh     change       -0.5459035E-03 Eh
   gradient norm :     0.0075709 Eh/α   predicted    -0.5370839E-03 (  -1.62%)
   displ. norm   :     0.6989173 α      lambda       -0.8520710E-03
   maximum displ.:     0.3007317 α      in ANC's #11, #5, #6, ...

........................................................................
.............................. CYCLE   59 ..............................
........................................................................
   1   -424.3284279 -0.424328E+03  0.637E-02    1.71       0.0  T
   2   -424.3284448 -0.169677E-04  0.329E-02    1.72       1.0  T
   3   -424.3284346  0.102393E-04  0.954E-03    1.72       1.0  T
   4   -424.3284479 -0.132471E-04  0.474E-03    1.72       1.3  T
   5   -424.3284494 -0.155444E-05  0.191E-03    1.72       3.3  T
   6   -424.3284501 -0.674217E-06  0.689E-04    1.72       9.0  T
   7   -424.3284502 -0.102407E-06  0.297E-04    1.72      21.0  T
     SCC iter.                  ...        0 min,  0.419 sec
     gradient                   ...        0 min,  0.244 sec
 * total energy  :  -418.1368000 Eh     change       -0.1704405E-03 Eh
   gradient norm :     0.0141455 Eh/α   predicted    -0.6341536E-03 ( 272.07%)
   displ. norm   :     0.5703537 α      lambda       -0.9079959E-03
   maximum displ.:     0.2464229 α      in ANC's #11, #5, #6, ...

........................................................................
.............................. CYCLE   60 ..............................
........................................................................
   1   -424.3114608 -0.424311E+03  0.512E-02    1.72       0.0  T
   2   -424.3114717 -0.108260E-04  0.251E-02    1.73       1.0  T
   3   -424.3114683  0.338781E-05  0.641E-03    1.72       1.0  T
   4   -424.3114722 -0.389677E-05  0.379E-03    1.73       1.6  T
   5   -424.3114739 -0.173047E-05  0.144E-03    1.73       4.3  T
[...]

           -------------------------------------------------
          |                Geometry Summary                 |
           -------------------------------------------------

      molecular mass/u    :     2309.2397385
   center of mass at/Å    :        0.6734940      -0.4704185       0.2014832
  moments of inertia/u·Å² :        0.6079388E+05   0.8759428E+05   0.1199320E+06
rotational constants/cm⁻¹ :        0.2772916E-03   0.1924513E-03   0.1405599E-03

 * 238 selected distances

     #   Z          #   Z                                           value/Å
     1   6 C        2   6 C                                       1.3480431
     2   6 C        3   6 C                                       1.4288421
     3   6 C        4   6 C                                       1.4038077
     5   6 C        6   6 C                                       1.3952310
     6   6 C        7   6 C                                       1.3763669
     7   6 C        8   6 C                                       1.3968212
    10   6 C       11   6 C                                       1.5141692
     8   6 C       12   6 C                                       1.3924309
     5   6 C       14   6 C                                       1.3904100
    12   6 C       14   6 C                                       1.3828552
     4   6 C       15   6 C                                       1.3868739
    15   6 C       16   6 C                                       1.4163457
    16   6 C       17   6 C                                       1.4020159
    18   6 C       19   6 C                                       1.3932543
    19   6 C       20   6 C                                       1.3777169
    20   6 C       21   6 C                                       1.3933137
    23   6 C       24   6 C                                       1.5158364
    21   6 C       25   6 C                                       1.3916963
    18   6 C       26   6 C                                       1.3907919
    25   6 C       26   6 C                                       1.3806752
     3   6 C       28   6 C                                       1.4148119
    17   6 C       28   6 C                                       1.3859982
     1   6 C       29  16 S                                       1.7304585
    28   6 C       29  16 S                                       1.7461944
    16   6 C       30   6 C                                       1.4189655
    30   6 C       31   6 C                                       1.3612728
    15   6 C       32  16 S                                       1.7443030
    31   6 C       32  16 S                                       1.7529850
    31   6 C       33   6 C                                       1.4325020
    33   6 C       34   6 C                                       1.3605664
    34   6 C       35   6 C                                       1.4205359
    35   6 C       36   6 C                                       1.4092845
    37   6 C       38   6 C                                       1.3910163
    38   6 C       39   6 C                                       1.3797123
    39   6 C       40   6 C                                       1.3899447
    42   6 C       43   6 C                                       1.5166400
    40   6 C       44   6 C                                       1.3978656
    37   6 C       46   6 C                                       1.3970945
    44   6 C       46   6 C                                       1.3766860
    36   6 C       47   6 C                                       1.3905304
    47   6 C       48   6 C                                       1.4127583
    48   6 C       49   6 C                                       1.4070577
    50   6 C       51   6 C                                       1.3988733
    51   6 C       52   6 C                                       1.3764840
    52   6 C       53   6 C                                       1.3948868
    55   6 C       56   6 C                                       1.5154115
    53   6 C       57   6 C                                       1.3894921
    50   6 C       58   6 C                                       1.3905035
    57   6 C       58   6 C                                       1.3795871
    35   6 C       60   6 C                                       1.4192769
    49   6 C       60   6 C                                       1.3913929
    33   6 C       61  16 S                                       1.7449329
    60   6 C       61  16 S                                       1.7445406
    48   6 C       62   6 C                                       1.4219578
    62   6 C       63   6 C                                       1.3565194
    47   6 C       64  16 S                                       1.7465780
    63   6 C       64  16 S                                       1.7512651
    65   6 C       66   6 C                                       1.4106343
    67   6 C       68   6 C                                       1.5313146
    66   6 C       69   6 C                                       1.3961014
    70   6 C       71   6 C                                       1.5318417
    69   6 C       72   6 C                                       1.3959724
    73   6 C       74   6 C                                       1.5305608
    72   6 C       75   6 C                                       1.3789152
    65   6 C       76   6 C                                       1.4048055
    75   6 C       76   6 C                                       1.4021857
    77   6 C       78   6 C                                       1.4170303
    79   6 C       80   6 C                                       1.5335338
    78   6 C       81   6 C                                       1.3962073
    82   6 C       83   6 C                                       1.5314251
    81   6 C       84   6 C                                       1.3992285
    85   6 C       86   6 C                                       1.5307459
    84   6 C       87   6 C                                       1.3828814
    77   6 C       88   6 C                                       1.4117897
    87   6 C       88   6 C                                       1.3922133
    89   6 C       90   6 C                                       1.3586427
    90   6 C       91   6 C                                       1.4174032
    91   6 C       92   6 C                                       1.4019189
    93   6 C       94   6 C                                       1.3917527
    94   6 C       95   6 C                                       1.3816987
    95   6 C       96   6 C                                       1.3902214
    98   6 C       99   6 C                                       1.5169772
    96   6 C      100   6 C                                       1.3962553
    93   6 C      102   6 C                                       1.3928634
   100   6 C      102   6 C                                       1.3759040
    92   6 C      103   6 C                                       1.3835041
   103   6 C      104   6 C                                       1.4155150
   104   6 C      105   6 C                                       1.4124335
   106   6 C      107   6 C                                       1.3927852
   107   6 C      108   6 C                                       1.3805828
   108   6 C      109   6 C                                       1.3889706
   111   6 C      112   6 C                                       1.5165468
   109   6 C      113   6 C                                       1.3935274
   106   6 C      114   6 C                                       1.3986546
   113   6 C      114   6 C                                       1.3756711
    91   6 C      116   6 C                                       1.4168572
   105   6 C      116   6 C                                       1.3913618
    89   6 C      117  16 S                                       1.7502525
   116   6 C      117  16 S                                       1.7506783
   104   6 C      118   6 C                                       1.4190638
   118   6 C      119   6 C                                       1.3632992
   103   6 C      120  16 S                                       1.7455650
   119   6 C      120  16 S                                       1.7535837 (max)
   119   6 C      121   6 C                                       1.4294132
   121   6 C      122   6 C                                       1.3621400
   122   6 C      123   6 C                                       1.4187924
   123   6 C      124   6 C                                       1.4042633
   125   6 C      126   6 C                                       1.3900202
   126   6 C      127   6 C                                       1.3822975
   127   6 C      128   6 C                                       1.3895827
   130   6 C      131   6 C                                       1.5173237
   128   6 C      132   6 C                                       1.3979458
   125   6 C      134   6 C                                       1.3962341
   132   6 C      134   6 C                                       1.3749890
   124   6 C      135   6 C                                       1.3883285
   135   6 C      136   6 C                                       1.4167896
   136   6 C      137   6 C                                       1.4057095
   138   6 C      139   6 C                                       1.3956946
   139   6 C      140   6 C                                       1.3766075
   140   6 C      141   6 C                                       1.3972109
   143   6 C      144   6 C                                       1.5152207
   141   6 C      145   6 C                                       1.3906844
   138   6 C      146   6 C                                       1.3905111
   145   6 C      146   6 C                                       1.3804455
   123   6 C      148   6 C                                       1.4165623
   137   6 C      148   6 C                                       1.3893581
   121   6 C      149  16 S                                       1.7507923
   148   6 C      149  16 S                                       1.7441431
   136   6 C      150   6 C                                       1.4281099
   150   6 C      151   6 C                                       1.3479169
   135   6 C      152  16 S                                       1.7450819
   151   6 C      152  16 S                                       1.7292033
     1   6 C      153   1 H                                       1.0725124
     2   6 C      154   1 H                                       1.0753193
     6   6 C      155   1 H                                       1.0797880
     7   6 C      156   1 H                                       1.0790909
    10   6 C      157   1 H                                       1.0868154
    10   6 C      158   1 H                                       1.0910955
    11   6 C      159   1 H                                       1.0878355
    11   6 C      160   1 H                                       1.0868705
    11   6 C      161   1 H                                       1.0885254
    14   6 C      162   1 H                                       1.0785736
    19   6 C      163   1 H                                       1.0789815
    20   6 C      164   1 H                                       1.0787077
    23   6 C      165   1 H                                       1.0871037
    23   6 C      166   1 H                                       1.0896344
    24   6 C      167   1 H                                       1.0883766
    24   6 C      168   1 H                                       1.0899983
    24   6 C      169   1 H                                       1.0879683
    26   6 C      170   1 H                                       1.0795208
    30   6 C      171   1 H                                       1.0747971
    34   6 C      172   1 H                                       1.0724017 (min)
    38   6 C      173   1 H                                       1.0746052
    39   6 C      174   1 H                                       1.0771507
    42   6 C      175   1 H                                       1.0896184
    42   6 C      176   1 H                                       1.0891498
    43   6 C      177   1 H                                       1.0880192
    43   6 C      178   1 H                                       1.0877296
    43   6 C      179   1 H                                       1.0871609
    46   6 C      180   1 H                                       1.0782446
    51   6 C      181   1 H                                       1.0788480
    52   6 C      182   1 H                                       1.0789696
    55   6 C      183   1 H                                       1.0900423
    55   6 C      184   1 H                                       1.0876361
    56   6 C      185   1 H                                       1.0884332
    56   6 C      186   1 H                                       1.0881930
    56   6 C      187   1 H                                       1.0880296
    58   6 C      188   1 H                                       1.0751356
    62   6 C      189   1 H                                       1.0755819
    67   6 C      190   1 H                                       1.0899191
    67   6 C      191   1 H                                       1.0884726
    68   6 C      192   1 H                                       1.0874891
    68   6 C      193   1 H                                       1.0873074
    68   6 C      194   1 H                                       1.0876739
    70   6 C      195   1 H                                       1.0899964
    70   6 C      196   1 H                                       1.0884732
    71   6 C      197   1 H                                       1.0875662
    71   6 C      198   1 H                                       1.0875079
    71   6 C      199   1 H                                       1.0879437
    73   6 C      200   1 H                                       1.0924963
    73   6 C      201   1 H                                       1.0883934
    74   6 C      202   1 H                                       1.0876169
    74   6 C      203   1 H                                       1.0876991
    74   6 C      204   1 H                                       1.0878804
    75   6 C      205   1 H                                       1.0801016
    79   6 C      206   1 H                                       1.0883112
    79   6 C      207   1 H                                       1.0891520
    80   6 C      208   1 H                                       1.0876512
    80   6 C      209   1 H                                       1.0883012
    80   6 C      210   1 H                                       1.0880587
    82   6 C      211   1 H                                       1.0887064
    82   6 C      212   1 H                                       1.0891080
    83   6 C      213   1 H                                       1.0877988
    83   6 C      214   1 H                                       1.0879416
    83   6 C      215   1 H                                       1.0879016
    85   6 C      216   1 H                                       1.0894537
    85   6 C      217   1 H                                       1.0924581
    86   6 C      218   1 H                                       1.0876931
    86   6 C      219   1 H                                       1.0874750
    86   6 C      220   1 H                                       1.0879359
    87   6 C      221   1 H                                       1.0809478
    90   6 C      222   1 H                                       1.0750456
    94   6 C      223   1 H                                       1.0800722
    95   6 C      224   1 H                                       1.0780882
    98   6 C      225   1 H                                       1.0899720
    98   6 C      226   1 H                                       1.0893270
    99   6 C      227   1 H                                       1.0879484
    99   6 C      228   1 H                                       1.0884088
    99   6 C      229   1 H                                       1.0873450
   102   6 C      230   1 H                                       1.0775909
   107   6 C      231   1 H                                       1.0771346
   108   6 C      232   1 H                                       1.0786456
   111   6 C      233   1 H                                       1.0896129
   111   6 C      234   1 H                                       1.0900921
   112   6 C      235   1 H                                       1.0879595
   112   6 C      236   1 H                                       1.0878295
   112   6 C      237   1 H                                       1.0875733
   114   6 C      238   1 H                                       1.0782855
   118   6 C      239   1 H                                       1.0742581
   122   6 C      240   1 H                                       1.0744453
   126   6 C      241   1 H                                       1.0786596
   127   6 C      242   1 H                                       1.0766619
   130   6 C      243   1 H                                       1.0904459
   130   6 C      244   1 H                                       1.0885288
   131   6 C      245   1 H                                       1.0876843
   131   6 C      246   1 H                                       1.0886309
   131   6 C      247   1 H                                       1.0873504
   134   6 C      248   1 H                                       1.0789683
   139   6 C      249   1 H                                       1.0785861
   140   6 C      250   1 H                                       1.0789544
   143   6 C      251   1 H                                       1.0905023
   143   6 C      252   1 H                                       1.0874880
   144   6 C      253   1 H                                       1.0870038
   144   6 C      254   1 H                                       1.0881377
   144   6 C      255   1 H                                       1.0879463
   146   6 C      256   1 H                                       1.0765661
   150   6 C      257   1 H                                       1.0743415
   151   6 C      258   1 H                                       1.0725313

 * 3 distinct bonds (by element types)

   Z      Z             #   av. dist./Å        max./Å        min./Å
   1 H    6 C         106     1.0846275     1.0924963     1.0724017
   6 C    6 C         116     1.4097162     1.5335338     1.3479169
   6 C   16 S          16     1.7456599     1.7535837     1.7292033


optimized geometry written to: xtbopt.mol


           -------------------------------------------------
          | TOTAL ENERGY             -418.173823619341 Eh   |
          | GRADIENT NORM               0.000441912225 Eh/α |
          | HOMO-LUMO GAP               1.542290340610 eV   |
           -------------------------------------------------

------------------------------------------------------------------------
 * finished run on 2022/03/04 at 19:35:57.655     
------------------------------------------------------------------------
 total:
 * wall-time:     0 d,  0 h,  4 min, 15.659 sec
 *  cpu-time:     0 d,  0 h, 34 min,  4.482 sec
 * ratio c/w:     7.997 speedup
 SCF:
 * wall-time:     0 d,  0 h,  0 min,  1.180 sec
 *  cpu-time:     0 d,  0 h,  0 min,  9.421 sec
 * ratio c/w:     7.984 speedup
 ANC optimizer:
 * wall-time:     0 d,  0 h,  4 min, 14.331 sec
 *  cpu-time:     0 d,  0 h, 33 min, 54.002 sec
 * ratio c/w:     7.997 speedup

