      -----------------------------------------------------------      
     |                   =====================                   |     
     |                           x T B                           |     
     |                   =====================                   |     
     |                         S. Grimme                         |     
     |          Mulliken Center for Theoretical Chemistry        |     
     |                    University of Bonn                     |     
      -----------------------------------------------------------      

   * xtb version 6.4.1 (unknown) compiled by 'oda6@login1.crc.pitt.edu' on 2021-06-25

   xtb is free software: you can redistribute it and/or modify it under
   the terms of the GNU Lesser General Public License as published by
   the Free Software Foundation, either version 3 of the License, or
   (at your option) any later version.
   
   xtb is distributed in the hope that it will be useful,
   but WITHOUT ANY WARRANTY; without even the implied warranty of
   MERCHANTABILITY or FITNESS FOR A PARTICULAR PURPOSE.  See the
   GNU Lesser General Public License for more details.
   
   Cite this work as:
   * C. Bannwarth, E. Caldeweyher, S. Ehlert, A. Hansen, P. Pracht,
     J. Seibert, S. Spicher, S. Grimme, WIREs Comput. Mol. Sci., 2020, 11,
     e01493. DOI: 10.1002/wcms.1493
   
   for GFN2-xTB:
   * C. Bannwarth, S. Ehlert and S. Grimme., J. Chem. Theory Comput., 2019,
     15, 1652-1671. DOI: 10.1021/acs.jctc.8b01176
   for GFN1-xTB:
   * S. Grimme, C. Bannwarth, P. Shushkov, J. Chem. Theory Comput., 2017,
     13, 1989-2009. DOI: 10.1021/acs.jctc.7b00118
   for GFN0-xTB:
   * P. Pracht, E. Caldeweyher, S. Ehlert, S. Grimme, ChemRxiv, 2019, preprint.
     DOI: 10.26434/chemrxiv.8326202.v1
   for GFN-FF:
   * S. Spicher and S. Grimme, Angew. Chem. Int. Ed., 2020, 59, 15665-15673.
     DOI: 10.1002/anie.202004239
   
   for DFT-D4:
   * E. Caldeweyher, C. Bannwarth and S. Grimme, J. Chem. Phys., 2017,
     147, 034112. DOI: 10.1063/1.4993215
   * E. Caldeweyher, S. Ehlert, A. Hansen, H. Neugebauer, S. Spicher,
     C. Bannwarth and S. Grimme, J. Chem. Phys., 2019, 150, 154122.
     DOI: 10.1063/1.5090222
   * E. Caldeweyher, J.-M. Mewes, S. Ehlert and S. Grimme, Phys. Chem. Chem. Phys.
     2020, 22, 8499-8512. DOI: 10.1039/D0CP00502A
   
   for sTDA-xTB:
   * S. Grimme and C. Bannwarth, J. Chem. Phys., 2016, 145, 054103.
     DOI: 10.1063/1.4959605
   
   in the mass-spec context:
   * V. Asgeirsson, C. Bauer and S. Grimme, Chem. Sci., 2017, 8, 4879.
     DOI: 10.1039/c7sc00601b
   * J. Koopman and S. Grimme, ACS Omega 2019, 4, 12, 15120-15133.
     DOI: 10.1021/acsomega.9b02011
   
   for metadynamics refer to:
   * S. Grimme, J. Chem. Theory Comput., 2019, 155, 2847-2862
     DOI: 10.1021/acs.jctc.9b00143
   
   for SPH calculations refer to:
   * S. Spicher and S. Grimme, J. Chem. Theory Comput., 2021, 17, 1701-1714
     DOI: 10.1021/acs.jctc.0c01306
   
   with help from (in alphabetical order)
   P. Atkinson, C. Bannwarth, F. Bohle, G. Brandenburg, E. Caldeweyher
   M. Checinski, S. Dohm, S. Ehlert, S. Ehrlich, I. Gerasimov, J. Koopman
   C. Lavigne, S. Lehtola, F. März, M. Müller, F. Musil, H. Neugebauer
   J. Pisarek, C. Plett, P. Pracht, J. Seibert, P. Shushkov, S. Spicher
   M. Stahn, M. Steiner, T. Strunk, J. Stückrath, T. Rose, and J. Unsleber
   
 * started run on 2022/03/03 at 18:34:31.973     

           -------------------------------------------------
          |                Calculation Setup                |
           -------------------------------------------------

          program call               : /ihome/ghutchison/oda6/xtb/xtb-641/bin/xtb ../../FF_optimized/807_99_100111.mol -opt
          hostname                   : smp-n90
          coordinate file            : ../../FF_optimized/807_99_100111.mol
          omp threads                :                     8
          number of atoms            :                   218
          number of electrons        :                   706
          charge                     :                     0
          spin                       :                   0.0
          first test random number   :      0.89187127575700

   ID    Z sym.   atoms
    1    6 C      1-8, 10-12, 14-21, 23-26, 28, 30, 31, 33, 34, 36, 37,
                  39-41, 43, 44, 46-54, 56-58, 60-67, 69-72, 74, 76, 77,
                  79-86, 88-90, 92-99, 101-104, 106, 108, 109, 111-118,
                  120-122, 124-131, 133-136, 138, 140, 141
    2   16 S      9, 22, 29, 32, 38, 45, 55, 68, 75, 78, 87, 100, 107, 110,
                  119, 132, 139, 142
    3    9 F      13, 27, 59, 73, 91, 105, 123, 137
    4    7 N      35, 42
    5    1 H      143-218
########################################################################
[WARNING] Please study the warnings concerning your input carefully
-1- prog_main_parseArguments: the use of '-opt' is discouraged, please use '--opt' next time
########################################################################

           -------------------------------------------------
          |                 G F N 2 - x T B                 |
           -------------------------------------------------

        Reference                      10.1021/acs.jctc.8b01176
      * Hamiltonian:
        H0-scaling (s, p, d)           1.850000    2.230000    2.230000
        zeta-weighting                 0.500000
      * Dispersion:
        s8                             2.700000
        a1                             0.520000
        a2                             5.000000
        s9                             5.000000
      * Repulsion:
        kExp                           1.500000    1.000000
        rExp                           1.000000
      * Coulomb:
        alpha                          2.000000
        third order                    shell-resolved
        anisotropic                    true
        a3                             3.000000
        a5                             4.000000
        cn-shift                       1.200000
        cn-exp                         4.000000
        max-rad                        5.000000


          ...................................................
          :                      SETUP                      :
          :.................................................:
          :  # basis functions                 752          :
          :  # atomic orbitals                 734          :
          :  # shells                          378          :
          :  # electrons                       706          :
          :  max. iterations                   250          :
          :  Hamiltonian                  GFN2-xTB          :
          :  restarted?                      false          :
          :  GBSA solvation                  false          :
          :  PC potential                    false          :
          :  electronic temp.          300.0000000     K    :
          :  accuracy                    1.0000000          :
          :  -> integral cutoff          0.2500000E+02      :
          :  -> integral neglect         0.1000000E-07      :
          :  -> SCF convergence          0.1000000E-05 Eh   :
          :  -> wf. convergence          0.1000000E-03 e    :
          :  Broyden damping             0.4000000          :
          ...................................................

 iter      E             dE          RMSdq      gap      omega  full diag
   1   -389.5725142 -0.389573E+03  0.474E+00    1.15       0.0  T
   2   -389.7893140 -0.216800E+00  0.287E+00    0.69       1.0  T
   3   -389.0982384  0.691076E+00  0.206E+00    0.43       1.0  T
   4   -389.8241812 -0.725943E+00  0.979E-01    0.06       1.0  T
   5   -389.9936426 -0.169461E+00  0.425E-01    0.64       1.0  T
   6   -390.0041272 -0.104846E-01  0.226E-01    0.32       1.0  T
   7   -390.0038352  0.291975E-03  0.171E-01    0.30       1.0  T
   8   -390.0072475 -0.341223E-02  0.814E-02    0.23       1.0  T
   9   -390.0077490 -0.501559E-03  0.392E-02    0.20       1.0  T
  10   -390.0079084 -0.159425E-03  0.256E-02    0.20       1.0  T
  11   -390.0080014 -0.929472E-04  0.117E-02    0.21       1.0  T
  12   -390.0080016 -0.250757E-06  0.896E-03    0.20       1.0  T
  13   -390.0080069 -0.522102E-05  0.674E-03    0.22       1.0  T
  14   -390.0080139 -0.704282E-05  0.214E-03    0.21       3.2  T
  15   -390.0080146 -0.673743E-06  0.865E-04    0.21       7.8  T
  16   -390.0080147 -0.776672E-07  0.504E-04    0.21      13.4  T

   *** convergence criteria satisfied after 16 iterations ***

         #    Occupation            Energy/Eh            Energy/eV
      -------------------------------------------------------------
         1        2.0000           -0.8264205             -22.4880
       ...           ...                  ...                  ...
       347        1.9999           -0.3642193              -9.9109
       348        1.9999           -0.3634554              -9.8901
       349        1.9997           -0.3628440              -9.8735
       350        1.9994           -0.3621006              -9.8533
       351        1.9947           -0.3600050              -9.7962
       352        1.9888           -0.3592886              -9.7767
       353        1.9724           -0.3584235              -9.7532 (HOMO)
       354        0.0452           -0.3507879              -9.5454 (LUMO)
       355                         -0.3317890              -9.0284
       356                         -0.3081961              -8.3864
       357                         -0.2962279              -8.0608
       358                         -0.2953173              -8.0360
       ...                                ...                  ...
       734                          0.8280912              22.5335
      -------------------------------------------------------------
                  HL-Gap            0.0076356 Eh            0.2078 eV
             Fermi-level           -0.3543676 Eh           -9.6428 eV

 SCC (total)                   0 d,  0 h,  0 min,  2.028 sec
 SCC setup                      ...        0 min,  0.005 sec (  0.225%)
 Dispersion                     ...        0 min,  0.011 sec (  0.557%)
 classical contributions        ...        0 min,  0.001 sec (  0.043%)
 integral evaluation            ...        0 min,  0.053 sec (  2.605%)
 iterations                     ...        0 min,  1.786 sec ( 88.075%)
 molecular gradient             ...        0 min,  0.166 sec (  8.197%)
 printout                       ...        0 min,  0.006 sec (  0.294%)

         :::::::::::::::::::::::::::::::::::::::::::::::::::::
         ::                     SUMMARY                     ::
         :::::::::::::::::::::::::::::::::::::::::::::::::::::
         :: total energy            -384.772914701717 Eh    ::
         :: gradient norm              0.355450316935 Eh/a0 ::
         :: HOMO-LUMO gap              0.207775796559 eV    ::
         ::.................................................::
         :: SCC energy              -390.008014659524 Eh    ::
         :: -> isotropic ES            0.137201075284 Eh    ::
         :: -> anisotropic ES          0.024397880604 Eh    ::
         :: -> anisotropic XC          0.160454155010 Eh    ::
         :: -> dispersion             -0.354381537218 Eh    ::
         :: repulsion energy           5.225640447137 Eh    ::
         :: add. restraining           0.000000000000 Eh    ::
         :: total charge              -0.000000000000 e     ::
         :::::::::::::::::::::::::::::::::::::::::::::::::::::

      ----------------------------------------------------------- 
     |                   =====================                   |
     |                        A N C O P T                        |
     |                   =====================                   |
     |               Approximate Normal Coordinate               |
     |                Rational Function Optimizer                |
      ----------------------------------------------------------- 

          ...................................................
          :                      SETUP                      :
          :.................................................:
          :   optimization level            normal          :
          :   max. optcycles                   654          :
          :   ANC micro-cycles                  20          :
          :   degrees of freedom               648          :
          :.................................................:
          :   RF solver                   davidson          :
          :   write xtbopt.log                true          :
          :   linear?                        false          :
          :   energy convergence         0.5000000E-05 Eh   :
          :   grad. convergence          0.1000000E-02 Eh/α :
          :   maximium RF displ.         1.0000000          :
          :   Hlow (freq-cutoff)         0.1000000E-01      :
          :   Hmax (freq-cutoff)         5.0000000          :
          :   S6 in model hess.         20.0000000          :
          ...................................................

generating ANC from model Hessian ...
Using Lindh-Hessian (1995)
 Shifting diagonal of input Hessian by   9.997776282575381E-003
 Lowest  eigenvalues of input Hessian
    0.000000    0.000000    0.000000    0.000000    0.000000    0.000000
    0.010000    0.010010    0.010012    0.010016    0.010030    0.010046
    0.010049    0.010061    0.010065    0.010071    0.010081    0.010085
 Highest eigenvalues
    2.088907    2.095898    2.097513    2.098108    2.227443    2.247989
 

........................................................................
.............................. CYCLE    1 ..............................
........................................................................
   1   -390.0080147 -0.390008E+03  0.214E-04    0.21       0.0  T
   2   -390.0080147  0.132825E-07  0.308E-04    0.21      22.0  T
   3   -390.0080147 -0.165871E-07  0.159E-04    0.21      42.7  T
     SCC iter.                  ...        0 min,  0.162 sec
     gradient                   ...        0 min,  0.163 sec
 * total energy  :  -384.7729147 Eh     change       -0.1911792E-07 Eh
   gradient norm :     0.3554498 Eh/α   predicted     0.0000000E+00 (-100.00%)
   displ. norm   :     0.4497235 α      lambda       -0.1215276E+00
   maximum displ.:     0.0818977 α      in ANC's #344, #410, #507, ...

........................................................................
.............................. CYCLE    2 ..............................
........................................................................
   1   -390.2219888 -0.390222E+03  0.261E-01    0.19       0.0  T
   2   -390.2224258 -0.436969E-03  0.163E-01    0.27       1.0  T
   3   -390.1432551  0.791707E-01  0.692E-01    0.04       1.0  T
   4   -390.2217838 -0.785286E-01  0.963E-02    0.27       1.0  T
   5   -390.2224613 -0.677569E-03  0.727E-02    0.26       1.0  T
   6   -390.2227826 -0.321319E-03  0.563E-02    0.28       1.0  T
   7   -390.2229544 -0.171810E-03  0.504E-02    0.27       1.0  T
   8   -390.2229936 -0.391843E-04  0.460E-02    0.26       1.0  T
   9   -390.2230280 -0.343233E-04  0.426E-02    0.26       1.0  T
  10   -390.2230598 -0.318749E-04  0.389E-02    0.26       1.0  T
  11   -390.2231260 -0.662059E-04  0.308E-02    0.25       1.0  T
  12   -390.2231865 -0.604775E-04  0.221E-02    0.24       1.0  T
  13   -390.2232447 -0.581984E-04  0.791E-03    0.22       1.0  T
  14   -390.2232502 -0.553048E-05  0.487E-03    0.20       1.4  T
  15   -390.2232536 -0.336932E-05  0.103E-03    0.21       6.6  T
  16   -390.2232526  0.103330E-05  0.283E-03    0.20       2.4  T
  17   -390.2232535 -0.931978E-06  0.123E-03    0.21       5.5  T
  18   -390.2232537 -0.138901E-06  0.554E-04    0.21      12.2  T
  19   -390.2232537 -0.368173E-07  0.127E-04    0.21      53.3  T
     SCC iter.                  ...        0 min,  2.183 sec
     gradient                   ...        0 min,  0.178 sec
 * total energy  :  -384.8631578 Eh     change       -0.9024313E-01 Eh
   gradient norm :     0.1824194 Eh/α   predicted    -0.7307124E-01 ( -19.03%)
   displ. norm   :     0.4088285 α      lambda       -0.5472750E-01
   maximum displ.:     0.0770812 α      in ANC's #344, #571, #231, ...

........................................................................
.............................. CYCLE    3 ..............................
........................................................................
   1   -390.3712128 -0.390371E+03  0.232E-01    0.21       0.0  T
   2   -390.3718751 -0.662315E-03  0.136E-01    0.21       1.0  T
   3   -390.3700999  0.177515E-02  0.107E-01    0.18       1.0  T
   4   -390.3715292 -0.142925E-02  0.683E-02    0.29       1.0  T
   5   -390.3723406 -0.811413E-03  0.183E-02    0.21       1.0  T
   6   -390.3723592 -0.185600E-04  0.969E-03    0.21       1.0  T
   7   -390.3723678 -0.865748E-05  0.543E-03    0.21       1.2  T
   8   -390.3723717 -0.387330E-05  0.297E-03    0.21       2.3  T
   9   -390.3723731 -0.138934E-05  0.142E-03    0.21       4.8  T
  10   -390.3723733 -0.232314E-06  0.949E-04    0.21       7.1  T
  11   -390.3723733  0.492600E-07  0.945E-04    0.21       7.2  T
     SCC iter.                  ...        0 min,  0.551 sec
     gradient                   ...        0 min,  0.163 sec
 * total energy  :  -384.8965241 Eh     change       -0.3336622E-01 Eh
   gradient norm :     0.0493604 Eh/α   predicted    -0.3194245E-01 (  -4.27%)
   displ. norm   :     0.3683176 α      lambda       -0.7966147E-02
   maximum displ.:     0.0860073 α      in ANC's #122, #130, #77, ...

........................................................................
.............................. CYCLE    4 ..............................
........................................................................
   1   -390.3970195 -0.390397E+03  0.998E-02    0.21       0.0  T
   2   -390.3970668 -0.473138E-04  0.579E-02    0.21       1.0  T
   3   -390.3965028  0.563995E-03  0.540E-02    0.19       1.0  T
   4   -390.3969494 -0.446619E-03  0.308E-02    0.25       1.0  T
   5   -390.3971277 -0.178259E-03  0.807E-03    0.21       1.0  T
   6   -390.3971306 -0.292680E-05  0.576E-03    0.22       1.2  T
   7   -390.3971333 -0.267609E-05  0.358E-03    0.21       1.9  T
   8   -390.3971357 -0.240750E-05  0.112E-03    0.21       6.0  T
   9   -390.3971359 -0.181156E-06  0.619E-04    0.21      10.9  T
  10   -390.3971359 -0.370479E-07  0.382E-04    0.21      17.7  T
     SCC iter.                  ...        0 min,  0.502 sec
     gradient                   ...        0 min,  0.164 sec
 * total energy  :  -384.9019557 Eh     change       -0.5431636E-02 Eh
   gradient norm :     0.0236126 Eh/α   predicted    -0.4523443E-02 ( -16.72%)
   displ. norm   :     0.4096332 α      lambda       -0.3287376E-02
   maximum displ.:     0.1006863 α      in ANC's #71, #77, #79, ...

........................................................................
.............................. CYCLE    5 ..............................
........................................................................
   1   -390.4034017 -0.390403E+03  0.694E-02    0.21       0.0  T
   2   -390.4033864  0.152368E-04  0.424E-02    0.21       1.0  T
   3   -390.4029006  0.485790E-03  0.482E-02    0.20       1.0  T
   4   -390.4033749 -0.474292E-03  0.178E-02    0.23       1.0  T
   5   -390.4034379 -0.629976E-04  0.649E-03    0.21       1.0  T
   6   -390.4034394 -0.146928E-05  0.548E-03    0.22       1.2  T
   7   -390.4034443 -0.489664E-05  0.131E-03    0.21       5.2  T
   8   -390.4034445 -0.191764E-06  0.657E-04    0.21      10.3  T
   9   -390.4034445 -0.615016E-07  0.403E-04    0.21      16.8  T
     SCC iter.                  ...        0 min,  0.455 sec
     gradient                   ...        0 min,  0.163 sec
 * total energy  :  -384.9043036 Eh     change       -0.2347907E-02 Eh
   gradient norm :     0.0131882 Eh/α   predicted    -0.1919500E-02 ( -18.25%)
   displ. norm   :     0.4427115 α      lambda       -0.1838421E-02
   maximum displ.:     0.1129656 α      in ANC's #71, #79, #50, ...

........................................................................
.............................. CYCLE    6 ..............................
........................................................................
   1   -390.4046611 -0.390405E+03  0.665E-02    0.21       0.0  T
   2   -390.4046301  0.309148E-04  0.401E-02    0.21       1.0  T
   3   -390.4041084  0.521782E-03  0.500E-02    0.20       1.0  T
   4   -390.4046577 -0.549326E-03  0.129E-02    0.22       1.0  T
   5   -390.4046884 -0.307099E-04  0.607E-03    0.21       1.1  T
   6   -390.4046890 -0.606383E-06  0.536E-03    0.22       1.3  T
   7   -390.4046937 -0.474874E-05  0.112E-03    0.21       6.1  T
   8   -390.4046939 -0.157322E-06  0.641E-04    0.21      10.6  T
   9   -390.4046940 -0.685520E-07  0.339E-04    0.21      20.0  T
     SCC iter.                  ...        0 min,  1.173 sec
     gradient                   ...        0 min,  0.224 sec
 * total energy  :  -384.9056768 Eh     change       -0.1373144E-02 Eh
   gradient norm :     0.0113768 Eh/α   predicted    -0.1099373E-02 ( -19.94%)
   displ. norm   :     0.5004276 α      lambda       -0.1406557E-02
   maximum displ.:     0.1384159 α      in ANC's #50, #43, #71, ...

........................................................................
.............................. CYCLE    7 ..............................
........................................................................
   1   -390.4047689 -0.390405E+03  0.708E-02    0.21       0.0  T
   2   -390.4047482  0.206970E-04  0.411E-02    0.21       1.0  T
   3   -390.4042361  0.512156E-03  0.493E-02    0.21       1.0  T
   4   -390.4047723 -0.536169E-03  0.106E-02    0.22       1.0  T
   5   -390.4047926 -0.203638E-04  0.557E-03    0.21       1.2  T
   6   -390.4047932 -0.597300E-06  0.483E-03    0.22       1.4  T
   7   -390.4047971 -0.383443E-05  0.122E-03    0.21       5.6  T
   8   -390.4047973 -0.208735E-06  0.716E-04    0.21       9.5  T
   9   -390.4047974 -0.948035E-07  0.306E-04    0.21      22.1  T
     SCC iter.                  ...        0 min,  1.924 sec
     gradient                   ...        0 min,  0.212 sec
 * total energy  :  -384.9067954 Eh     change       -0.1118630E-02 Eh
   gradient norm :     0.0121388 Eh/α   predicted    -0.8794016E-03 ( -21.39%)
   displ. norm   :     0.6000348 α      lambda       -0.1415460E-02
   maximum displ.:     0.1965635 α      in ANC's #50, #43, #20, ...

........................................................................
.............................. CYCLE    8 ..............................
........................................................................
   1   -390.4034117 -0.390403E+03  0.834E-02    0.22       0.0  T
   2   -390.4033998  0.119392E-04  0.466E-02    0.21       1.0  T
   3   -390.4028656  0.534209E-03  0.519E-02    0.24       1.0  T
   4   -390.4034235 -0.557930E-03  0.100E-02    0.21       1.0  T
   5   -390.4034361 -0.125879E-04  0.601E-03    0.22       1.1  T
   6   -390.4034404 -0.433195E-05  0.255E-03    0.22       2.7  T
   7   -390.4034416 -0.116036E-05  0.117E-03    0.22       5.8  T
   8   -390.4034419 -0.295063E-06  0.377E-04    0.22      18.0  T
   9   -390.4034419 -0.778761E-08  0.254E-04    0.22      26.7  T
     SCC iter.                  ...        0 min,  1.696 sec
     gradient                   ...        0 min,  0.197 sec
 * total energy  :  -384.9079782 Eh     change       -0.1182766E-02 Eh
   gradient norm :     0.0115202 Eh/α   predicted    -0.9625439E-03 ( -18.62%)
   displ. norm   :     0.6799112 α      lambda       -0.1506430E-02
   maximum displ.:     0.2544387 α      in ANC's #50, #20, #43, ...

........................................................................
.............................. CYCLE    9 ..............................
........................................................................
   1   -390.4025371 -0.390403E+03  0.903E-02    0.22       0.0  T
   2   -390.4025361  0.979676E-06  0.501E-02    0.21       1.0  T
   3   -390.4021455  0.390588E-03  0.455E-02    0.26       1.0  T
   4   -390.4025494 -0.403881E-03  0.103E-02    0.22       1.0  T
   5   -390.4025587 -0.927670E-05  0.685E-03    0.22       1.0  T
   6   -390.4025634 -0.469186E-05  0.411E-03    0.22       1.6  T
   7   -390.4025667 -0.331831E-05  0.160E-03    0.22       4.2  T
   8   -390.4025671 -0.437076E-06  0.548E-04    0.22      12.4  T
   9   -390.4025671 -0.243799E-07  0.347E-04    0.22      19.5  T
     SCC iter.                  ...        0 min,  0.714 sec
     gradient                   ...        0 min,  0.165 sec
 * total energy  :  -384.9092723 Eh     change       -0.1294100E-02 Eh
   gradient norm :     0.0105181 Eh/α   predicted    -0.1101416E-02 ( -14.89%)
   displ. norm   :     0.7278416 α      lambda       -0.1561420E-02
   maximum displ.:     0.3029849 α      in ANC's #50, #20, #48, ...

........................................................................
.............................. CYCLE   10 ..............................
........................................................................
   1   -390.4023913 -0.390402E+03  0.960E-02    0.23       0.0  T
   2   -390.4023986 -0.735074E-05  0.523E-02    0.21       1.0  T
   3   -390.4021969  0.201750E-03  0.332E-02    0.28       1.0  T
   4   -390.4024127 -0.215800E-03  0.868E-03    0.22       1.0  T
   5   -390.4024109  0.173425E-05  0.690E-03    0.22       1.0  T
   6   -390.4024157 -0.472643E-05  0.403E-03    0.23       1.7  T
   7   -390.4024194 -0.373859E-05  0.152E-03    0.22       4.5  T
   8   -390.4024198 -0.407325E-06  0.488E-04    0.22      13.9  T
   9   -390.4024198 -0.347102E-07  0.274E-04    0.22      24.7  T
     SCC iter.                  ...        0 min,  0.559 sec
     gradient                   ...        0 min,  0.173 sec
 * total energy  :  -384.9106349 Eh     change       -0.1362638E-02 Eh
   gradient norm :     0.0113533 Eh/α   predicted    -0.1194308E-02 ( -12.35%)
   displ. norm   :     0.7593316 α      lambda       -0.1596466E-02
   maximum displ.:     0.3427394 α      in ANC's #50, #20, #48, ...

........................................................................
.............................. CYCLE   11 ..............................
........................................................................
   1   -390.4032119 -0.390403E+03  0.982E-02    0.23       0.0  T
   2   -390.4032271 -0.151887E-04  0.531E-02    0.23       1.0  T
   3   -390.4030973  0.129837E-03  0.263E-02    0.26       1.0  T
   4   -390.4032235 -0.126224E-03  0.106E-02    0.23       1.0  T
   5   -390.4032306 -0.712725E-05  0.714E-03    0.23       1.0  T
   6   -390.4032399 -0.925692E-05  0.289E-03    0.23       2.3  T
   7   -390.4032415 -0.162628E-05  0.115E-03    0.23       5.9  T
   8   -390.4032417 -0.230147E-06  0.441E-04    0.23      15.3  T
   9   -390.4032417 -0.199070E-07  0.216E-04    0.23      31.3  T
     SCC iter.                  ...        0 min,  1.677 sec
     gradient                   ...        0 min,  0.227 sec
 * total energy  :  -384.9120503 Eh     change       -0.1415436E-02 Eh
   gradient norm :     0.0124487 Eh/α   predicted    -0.1258482E-02 ( -11.09%)
   displ. norm   :     0.7674998 α      lambda       -0.1645815E-02
   maximum displ.:     0.3635551 α      in ANC's #50, #20, #48, ...

........................................................................
.............................. CYCLE   12 ..............................
........................................................................
   1   -390.4061422 -0.390406E+03  0.100E-01    0.24       0.0  T
   2   -390.4061477 -0.542625E-05  0.539E-02    0.24       1.0  T
   3   -390.4057501  0.397523E-03  0.422E-02    0.25       1.0  T
   4   -390.4061547 -0.404544E-03  0.118E-02    0.24       1.0  T
   5   -390.4061678 -0.131254E-04  0.763E-03    0.24       1.0  T
   6   -390.4061758 -0.798701E-05  0.390E-03    0.24       1.7  T
   7   -390.4061790 -0.321072E-05  0.962E-04    0.24       7.0  T
   8   -390.4061792 -0.176615E-06  0.449E-04    0.24      15.1  T
   9   -390.4061792 -0.219501E-07  0.264E-04    0.24      25.6  T
     SCC iter.                  ...        0 min,  0.460 sec
     gradient                   ...        0 min,  0.163 sec
 * total energy  :  -384.9135140 Eh     change       -0.1463678E-02 Eh
   gradient norm :     0.0125291 Eh/α   predicted    -0.1307648E-02 ( -10.66%)
   displ. norm   :     0.7838657 α      lambda       -0.1674305E-02
   maximum displ.:     0.3812455 α      in ANC's #50, #20, #48, ...

........................................................................
.............................. CYCLE   13 ..............................
........................................................................
   1   -390.4076377 -0.390408E+03  0.101E-01    0.24       0.0  T
   2   -390.4076463 -0.864797E-05  0.544E-02    0.25       1.0  T
   3   -390.4072810  0.365362E-03  0.424E-02    0.24       1.0  T
   4   -390.4076437 -0.362780E-03  0.128E-02    0.25       1.0  T
   5   -390.4076664 -0.226191E-04  0.669E-03    0.25       1.0  T
   6   -390.4076723 -0.592233E-05  0.306E-03    0.25       2.2  T
   7   -390.4076740 -0.171553E-05  0.116E-03    0.25       5.9  T
   8   -390.4076743 -0.270290E-06  0.427E-04    0.25      15.9  T
   9   -390.4076743 -0.228313E-07  0.214E-04    0.25      31.6  T
     SCC iter.                  ...        0 min,  0.591 sec
     gradient                   ...        0 min,  0.219 sec
 * total energy  :  -384.9150128 Eh     change       -0.1498768E-02 Eh
   gradient norm :     0.0112188 Eh/α   predicted    -0.1351545E-02 (  -9.82%)
   displ. norm   :     0.7837063 α      lambda       -0.1711102E-02
   maximum displ.:     0.3763732 α      in ANC's #50, #20, #48, ...

........................................................................
.............................. CYCLE   14 ..............................
........................................................................
   1   -390.4146880 -0.390415E+03  0.104E-01    0.24       0.0  T
   2   -390.4146767  0.112669E-04  0.566E-02    0.25       1.0  T
   3   -390.4139963  0.680424E-03  0.574E-02    0.25       1.0  T
   4   -390.4147043 -0.707986E-03  0.136E-02    0.25       1.0  T
   5   -390.4147279 -0.235864E-04  0.837E-03    0.25       1.0  T
   6   -390.4147366 -0.877176E-05  0.432E-03    0.25       1.6  T
   7   -390.4147403 -0.367474E-05  0.141E-03    0.25       4.8  T
   8   -390.4147407 -0.401055E-06  0.439E-04    0.25      15.4  T
   9   -390.4147407 -0.198869E-07  0.244E-04    0.25      27.8  T
     SCC iter.                  ...        0 min,  0.483 sec
     gradient                   ...        0 min,  0.216 sec
 * total energy  :  -384.9165068 Eh     change       -0.1493987E-02 Eh
   gradient norm :     0.0117356 Eh/α   predicted    -0.1381030E-02 (  -7.56%)
   displ. norm   :     0.8434131 α      lambda       -0.1673651E-02
   maximum displ.:     0.4120075 α      in ANC's #50, #20, #48, ...

........................................................................
.............................. CYCLE   15 ..............................
........................................................................
   1   -390.4024469 -0.390402E+03  0.110E-01    0.25       0.0  T
   2   -390.4024685 -0.215131E-04  0.586E-02    0.26       1.0  T
   3   -390.4022225  0.245994E-03  0.359E-02    0.24       1.0  T
   4   -390.4024605 -0.238079E-03  0.137E-02    0.26       1.0  T
   5   -390.4024844 -0.238149E-04  0.732E-03    0.26       1.0  T
   6   -390.4024903 -0.599555E-05  0.424E-03    0.26       1.6  T
   7   -390.4024939 -0.351728E-05  0.149E-03    0.26       4.5  T
   8   -390.4024943 -0.439409E-06  0.491E-04    0.26      13.8  T
   9   -390.4024943 -0.325816E-07  0.254E-04    0.26      26.7  T
     SCC iter.                  ...        0 min,  0.551 sec
     gradient                   ...        0 min,  0.215 sec
 * total energy  :  -384.9178754 Eh     change       -0.1368675E-02 Eh
   gradient norm :     0.0147560 Eh/α   predicted    -0.1432099E-02 (   4.63%)
   displ. norm   :     0.7448188 α      lambda       -0.1927228E-02
   maximum displ.:     0.2748848 α      in ANC's #50, #20, #37, ...

........................................................................
.............................. CYCLE   16 ..............................
........................................................................
   1   -390.4207712 -0.390421E+03  0.104E-01    0.25       0.0  T
   2   -390.4207839 -0.126435E-04  0.568E-02    0.27       1.0  T
   3   -390.4203754  0.408516E-03  0.451E-02    0.23       1.0  T
   4   -390.4207906 -0.415259E-03  0.133E-02    0.26       1.0  T
   5   -390.4208086 -0.180067E-04  0.804E-03    0.26       1.0  T
   6   -390.4208172 -0.861113E-05  0.452E-03    0.26       1.5  T
   7   -390.4208212 -0.394696E-05  0.146E-03    0.26       4.6  T
   8   -390.4208216 -0.392926E-06  0.511E-04    0.26      13.3  T
   9   -390.4208216 -0.245652E-07  0.296E-04    0.26      22.9  T
     SCC iter.                  ...        0 min,  1.837 sec
     gradient                   ...        0 min,  0.259 sec
 * total energy  :  -384.9191471 Eh     change       -0.1271650E-02 Eh
   gradient norm :     0.0167144 Eh/α   predicted    -0.1498185E-02 (  17.81%)
   displ. norm   :     0.7627027 α      lambda       -0.1472550E-02
   maximum displ.:     0.3424027 α      in ANC's #50, #20, #48, ...

........................................................................
.............................. CYCLE   17 ..............................
........................................................................
   1   -390.4085487 -0.390409E+03  0.997E-02    0.26       0.0  T
   2   -390.4085665 -0.178357E-04  0.531E-02    0.27       1.0  T
   3   -390.4083212  0.245374E-03  0.357E-02    0.25       1.0  T
   4   -390.4085681 -0.246904E-03  0.123E-02    0.27       1.0  T
   5   -390.4085881 -0.200204E-04  0.578E-03    0.26       1.2  T
   6   -390.4085911 -0.303521E-05  0.297E-03    0.26       2.3  T
   7   -390.4085926 -0.148084E-05  0.159E-03    0.26       4.2  T
   8   -390.4085932 -0.576029E-06  0.454E-04    0.26      14.9  T
   9   -390.4085932 -0.328167E-07  0.212E-04    0.26      32.0  T
     SCC iter.                  ...        0 min,  1.874 sec
     gradient                   ...        0 min,  0.176 sec
 * total energy  :  -384.9203628 Eh     change       -0.1215666E-02 Eh
   gradient norm :     0.0138845 Eh/α   predicted    -0.1164584E-02 (  -4.20%)
   displ. norm   :     0.6903570 α      lambda       -0.1507881E-02
   maximum displ.:     0.2575066 α      in ANC's #20, #50, #18, ...

........................................................................
.............................. CYCLE   18 ..............................
........................................................................
   1   -390.4068813 -0.390407E+03  0.874E-02    0.26       0.0  T
   2   -390.4068780  0.330559E-05  0.474E-02    0.27       1.0  T
   3   -390.4063723  0.505677E-03  0.493E-02    0.26       1.0  T
   4   -390.4068986 -0.526280E-03  0.113E-02    0.27       1.0  T
   5   -390.4069111 -0.124375E-04  0.704E-03    0.27       1.0  T
   6   -390.4069173 -0.622660E-05  0.383E-03    0.27       1.8  T
   7   -390.4069205 -0.316794E-05  0.121E-03    0.27       5.6  T
   8   -390.4069207 -0.276457E-06  0.429E-04    0.27      15.8  T
   9   -390.4069208 -0.166826E-07  0.243E-04    0.27      27.9  T
     SCC iter.                  ...        0 min,  1.741 sec
     gradient                   ...        0 min,  0.250 sec
 * total energy  :  -384.9214790 Eh     change       -0.1116260E-02 Eh
   gradient norm :     0.0133805 Eh/α   predicted    -0.1113267E-02 (  -0.27%)
   displ. norm   :     0.6853797 α      lambda       -0.1415666E-02
   maximum displ.:     0.2509635 α      in ANC's #20, #50, #18, ...

........................................................................
.............................. CYCLE   19 ..............................
........................................................................
   1   -390.4089813 -0.390409E+03  0.851E-02    0.27       0.0  T
   2   -390.4089692  0.121019E-04  0.466E-02    0.28       1.0  T
   3   -390.4083796  0.589605E-03  0.543E-02    0.26       1.0  T
   4   -390.4089942 -0.614598E-03  0.131E-02    0.27       1.0  T
   5   -390.4090233 -0.291693E-04  0.651E-03    0.27       1.0  T
   6   -390.4090284 -0.506293E-05  0.236E-03    0.27       2.9  T
   7   -390.4090291 -0.716039E-06  0.957E-04    0.27       7.1  T
   8   -390.4090292 -0.140457E-06  0.510E-04    0.27      13.3  T
     SCC iter.                  ...        0 min,  1.758 sec
     gradient                   ...        0 min,  0.213 sec
 * total energy  :  -384.9225069 Eh     change       -0.1027877E-02 Eh
   gradient norm :     0.0152807 Eh/α   predicted    -0.1040339E-02 (   1.21%)
   displ. norm   :     0.7229747 α      lambda       -0.1323379E-02
   maximum displ.:     0.2685792 α      in ANC's #20, #50, #18, ...

........................................................................
.............................. CYCLE   20 ..............................
........................................................................
   1   -390.4095671 -0.390410E+03  0.889E-02    0.27       0.0  T
   2   -390.4095743 -0.713189E-05  0.468E-02    0.28       1.0  T
   3   -390.4092115  0.362754E-03  0.408E-02    0.27       1.0  T
   4   -390.4095814 -0.369949E-03  0.111E-02    0.27       1.0  T
   5   -390.4095940 -0.125895E-04  0.701E-03    0.28       1.0  T
   6   -390.4096006 -0.653993E-05  0.326E-03    0.27       2.1  T
   7   -390.4096025 -0.193342E-05  0.131E-03    0.27       5.2  T
   8   -390.4096029 -0.359158E-06  0.451E-04    0.27      15.0  T
   9   -390.4096029 -0.224160E-07  0.235E-04    0.27      28.9  T
     SCC iter.                  ...        0 min,  1.561 sec
     gradient                   ...        0 min,  0.230 sec
 * total energy  :  -384.9234890 Eh     change       -0.9821408E-03 Eh
   gradient norm :     0.0153392 Eh/α   predicted    -0.1007553E-02 (   2.59%)
   displ. norm   :     0.6741986 α      lambda       -0.1460490E-02
   maximum displ.:     0.2514733 α      in ANC's #20, #18, #48, ...
 * RMSD in coord.:     0.7101504 α      energy gain  -0.1505743E+00 Eh

generating ANC from model Hessian ...
Using Lindh-Hessian (1995)
 Shifting diagonal of input Hessian by   1.001693029930667E-002
 Lowest  eigenvalues of input Hessian
    0.010000    0.000000    0.000000    0.000000    0.000000    0.000000
    0.000000    0.010020    0.010029    0.010032    0.010050    0.010055
    0.010068    0.010079    0.010085    0.010089    0.010091    0.010109
 Highest eigenvalues
    2.110477    2.113142    2.114400    2.118895    2.153882    2.170368
 

........................................................................
.............................. CYCLE   21 ..............................
........................................................................
   1   -390.4164108 -0.390416E+03  0.779E-02    0.28       0.0  T
   2   -390.4164181 -0.725673E-05  0.413E-02    0.28       1.0  T
   3   -390.4161546  0.263517E-03  0.349E-02    0.28       1.0  T
   4   -390.4164256 -0.270982E-03  0.954E-03    0.28       1.0  T
   5   -390.4164329 -0.737664E-05  0.637E-03    0.28       1.1  T
   6   -390.4164384 -0.547173E-05  0.351E-03    0.28       1.9  T
   7   -390.4164408 -0.239945E-05  0.103E-03    0.28       6.6  T
   8   -390.4164410 -0.213079E-06  0.391E-04    0.28      17.3  T
   9   -390.4164410 -0.152188E-07  0.217E-04    0.28      31.2  T
     SCC iter.                  ...        0 min,  2.174 sec
     gradient                   ...        0 min,  0.207 sec
 * total energy  :  -384.9245080 Eh     change       -0.1018981E-02 Eh
   gradient norm :     0.0119331 Eh/α   predicted     0.0000000E+00 (-100.00%)
   displ. norm   :     0.1719843 α      lambda       -0.6741226E-03
   maximum displ.:     0.0436617 α      in ANC's #21, #18, #68, ...

........................................................................
.............................. CYCLE   22 ..............................
........................................................................
   1   -390.4193898 -0.390419E+03  0.385E-02    0.28       0.0  T
   2   -390.4193932 -0.338801E-05  0.191E-02    0.28       1.0  T
   3   -390.4193541  0.391465E-04  0.134E-02    0.28       1.0  T
   4   -390.4193943 -0.401848E-04  0.442E-03    0.28       1.5  T
   5   -390.4193962 -0.189482E-05  0.268E-03    0.28       2.5  T
   6   -390.4193969 -0.711097E-06  0.164E-03    0.28       4.1  T
   7   -390.4193974 -0.540610E-06  0.465E-04    0.28      14.6  T
   8   -390.4193974 -0.380126E-07  0.196E-04    0.28      34.6  T
     SCC iter.                  ...        0 min,  1.386 sec
     gradient                   ...        0 min,  0.211 sec
 * total energy  :  -384.9249701 Eh     change       -0.4620881E-03 Eh
   gradient norm :     0.0054097 Eh/α   predicted    -0.3470342E-03 ( -24.90%)
   displ. norm   :     0.3352863 α      lambda       -0.7294151E-03
   maximum displ.:     0.1003867 α      in ANC's #21, #19, #18, ...

........................................................................
.............................. CYCLE   23 ..............................
........................................................................
   1   -390.4226205 -0.390423E+03  0.493E-02    0.28       0.0  T
   2   -390.4226242 -0.367836E-05  0.261E-02    0.28       1.0  T
   3   -390.4225520  0.721943E-04  0.192E-02    0.28       1.0  T
   4   -390.4226235 -0.715305E-04  0.664E-03    0.28       1.0  T
   5   -390.4226289 -0.533736E-05  0.389E-03    0.28       1.7  T
   6   -390.4226310 -0.211233E-05  0.196E-03    0.28       3.4  T
   7   -390.4226317 -0.730414E-06  0.672E-04    0.28      10.1  T
   8   -390.4226318 -0.931730E-07  0.244E-04    0.28      27.8  T
     SCC iter.                  ...        0 min,  1.800 sec
     gradient                   ...        0 min,  0.214 sec
 * total energy  :  -384.9254933 Eh     change       -0.5232178E-03 Eh
   gradient norm :     0.0071774 Eh/α   predicted    -0.4057070E-03 ( -22.46%)
   displ. norm   :     0.5128287 α      lambda       -0.7829418E-03
   maximum displ.:     0.1555555 α      in ANC's #21, #19, #39, ...

........................................................................
.............................. CYCLE   24 ..............................
........................................................................
   1   -390.4225579 -0.390423E+03  0.691E-02    0.28       0.0  T
   2   -390.4225657 -0.781739E-05  0.352E-02    0.28       1.0  T
   3   -390.4224522  0.113521E-03  0.244E-02    0.28       1.0  T
   4   -390.4225642 -0.111964E-03  0.837E-03    0.28       1.0  T
   5   -390.4225712 -0.707894E-05  0.509E-03    0.28       1.3  T
   6   -390.4225758 -0.450930E-05  0.149E-03    0.28       4.5  T
   7   -390.4225761 -0.348627E-06  0.645E-04    0.28      10.5  T
   8   -390.4225762 -0.816704E-07  0.309E-04    0.28      21.9  T
     SCC iter.                  ...        0 min,  2.012 sec
     gradient                   ...        0 min,  0.192 sec
 * total energy  :  -384.9261769 Eh     change       -0.6835810E-03 Eh
   gradient norm :     0.0112582 Eh/α   predicted    -0.4944357E-03 ( -27.67%)
   displ. norm   :     0.7504642 α      lambda       -0.1154036E-02
   maximum displ.:     0.2311334 α      in ANC's #21, #39, #19, ...

........................................................................
.............................. CYCLE   25 ..............................
........................................................................
   1   -390.4183216 -0.390418E+03  0.958E-02    0.28       0.0  T
   2   -390.4183405 -0.188180E-04  0.481E-02    0.28       1.0  T
   3   -390.4181943  0.146183E-03  0.279E-02    0.28       1.0  T
   4   -390.4183349 -0.140665E-03  0.111E-02    0.28       1.0  T
   5   -390.4183466 -0.116336E-04  0.647E-03    0.28       1.0  T
   6   -390.4183541 -0.747595E-05  0.185E-03    0.28       3.7  T
   7   -390.4183546 -0.515418E-06  0.897E-04    0.28       7.5  T
   8   -390.4183547 -0.158355E-06  0.409E-04    0.28      16.6  T
     SCC iter.                  ...        0 min,  1.422 sec
     gradient                   ...        0 min,  0.266 sec
 * total energy  :  -384.9271826 Eh     change       -0.1005668E-02 Eh
   gradient norm :     0.0122825 Eh/α   predicted    -0.9020127E-03 ( -10.31%)
   displ. norm   :     0.7360337 α      lambda       -0.1120777E-02
   maximum displ.:     0.2398257 α      in ANC's #21, #19, #18, ...

........................................................................
.............................. CYCLE   26 ..............................
........................................................................
   1   -390.4159842 -0.390416E+03  0.893E-02    0.29       0.0  T
   2   -390.4160055 -0.212860E-04  0.442E-02    0.28       1.0  T
   3   -390.4159741  0.313708E-04  0.155E-02    0.29       1.0  T
   4   -390.4159951 -0.209553E-04  0.103E-02    0.28       1.0  T
   5   -390.4160038 -0.873053E-05  0.667E-03    0.28       1.0  T
   6   -390.4160127 -0.888200E-05  0.164E-03    0.28       4.1  T
   7   -390.4160132 -0.476705E-06  0.581E-04    0.28      11.7  T
   8   -390.4160132 -0.449363E-07  0.261E-04    0.28      26.0  T
     SCC iter.                  ...        0 min,  1.318 sec
     gradient                   ...        0 min,  0.255 sec
 * total energy  :  -384.9281069 Eh     change       -0.9243322E-03 Eh
   gradient norm :     0.0119039 Eh/α   predicted    -0.8639783E-03 (  -6.53%)
   displ. norm   :     0.6565538 α      lambda       -0.9700222E-03
   maximum displ.:     0.2315685 α      in ANC's #21, #19, #18, ...

........................................................................
.............................. CYCLE   27 ..............................
........................................................................
   1   -390.4183653 -0.390418E+03  0.739E-02    0.29       0.0  T
   2   -390.4183806 -0.152874E-04  0.364E-02    0.29       1.0  T
   3   -390.4183487  0.318935E-04  0.145E-02    0.29       1.0  T
   4   -390.4183779 -0.292642E-04  0.783E-03    0.29       1.0  T
   5   -390.4183814 -0.342785E-05  0.557E-03    0.29       1.2  T
   6   -390.4183867 -0.530440E-05  0.182E-03    0.29       3.7  T
   7   -390.4183874 -0.687009E-06  0.946E-04    0.29       7.2  T
   8   -390.4183876 -0.194394E-06  0.321E-04    0.29      21.1  T
     SCC iter.                  ...        0 min,  2.027 sec
     gradient                   ...        0 min,  0.208 sec
 * total energy  :  -384.9289246 Eh     change       -0.8176555E-03 Eh
   gradient norm :     0.0108756 Eh/α   predicted    -0.6940857E-03 ( -15.11%)
   displ. norm   :     0.6859037 α      lambda       -0.1006275E-02
   maximum displ.:     0.2555845 α      in ANC's #21, #19, #18, ...

........................................................................
.............................. CYCLE   28 ..............................
........................................................................
   1   -390.4213444 -0.390421E+03  0.750E-02    0.29       0.0  T
   2   -390.4213523 -0.793088E-05  0.373E-02    0.29       1.0  T
   3   -390.4211468  0.205487E-03  0.320E-02    0.29       1.0  T
   4   -390.4213598 -0.212919E-03  0.845E-03    0.29       1.0  T
   5   -390.4213652 -0.547611E-05  0.538E-03    0.29       1.3  T
   6   -390.4213691 -0.388579E-05  0.274E-03    0.29       2.5  T
   7   -390.4213709 -0.177660E-05  0.782E-04    0.29       8.7  T
   8   -390.4213710 -0.104751E-06  0.316E-04    0.29      21.4  T
   9   -390.4213710 -0.112569E-07  0.155E-04    0.29      43.6  T
     SCC iter.                  ...        0 min,  1.754 sec
     gradient                   ...        0 min,  0.231 sec
 * total energy  :  -384.9298026 Eh     change       -0.8780403E-03 Eh
   gradient norm :     0.0092891 Eh/α   predicted    -0.7398649E-03 ( -15.74%)
   displ. norm   :     0.7338621 α      lambda       -0.1059772E-02
   maximum displ.:     0.2874732 α      in ANC's #21, #19, #18, ...

........................................................................
.............................. CYCLE   29 ..............................
........................................................................
   1   -390.4239146 -0.390424E+03  0.784E-02    0.30       0.0  T
   2   -390.4239170 -0.248728E-05  0.399E-02    0.30       1.0  T
   3   -390.4235853  0.331775E-03  0.407E-02    0.29       1.0  T
   4   -390.4239324 -0.347126E-03  0.944E-03    0.29       1.0  T
   5   -390.4239419 -0.948165E-05  0.571E-03    0.30       1.2  T
   6   -390.4239455 -0.365396E-05  0.303E-03    0.30       2.2  T
   7   -390.4239476 -0.208273E-05  0.889E-04    0.30       7.6  T
   8   -390.4239478 -0.142484E-06  0.327E-04    0.30      20.7  T
   9   -390.4239478 -0.113978E-07  0.155E-04    0.30      43.7  T
     SCC iter.                  ...        0 min,  2.117 sec
     gradient                   ...        0 min,  0.197 sec
 * total energy  :  -384.9307187 Eh     change       -0.9160882E-03 Eh
   gradient norm :     0.0081047 Eh/α   predicted    -0.8152582E-03 ( -11.01%)
   displ. norm   :     0.7977694 α      lambda       -0.1007133E-02
   maximum displ.:     0.3184642 α      in ANC's #21, #19, #18, ...

........................................................................
.............................. CYCLE   30 ..............................
........................................................................
   1   -390.4217666 -0.390422E+03  0.850E-02    0.30       0.0  T
   2   -390.4217680 -0.145089E-05  0.427E-02    0.31       1.0  T
   3   -390.4213454  0.422599E-03  0.450E-02    0.30       1.0  T
   4   -390.4217915 -0.446095E-03  0.916E-03    0.30       1.0  T
   5   -390.4217968 -0.525942E-05  0.607E-03    0.30       1.1  T
   6   -390.4218012 -0.443054E-05  0.330E-03    0.30       2.1  T
   7   -390.4218038 -0.253305E-05  0.801E-04    0.30       8.5  T
   8   -390.4218039 -0.116630E-06  0.305E-04    0.30      22.2  T
   9   -390.4218039 -0.954105E-08  0.156E-04    0.30      43.3  T
     SCC iter.                  ...        0 min,  1.583 sec
     gradient                   ...        0 min,  0.204 sec
 * total energy  :  -384.9316110 Eh     change       -0.8923134E-03 Eh
   gradient norm :     0.0086246 Eh/α   predicted    -0.8240550E-03 (  -7.65%)
   displ. norm   :     0.7692874 α      lambda       -0.1105583E-02
   maximum displ.:     0.3258624 α      in ANC's #21, #19, #18, ...

........................................................................
.............................. CYCLE   31 ..............................
........................................................................
   1   -390.4352431 -0.390435E+03  0.808E-02    0.30       0.0  T
   2   -390.4352371  0.602164E-05  0.424E-02    0.31       1.0  T
   3   -390.4347036  0.533496E-03  0.502E-02    0.30       1.0  T
   4   -390.4352661 -0.562562E-03  0.100E-02    0.31       1.0  T
   5   -390.4352792 -0.131021E-04  0.523E-03    0.31       1.3  T
   6   -390.4352824 -0.312810E-05  0.204E-03    0.31       3.3  T
   7   -390.4352829 -0.526930E-06  0.107E-03    0.31       6.3  T
   8   -390.4352831 -0.224692E-06  0.462E-04    0.31      14.7  T
   9   -390.4352831 -0.333914E-07  0.209E-04    0.31      32.4  T
     SCC iter.                  ...        0 min,  2.318 sec
     gradient                   ...        0 min,  0.253 sec
 * total energy  :  -384.9323264 Eh     change       -0.7153606E-03 Eh
   gradient norm :     0.0132845 Eh/α   predicted    -0.8799365E-03 (  23.01%)
   displ. norm   :     0.7746723 α      lambda       -0.1239254E-02
   maximum displ.:     0.3033055 α      in ANC's #21, #19, #18, ...

........................................................................
.............................. CYCLE   32 ..............................
........................................................................
   1   -390.4210164 -0.390421E+03  0.854E-02    0.31       0.0  T
   2   -390.4210404 -0.240359E-04  0.420E-02    0.32       1.0  T
   3   -390.4209667  0.737583E-04  0.210E-02    0.31       1.0  T
   4   -390.4210337 -0.669681E-04  0.104E-02    0.32       1.0  T
   5   -390.4210451 -0.114188E-04  0.574E-03    0.32       1.2  T
   6   -390.4210494 -0.428733E-05  0.277E-03    0.31       2.4  T
   7   -390.4210508 -0.143830E-05  0.119E-03    0.32       5.7  T
   8   -390.4210511 -0.317746E-06  0.380E-04    0.32      17.8  T
   9   -390.4210511 -0.181878E-07  0.196E-04    0.32      34.5  T
     SCC iter.                  ...        0 min,  1.688 sec
     gradient                   ...        0 min,  0.243 sec
 * total energy  :  -384.9332455 Eh     change       -0.9191259E-03 Eh
   gradient norm :     0.0099616 Eh/α   predicted    -0.9914817E-03 (   7.87%)
   displ. norm   :     0.7614520 α      lambda       -0.8291908E-03
   maximum displ.:     0.3178485 α      in ANC's #21, #19, #18, ...

........................................................................
.............................. CYCLE   33 ..............................
........................................................................
   1   -390.4168436 -0.390417E+03  0.760E-02    0.31       0.0  T
   2   -390.4168604 -0.167895E-04  0.370E-02    0.32       1.0  T
   3   -390.4168222  0.382215E-04  0.154E-02    0.32       1.0  T
   4   -390.4168586 -0.364274E-04  0.783E-03    0.32       1.0  T
   5   -390.4168639 -0.527667E-05  0.457E-03    0.32       1.5  T
   6   -390.4168667 -0.281047E-05  0.209E-03    0.32       3.2  T
   7   -390.4168675 -0.838128E-06  0.882E-04    0.32       7.7  T
   8   -390.4168677 -0.184641E-06  0.259E-04    0.32      26.1  T
     SCC iter.                  ...        0 min,  1.482 sec
     gradient                   ...        0 min,  0.275 sec
 * total energy  :  -384.9339762 Eh     change       -0.7306714E-03 Eh
   gradient norm :     0.0110104 Eh/α   predicted    -0.6549831E-03 ( -10.36%)
   displ. norm   :     0.6512722 α      lambda       -0.1119775E-02
   maximum displ.:     0.2687656 α      in ANC's #21, #49, #19, ...

........................................................................
.............................. CYCLE   34 ..............................
........................................................................
   1   -390.4267640 -0.390427E+03  0.650E-02    0.32       0.0  T
   2   -390.4267515  0.124706E-04  0.353E-02    0.32       1.0  T
   3   -390.4263537  0.397827E-03  0.440E-02    0.32       1.0  T
   4   -390.4267754 -0.421708E-03  0.923E-03    0.32       1.0  T
   5   -390.4267891 -0.136663E-04  0.481E-03    0.32       1.4  T
   6   -390.4267913 -0.224674E-05  0.215E-03    0.32       3.2  T
   7   -390.4267921 -0.761367E-06  0.101E-03    0.32       6.7  T
   8   -390.4267923 -0.225391E-06  0.309E-04    0.32      21.9  T
   9   -390.4267923 -0.962922E-08  0.161E-04    0.32      42.0  T
     SCC iter.                  ...        0 min,  2.294 sec
     gradient                   ...        0 min,  0.205 sec
 * total energy  :  -384.9347980 Eh     change       -0.8217998E-03 Eh
   gradient norm :     0.0088217 Eh/α   predicted    -0.7973703E-03 (  -2.97%)
   displ. norm   :     0.7933784 α      lambda       -0.9537206E-03
   maximum displ.:     0.3320644 α      in ANC's #21, #18, #19, ...

........................................................................
.............................. CYCLE   35 ..............................
........................................................................
   1   -390.4248844 -0.390425E+03  0.803E-02    0.32       0.0  T
   2   -390.4249032 -0.187410E-04  0.395E-02    0.33       1.0  T
   3   -390.4248656  0.375700E-04  0.156E-02    0.33       1.0  T
   4   -390.4248930 -0.274028E-04  0.964E-03    0.33       1.0  T
   5   -390.4249043 -0.113280E-04  0.528E-03    0.33       1.3  T
   6   -390.4249096 -0.523988E-05  0.155E-03    0.33       4.4  T
   7   -390.4249100 -0.438829E-06  0.625E-04    0.33      10.8  T
   8   -390.4249101 -0.614905E-07  0.347E-04    0.33      19.5  T
     SCC iter.                  ...        0 min,  1.187 sec
     gradient                   ...        0 min,  0.269 sec
 * total energy  :  -384.9355718 Eh     change       -0.7738979E-03 Eh
   gradient norm :     0.0107615 Eh/α   predicted    -0.7770330E-03 (   0.41%)
   displ. norm   :     0.7465586 α      lambda       -0.9777106E-03
   maximum displ.:     0.3046669 α      in ANC's #21, #18, #19, ...

........................................................................
.............................. CYCLE   36 ..............................
........................................................................
   1   -390.4251926 -0.390425E+03  0.748E-02    0.33       0.0  T
   2   -390.4252066 -0.139727E-04  0.372E-02    0.33       1.0  T
   3   -390.4251013  0.105294E-03  0.228E-02    0.33       1.0  T
   4   -390.4252017 -0.100393E-03  0.926E-03    0.33       1.0  T
   5   -390.4252122 -0.104872E-04  0.479E-03    0.33       1.4  T
   6   -390.4252162 -0.400094E-05  0.164E-03    0.33       4.1  T
   7   -390.4252166 -0.443653E-06  0.732E-04    0.33       9.3  T
   8   -390.4252167 -0.923568E-07  0.390E-04    0.33      17.4  T
     SCC iter.                  ...        0 min,  1.520 sec
     gradient                   ...        0 min,  0.226 sec
 * total energy  :  -384.9363180 Eh     change       -0.7461639E-03 Eh
   gradient norm :     0.0111798 Eh/α   predicted    -0.7613212E-03 (   2.03%)
   displ. norm   :     0.6881168 α      lambda       -0.1113910E-02
   maximum displ.:     0.2638934 α      in ANC's #21, #18, #4, ...

........................................................................
.............................. CYCLE   37 ..............................
........................................................................
   1   -390.4308451 -0.390431E+03  0.698E-02    0.33       0.0  T
   2   -390.4308503 -0.517759E-05  0.366E-02    0.33       1.0  T
   3   -390.4305767  0.273528E-03  0.351E-02    0.34       1.0  T
   4   -390.4308568 -0.280119E-03  0.934E-03    0.33       1.0  T
   5   -390.4308668 -0.996534E-05  0.521E-03    0.33       1.3  T
   6   -390.4308709 -0.412274E-05  0.262E-03    0.33       2.6  T
   7   -390.4308721 -0.114404E-05  0.113E-03    0.33       6.0  T
   8   -390.4308723 -0.260800E-06  0.381E-04    0.33      17.8  T
   9   -390.4308724 -0.197896E-07  0.169E-04    0.33      40.0  T
     SCC iter.                  ...        0 min,  1.421 sec
     gradient                   ...        0 min,  0.215 sec
 * total energy  :  -384.9370403 Eh     change       -0.7222772E-03 Eh
   gradient norm :     0.0114272 Eh/α   predicted    -0.8206767E-03 (  13.62%)
   displ. norm   :     0.6995589 α      lambda       -0.9870376E-03
   maximum displ.:     0.2678771 α      in ANC's #21, #18, #4, ...

........................................................................
.............................. CYCLE   38 ..............................
........................................................................
   1   -390.4283735 -0.390428E+03  0.711E-02    0.33       0.0  T
   2   -390.4283800 -0.646364E-05  0.366E-02    0.33       1.0  T
   3   -390.4281771  0.202929E-03  0.300E-02    0.33       1.0  T
   4   -390.4283866 -0.209528E-03  0.835E-03    0.33       1.0  T
   5   -390.4283900 -0.337645E-05  0.587E-03    0.33       1.2  T
   6   -390.4283954 -0.538423E-05  0.291E-03    0.33       2.3  T
   7   -390.4283970 -0.163063E-05  0.904E-04    0.33       7.5  T
   8   -390.4283971 -0.148239E-06  0.299E-04    0.33      22.6  T
   9   -390.4283972 -0.916964E-08  0.151E-04    0.33      45.0  T
     SCC iter.                  ...        0 min,  1.406 sec
     gradient                   ...        0 min,  0.206 sec
 * total energy  :  -384.9377857 Eh     change       -0.7453791E-03 Eh
   gradient norm :     0.0098240 Eh/α   predicted    -0.7350404E-03 (  -1.39%)
   displ. norm   :     0.7323291 α      lambda       -0.9621200E-03
   maximum displ.:     0.2736716 α      in ANC's #21, #18, #4, ...

........................................................................
.............................. CYCLE   39 ..............................
........................................................................
   1   -390.4222032 -0.390422E+03  0.800E-02    0.33       0.0  T
   2   -390.4222218 -0.185510E-04  0.398E-02    0.33       1.0  T
   3   -390.4221767  0.450433E-04  0.169E-02    0.33       1.0  T
   4   -390.4222165 -0.397896E-04  0.887E-03    0.33       1.0  T
   5   -390.4222244 -0.786127E-05  0.498E-03    0.33       1.4  T
   6   -390.4222273 -0.289905E-05  0.269E-03    0.33       2.5  T
   7   -390.4222288 -0.150254E-05  0.108E-03    0.33       6.3  T
   8   -390.4222291 -0.256694E-06  0.331E-04    0.33      20.5  T
   9   -390.4222291 -0.120075E-07  0.183E-04    0.33      37.0  T
     SCC iter.                  ...        0 min,  2.066 sec
     gradient                   ...        0 min,  0.244 sec
 * total energy  :  -384.9383478 Eh     change       -0.5621588E-03 Eh
   gradient norm :     0.0142663 Eh/α   predicted    -0.7390589E-03 (  31.47%)
   displ. norm   :     0.5693593 α      lambda       -0.1014712E-02
   maximum displ.:     0.1687105 α      in ANC's #21, #4, #3, ...

........................................................................
.............................. CYCLE   40 ..............................
........................................................................
   1   -390.4299842 -0.390430E+03  0.599E-02    0.33       0.0  T
   2   -390.4299929 -0.868205E-05  0.316E-02    0.33       1.0  T
   3   -390.4299395  0.533846E-04  0.170E-02    0.34       1.0  T
   4   -390.4299888 -0.493081E-04  0.733E-03    0.33       1.0  T
   5   -390.4299943 -0.549193E-05  0.462E-03    0.33       1.5  T
   6   -390.4299977 -0.336875E-05  0.220E-03    0.33       3.1  T
   7   -390.4299986 -0.942073E-06  0.906E-04    0.33       7.5  T
   8   -390.4299988 -0.164976E-06  0.287E-04    0.33      23.6  T
     SCC iter.                  ...        0 min,  1.762 sec
     gradient                   ...        0 min,  0.176 sec
 * total energy  :  -384.9389626 Eh     change       -0.6147961E-03 Eh
   gradient norm :     0.0129813 Eh/α   predicted    -0.6718281E-03 (   9.28%)
   displ. norm   :     0.6263434 α      lambda       -0.1145109E-02
   maximum displ.:     0.2167042 α      in ANC's #21, #4, #18, ...

........................................................................
.............................. CYCLE   41 ..............................
........................................................................
   1   -390.4291177 -0.390429E+03  0.612E-02    0.34       0.0  T
   2   -390.4291244 -0.672426E-05  0.325E-02    0.33       1.0  T
   3   -390.4289026  0.221870E-03  0.321E-02    0.33       1.0  T
   4   -390.4291303 -0.227719E-03  0.845E-03    0.33       1.0  T
   5   -390.4291385 -0.820787E-05  0.481E-03    0.33       1.4  T
   6   -390.4291411 -0.266241E-05  0.260E-03    0.33       2.6  T
   7   -390.4291422 -0.106650E-05  0.124E-03    0.33       5.5  T
   8   -390.4291425 -0.324634E-06  0.327E-04    0.33      20.7  T
   9   -390.4291425 -0.645684E-08  0.193E-04    0.33      35.0  T
     SCC iter.                  ...        0 min,  1.356 sec
     gradient                   ...        0 min,  0.176 sec
 * total energy  :  -384.9394441 Eh     change       -0.4815014E-03 Eh
   gradient norm :     0.0156384 Eh/α   predicted    -0.7971756E-03 (  65.56%)
   displ. norm   :     0.5063138 α      lambda       -0.1016758E-02
   maximum displ.:     0.1462675 α      in ANC's #4, #21, #3, ...

........................................................................
.............................. CYCLE   42 ..............................
........................................................................
   1   -390.4349039 -0.390435E+03  0.543E-02    0.33       0.0  T
   2   -390.4349143 -0.104278E-04  0.278E-02    0.33       1.0  T
   3   -390.4348882  0.261723E-04  0.130E-02    0.33       1.0  T
   4   -390.4349108 -0.226416E-04  0.664E-03    0.33       1.0  T
   5   -390.4349155 -0.463640E-05  0.368E-03    0.33       1.8  T
   6   -390.4349172 -0.179696E-05  0.198E-03    0.33       3.4  T
   7   -390.4349179 -0.695299E-06  0.102E-03    0.33       6.7  T
   8   -390.4349182 -0.236885E-06  0.249E-04    0.33      27.2  T
   9   -390.4349182 -0.529297E-08  0.140E-04    0.33      48.4  T
     SCC iter.                  ...        0 min,  1.326 sec
     gradient                   ...        0 min,  0.176 sec
 * total energy  :  -384.9401210 Eh     change       -0.6769237E-03 Eh
   gradient norm :     0.0095882 Eh/α   predicted    -0.6387075E-03 (  -5.65%)
   displ. norm   :     0.7276723 α      lambda       -0.9961767E-03
   maximum displ.:     0.2607220 α      in ANC's #21, #18, #4, ...
 * RMSD in coord.:     0.8927871 α      energy gain  -0.1663202E-01 Eh

generating ANC from model Hessian ...
Using Lindh-Hessian (1995)
 Shifting diagonal of input Hessian by   1.004686217919362E-002
 Lowest  eigenvalues of input Hessian
    0.010000    0.010042    0.000000    0.000000    0.000000    0.000000
    0.000000    0.000000    0.010047    0.010060    0.010070    0.010085
    0.010095    0.010103    0.010112    0.010116    0.010121    0.010132
 Highest eigenvalues
    2.109311    2.110169    2.112117    2.115536    2.152964    2.178182
 

........................................................................
.............................. CYCLE   43 ..............................
........................................................................
   1   -390.4187797 -0.390419E+03  0.801E-02    0.33       0.0  T
   2   -390.4187909 -0.111497E-04  0.401E-02    0.34       1.0  T
   3   -390.4185829  0.207968E-03  0.323E-02    0.33       1.0  T
   4   -390.4187991 -0.216160E-03  0.884E-03    0.33       1.0  T
   5   -390.4188021 -0.302888E-05  0.613E-03    0.34       1.1  T
   6   -390.4188071 -0.500949E-05  0.339E-03    0.34       2.0  T
   7   -390.4188096 -0.250725E-05  0.956E-04    0.33       7.1  T
   8   -390.4188098 -0.191165E-06  0.325E-04    0.34      20.9  T
   9   -390.4188098 -0.102292E-07  0.177E-04    0.33      38.2  T
     SCC iter.                  ...        0 min,  1.339 sec
     gradient                   ...        0 min,  0.176 sec
 * total energy  :  -384.9404743 Eh     change       -0.3532639E-03 Eh
   gradient norm :     0.0170176 Eh/α   predicted     0.0000000E+00 (-100.00%)
   displ. norm   :     0.1269316 α      lambda       -0.8649061E-03
   maximum displ.:     0.0342091 α      in ANC's #35, #36, #49, ...

........................................................................
.............................. CYCLE   44 ..............................
........................................................................
   1   -390.4319453 -0.390432E+03  0.252E-02    0.34       0.0  T
   2   -390.4319486 -0.328687E-05  0.138E-02    0.33       1.0  T
   3   -390.4319360  0.125890E-04  0.805E-03    0.33       1.0  T
   4   -390.4319465 -0.105056E-04  0.396E-03    0.33       1.7  T
   5   -390.4319494 -0.295108E-05  0.164E-03    0.33       4.1  T
   6   -390.4319498 -0.331811E-06  0.958E-04    0.33       7.1  T
   7   -390.4319499 -0.100063E-06  0.504E-04    0.33      13.4  T
     SCC iter.                  ...        0 min,  1.042 sec
     gradient                   ...        0 min,  0.176 sec
 * total energy  :  -384.9410474 Eh     change       -0.5731012E-03 Eh
   gradient norm :     0.0048864 Eh/α   predicted    -0.4394222E-03 ( -23.33%)
   displ. norm   :     0.1920638 α      lambda       -0.3516194E-03
   maximum displ.:     0.0586157 α      in ANC's #35, #36, #49, ...

........................................................................
.............................. CYCLE   45 ..............................
........................................................................
   1   -390.4381957 -0.390438E+03  0.257E-02    0.33       0.0  T
   2   -390.4381970 -0.121089E-05  0.140E-02    0.33       1.0  T
   3   -390.4381694  0.275228E-04  0.112E-02    0.33       1.0  T
   4   -390.4381964 -0.269733E-04  0.375E-03    0.33       1.8  T
   5   -390.4381983 -0.193194E-05  0.183E-03    0.33       3.7  T
   6   -390.4381988 -0.489114E-06  0.749E-04    0.33       9.0  T
   7   -390.4381989 -0.754527E-07  0.424E-04    0.33      16.0  T
     SCC iter.                  ...        0 min,  1.045 sec
     gradient                   ...        0 min,  0.176 sec
 * total energy  :  -384.9413163 Eh     change       -0.2688899E-03 Eh
   gradient norm :     0.0039102 Eh/α   predicted    -0.1823217E-03 ( -32.19%)
   displ. norm   :     0.4010197 α      lambda       -0.4880342E-03
   maximum displ.:     0.1252066 α      in ANC's #35, #36, #49, ...

........................................................................
.............................. CYCLE   46 ..............................
........................................................................
   1   -390.4416060 -0.390442E+03  0.490E-02    0.33       0.0  T
   2   -390.4416107 -0.471416E-05  0.261E-02    0.33       1.0  T
   3   -390.4415677  0.430630E-04  0.145E-02    0.33       1.0  T
   4   -390.4416061 -0.384897E-04  0.680E-03    0.33       1.0  T
   5   -390.4416121 -0.597388E-05  0.354E-03    0.33       1.9  T
   6   -390.4416145 -0.236607E-05  0.955E-04    0.33       7.1  T
   7   -390.4416146 -0.145152E-06  0.310E-04    0.33      21.9  T
   8   -390.4416146 -0.861723E-08  0.170E-04    0.33      39.9  T
     SCC iter.                  ...        0 min,  0.988 sec
     gradient                   ...        0 min,  0.231 sec
 * total energy  :  -384.9417284 Eh     change       -0.4121251E-03 Eh
   gradient norm :     0.0085772 Eh/α   predicted    -0.2832606E-03 ( -31.27%)
   displ. norm   :     0.6795416 α      lambda       -0.7507657E-03
   maximum displ.:     0.2133237 α      in ANC's #36, #35, #49, ...

........................................................................
.............................. CYCLE   47 ..............................
........................................................................
   1   -390.4381990 -0.390438E+03  0.805E-02    0.33       0.0  T
   2   -390.4382104 -0.114128E-04  0.425E-02    0.33       1.0  T
   3   -390.4380777  0.132709E-03  0.253E-02    0.32       1.0  T
   4   -390.4382006 -0.122864E-03  0.109E-02    0.33       1.0  T
   5   -390.4382149 -0.142782E-04  0.577E-03    0.33       1.2  T
   6   -390.4382210 -0.610483E-05  0.163E-03    0.33       4.2  T
   7   -390.4382214 -0.426621E-06  0.723E-04    0.33       9.4  T
   8   -390.4382215 -0.821464E-07  0.390E-04    0.33      17.4  T
     SCC iter.                  ...        0 min,  0.993 sec
     gradient                   ...        0 min,  0.223 sec
 * total energy  :  -384.9423665 Eh     change       -0.6380993E-03 Eh
   gradient norm :     0.0105338 Eh/α   predicted    -0.5487335E-03 ( -14.00%)
   displ. norm   :     0.6957248 α      lambda       -0.7333308E-03
   maximum displ.:     0.2203995 α      in ANC's #36, #35, #49, ...

........................................................................
.............................. CYCLE   48 ..............................
........................................................................
   1   -390.4309282 -0.390431E+03  0.792E-02    0.33       0.0  T
   2   -390.4309426 -0.143711E-04  0.408E-02    0.33       1.0  T
   3   -390.4308965  0.460668E-04  0.165E-02    0.32       1.0  T
   4   -390.4309297 -0.331657E-04  0.104E-02    0.33       1.0  T
   5   -390.4309417 -0.119940E-04  0.582E-03    0.33       1.2  T
   6   -390.4309487 -0.704510E-05  0.149E-03    0.33       4.5  T
   7   -390.4309491 -0.399457E-06  0.463E-04    0.33      14.6  T
   8   -390.4309491 -0.218471E-07  0.236E-04    0.33      28.7  T
     SCC iter.                  ...        0 min,  0.971 sec
     gradient                   ...        0 min,  0.219 sec
 * total energy  :  -384.9429257 Eh     change       -0.5592148E-03 Eh
   gradient norm :     0.0109830 Eh/α   predicted    -0.5441446E-03 (  -2.69%)
   displ. norm   :     0.4927898 α      lambda       -0.6162301E-03
   maximum displ.:     0.1433484 α      in ANC's #36, #35, #4, ...

........................................................................
.............................. CYCLE   49 ..............................
........................................................................
   1   -390.4299015 -0.390430E+03  0.518E-02    0.32       0.0  T
   2   -390.4299080 -0.652773E-05  0.261E-02    0.32       1.0  T
   3   -390.4298989  0.907592E-05  0.830E-03    0.32       1.0  T
   4   -390.4299041 -0.520672E-05  0.593E-03    0.32       1.1  T
   5   -390.4299078 -0.363740E-05  0.347E-03    0.32       2.0  T
   6   -390.4299099 -0.209151E-05  0.130E-03    0.32       5.2  T
   7   -390.4299102 -0.354563E-06  0.570E-04    0.32      11.9  T
   8   -390.4299103 -0.711765E-07  0.206E-04    0.32      32.8  T
     SCC iter.                  ...        0 min,  0.961 sec
     gradient                   ...        0 min,  0.226 sec
 * total energy  :  -384.9434020 Eh     change       -0.4762994E-03 Eh
   gradient norm :     0.0092740 Eh/α   predicted    -0.3829660E-03 ( -19.60%)
   displ. norm   :     0.5545743 α      lambda       -0.6259730E-03
   maximum displ.:     0.1682276 α      in ANC's #4, #17, #36, ...

........................................................................
.............................. CYCLE   50 ..............................
........................................................................
   1   -390.4319276 -0.390432E+03  0.529E-02    0.32       0.0  T
   2   -390.4319338 -0.627746E-05  0.268E-02    0.32       1.0  T
   3   -390.4319203  0.135062E-04  0.927E-03    0.32       1.0  T
   4   -390.4319287 -0.834839E-05  0.641E-03    0.32       1.1  T
   5   -390.4319328 -0.409383E-05  0.403E-03    0.32       1.7  T
   6   -390.4319361 -0.331165E-05  0.122E-03    0.32       5.6  T
   7   -390.4319364 -0.294161E-06  0.501E-04    0.32      13.5  T
   8   -390.4319364 -0.466935E-07  0.216E-04    0.32      31.4  T
     SCC iter.                  ...        0 min,  0.959 sec
     gradient                   ...        0 min,  0.218 sec
 * total energy  :  -384.9439424 Eh     change       -0.5403873E-03 Eh
   gradient norm :     0.0091580 Eh/α   predicted    -0.4092525E-03 ( -24.27%)
   displ. norm   :     0.6817368 α      lambda       -0.7935620E-03
   maximum displ.:     0.2147757 α      in ANC's #4, #17, #14, ...

........................................................................
.............................. CYCLE   51 ..............................
........................................................................
   1   -390.4366093 -0.390437E+03  0.618E-02    0.32       0.0  T
   2   -390.4366171 -0.778389E-05  0.316E-02    0.32       1.0  T
   3   -390.4365811  0.359569E-04  0.137E-02    0.32       1.0  T
   4   -390.4366109 -0.297714E-04  0.775E-03    0.32       1.0  T
   5   -390.4366166 -0.572879E-05  0.472E-03    0.32       1.4  T
   6   -390.4366210 -0.438394E-05  0.149E-03    0.32       4.5  T
   7   -390.4366214 -0.430075E-06  0.601E-04    0.32      11.3  T
   8   -390.4366215 -0.666815E-07  0.253E-04    0.32      26.7  T
     SCC iter.                  ...        0 min,  0.999 sec
     gradient                   ...        0 min,  0.232 sec
 * total energy  :  -384.9446309 Eh     change       -0.6884240E-03 Eh
   gradient norm :     0.0081063 Eh/α   predicted    -0.5811954E-03 ( -15.58%)
   displ. norm   :     0.7984288 α      lambda       -0.8061918E-03
   maximum displ.:     0.2523457 α      in ANC's #4, #17, #14, ...

........................................................................
.............................. CYCLE   52 ..............................
........................................................................
   1   -390.4358890 -0.390436E+03  0.729E-02    0.32       0.0  T
   2   -390.4359003 -0.112593E-04  0.370E-02    0.32       1.0  T
   3   -390.4358567  0.435890E-04  0.152E-02    0.32       1.0  T
   4   -390.4358894 -0.326613E-04  0.950E-03    0.32       1.0  T
   5   -390.4359013 -0.118948E-04  0.466E-03    0.32       1.5  T
   6   -390.4359054 -0.410284E-05  0.125E-03    0.32       5.4  T
   7   -390.4359056 -0.267467E-06  0.556E-04    0.32      12.2  T
   8   -390.4359057 -0.451882E-07  0.299E-04    0.32      22.7  T
     SCC iter.                  ...        0 min,  0.966 sec
     gradient                   ...        0 min,  0.228 sec
 * total energy  :  -384.9453443 Eh     change       -0.7134548E-03 Eh
   gradient norm :     0.0084106 Eh/α   predicted    -0.6600712E-03 (  -7.48%)
   displ. norm   :     0.7306899 α      lambda       -0.9716551E-03
   maximum displ.:     0.2453997 α      in ANC's #4, #17, #14, ...

........................................................................
.............................. CYCLE   53 ..............................
........................................................................
   1   -390.4528274 -0.390453E+03  0.725E-02    0.32       0.0  T
   2   -390.4528324 -0.493824E-05  0.388E-02    0.32       1.0  T
   3   -390.4525280  0.304381E-03  0.368E-02    0.32       1.0  T
   4   -390.4528387 -0.310704E-03  0.963E-03    0.32       1.0  T
   5   -390.4528497 -0.110111E-04  0.504E-03    0.32       1.3  T
   6   -390.4528534 -0.371388E-05  0.155E-03    0.32       4.4  T
   7   -390.4528537 -0.305376E-06  0.587E-04    0.32      11.5  T
   8   -390.4528538 -0.483391E-07  0.276E-04    0.32      24.6  T
     SCC iter.                  ...        0 min,  0.963 sec
     gradient                   ...        0 min,  0.227 sec
 * total energy  :  -384.9457783 Eh     change       -0.4340253E-03 Eh
   gradient norm :     0.0140650 Eh/α   predicted    -0.7452162E-03 (  71.70%)
   displ. norm   :     0.6863231 α      lambda       -0.1023098E-02
   maximum displ.:     0.2101637 α      in ANC's #4, #17, #36, ...

........................................................................
.............................. CYCLE   54 ..............................
........................................................................
   1   -390.4375296 -0.390438E+03  0.707E-02    0.32       0.0  T
   2   -390.4375439 -0.143779E-04  0.355E-02    0.32       1.0  T
   3   -390.4374771  0.668058E-04  0.188E-02    0.31       1.0  T
   4   -390.4375362 -0.590203E-04  0.927E-03    0.32       1.0  T
   5   -390.4375479 -0.116936E-04  0.406E-03    0.32       1.7  T
   6   -390.4375497 -0.187390E-05  0.198E-03    0.32       3.4  T
   7   -390.4375505 -0.747250E-06  0.905E-04    0.32       7.5  T
   8   -390.4375506 -0.170155E-06  0.323E-04    0.32      21.0  T
     SCC iter.                  ...        0 min,  0.964 sec
     gradient                   ...        0 min,  0.234 sec
 * total energy  :  -384.9464970 Eh     change       -0.7186517E-03 Eh
   gradient norm :     0.0084370 Eh/α   predicted    -0.7525483E-03 (   4.72%)
   displ. norm   :     0.7291344 α      lambda       -0.5927324E-03
   maximum displ.:     0.2492114 α      in ANC's #4, #17, #14, ...

........................................................................
.............................. CYCLE   55 ..............................
........................................................................
   1   -390.4318591 -0.390432E+03  0.636E-02    0.32       0.0  T
[...]
   175   1 H    0.996 --    69 C    0.973
   176   1 H    0.997 --    69 C    0.970
   177   1 H    0.998 --    70 C    0.985
   178   1 H    0.998 --    70 C    0.986
   179   1 H    0.998 --    70 C    0.978
   180   1 H    0.997 --    72 C    0.961
   181   1 H    0.997 --    76 C    0.955
   182   1 H    0.997 --    80 C    0.958
   183   1 H    0.997 --    84 C    0.966
   184   1 H    0.996 --    85 C    0.966
   185   1 H    0.996 --    88 C    0.973
   186   1 H    0.997 --    88 C    0.970
   187   1 H    0.998 --    89 C    0.978
   188   1 H    0.998 --    89 C    0.986
   189   1 H    0.998 --    89 C    0.985
   190   1 H    0.996 --    92 C    0.962
   191   1 H    0.997 --    97 C    0.966
   192   1 H    0.995 --    98 C    0.965
   193   1 H    0.996 --   101 C    0.977
   194   1 H    0.997 --   101 C    0.974
   195   1 H    0.998 --   102 C    0.983
   196   1 H    0.998 --   102 C    0.986
   197   1 H    0.996 --   102 C    0.976
   198   1 H    0.996 --   104 C    0.961
   199   1 H    0.997 --   108 C    0.957
   200   1 H    0.997 --   112 C    0.957
   201   1 H    0.997 --   116 C    0.966
   202   1 H    0.996 --   117 C    0.966
   203   1 H    0.997 --   120 C    0.977
   204   1 H    0.996 --   120 C    0.976
   205   1 H    0.997 --   121 C    0.979
   206   1 H    0.998 --   121 C    0.986
   207   1 H    0.997 --   121 C    0.986
   208   1 H    0.996 --   124 C    0.962
   209   1 H    0.997 --   129 C    0.965
   210   1 H    0.996 --   130 C    0.966
   211   1 H    0.997 --   133 C    0.977
   212   1 H    0.996 --   133 C    0.975
   213   1 H    0.998 --   134 C    0.985
   214   1 H    0.997 --   134 C    0.986
   215   1 H    0.997 --   134 C    0.979
   216   1 H    0.996 --   136 C    0.963
   217   1 H    0.998 --   140 C    0.960
   218   1 H    0.997 --   141 C    0.969
 ---------------------------------------------------------------------------

Topologies differ in bond orders
Writing corrected topology to xtbtopo.mol

molecular dipole:
                 x           y           z       tot (Debye)
 q only:        1.666      -0.275      -0.424
   full:        1.637      -0.788       0.467       4.767
molecular quadrupole (traceless):
                xx          xy          yy          xz          yz          zz
 q only:       29.943     -33.735     -41.722      24.313     -15.818      11.779
  q+dip:       62.426     -43.153     -62.642      24.639     -28.107       0.216
   full:       57.169     -47.932     -56.656      23.644     -27.178      -0.513

           -------------------------------------------------
          |                Geometry Summary                 |
           -------------------------------------------------

      molecular mass/u    :     2202.9941947
   center of mass at/Å    :       -0.1187905      -0.2821734      -0.1780467
  moments of inertia/u·Å² :        0.6653840E+05   0.1258920E+06   0.1633049E+06
rotational constants/cm⁻¹ :        0.2533519E-03   0.1339055E-03   0.1032279E-03

 * 204 selected distances

     #   Z          #   Z                                           value/Å
     1   6 C        2   6 C                                       1.3484929
     2   6 C        3   6 C                                       1.4259389
     3   6 C        4   6 C                                       1.4006997
     5   6 C        6   6 C                                       1.3917668
     6   6 C        7   6 C                                       1.3804392
     7   6 C        8   6 C                                       1.3902773
    10   6 C       11   6 C                                       1.5163640
     8   6 C       12   6 C                                       1.3942764
     5   6 C       14   6 C                                       1.3920734
    12   6 C       14   6 C                                       1.3777029
     4   6 C       15   6 C                                       1.3859034
    15   6 C       16   6 C                                       1.4164437
    16   6 C       17   6 C                                       1.4065353
    18   6 C       19   6 C                                       1.3950661
    19   6 C       20   6 C                                       1.3770347
    20   6 C       21   6 C                                       1.3935824
    23   6 C       24   6 C                                       1.5156362
    21   6 C       25   6 C                                       1.3924265
    18   6 C       26   6 C                                       1.3921174
    25   6 C       26   6 C                                       1.3800666
     3   6 C       28   6 C                                       1.4172764
    17   6 C       28   6 C                                       1.3883999
     1   6 C       29  16 S                                       1.7297868
    28   6 C       29  16 S                                       1.7457614
    16   6 C       30   6 C                                       1.4158907
    30   6 C       31   6 C                                       1.3679578
    15   6 C       32  16 S                                       1.7409589
    31   6 C       32  16 S                                       1.7440381
    31   6 C       33   6 C                                       1.4257786
    34   6 C       35   7 N                                       1.3128319
    35   7 N       36   6 C                                       1.3604678
    36   6 C       37   6 C                                       1.3639590
    37   6 C       38  16 S                                       1.7720023 (max)
    33   6 C       39   6 C                                       1.3482699
    36   6 C       39   6 C                                       1.4415270
    34   6 C       40   6 C                                       1.4291506
    41   6 C       42   7 N                                       1.2896784
    42   7 N       43   6 C                                       1.3758423
    43   6 C       44   6 C                                       1.3525495
    40   6 C       46   6 C                                       1.3468334
    43   6 C       46   6 C                                       1.4559038
    41   6 C       47   6 C                                       1.4414188
    47   6 C       48   6 C                                       1.3576281
    48   6 C       49   6 C                                       1.4247735
    49   6 C       50   6 C                                       1.4079441
    51   6 C       52   6 C                                       1.3967117
    52   6 C       53   6 C                                       1.3762244
    53   6 C       54   6 C                                       1.3964912
    56   6 C       57   6 C                                       1.5160211
    54   6 C       58   6 C                                       1.3914479
    51   6 C       60   6 C                                       1.3898406
    58   6 C       60   6 C                                       1.3806399
    50   6 C       61   6 C                                       1.3896224
    61   6 C       62   6 C                                       1.4157038
    62   6 C       63   6 C                                       1.4026086
    64   6 C       65   6 C                                       1.3940415
    65   6 C       66   6 C                                       1.3782043
    66   6 C       67   6 C                                       1.3941129
    69   6 C       70   6 C                                       1.5153062
    67   6 C       71   6 C                                       1.3913188
    64   6 C       72   6 C                                       1.3902011
    71   6 C       72   6 C                                       1.3797458
    49   6 C       74   6 C                                       1.4154910
    63   6 C       74   6 C                                       1.3826069
    47   6 C       75  16 S                                       1.7511466
    74   6 C       75  16 S                                       1.7419312
    62   6 C       76   6 C                                       1.4158718
    76   6 C       77   6 C                                       1.3620991
    61   6 C       78  16 S                                       1.7552081
    77   6 C       78  16 S                                       1.7587021
    77   6 C       79   6 C                                       1.4347426
    79   6 C       80   6 C                                       1.3592039
    80   6 C       81   6 C                                       1.4264955
    81   6 C       82   6 C                                       1.4052107
    83   6 C       84   6 C                                       1.3939666
    84   6 C       85   6 C                                       1.3780320
    85   6 C       86   6 C                                       1.3942030
    88   6 C       89   6 C                                       1.5153270
    86   6 C       90   6 C                                       1.3914834
    83   6 C       92   6 C                                       1.3902392
    90   6 C       92   6 C                                       1.3803451
    82   6 C       93   6 C                                       1.3895906
    93   6 C       94   6 C                                       1.4182083
    94   6 C       95   6 C                                       1.3991797
    96   6 C       97   6 C                                       1.3937792
    97   6 C       98   6 C                                       1.3797270
    98   6 C       99   6 C                                       1.3926686
   101   6 C      102   6 C                                       1.5151145
    99   6 C      103   6 C                                       1.3917020
    96   6 C      104   6 C                                       1.3920611
   103   6 C      104   6 C                                       1.3787636
    81   6 C      106   6 C                                       1.4155860
    95   6 C      106   6 C                                       1.3861177
    79   6 C      107  16 S                                       1.7623467
   106   6 C      107  16 S                                       1.7349754
    94   6 C      108   6 C                                       1.4169713
   108   6 C      109   6 C                                       1.3603020
    93   6 C      110  16 S                                       1.7469121
   109   6 C      110  16 S                                       1.7535098
   109   6 C      111   6 C                                       1.4308135
   111   6 C      112   6 C                                       1.3595066
   112   6 C      113   6 C                                       1.4215025
   113   6 C      114   6 C                                       1.4033576
   115   6 C      116   6 C                                       1.3947097
   116   6 C      117   6 C                                       1.3772718
   117   6 C      118   6 C                                       1.3955676
   120   6 C      121   6 C                                       1.5160549
   118   6 C      122   6 C                                       1.3916387
   115   6 C      124   6 C                                       1.3902116
   122   6 C      124   6 C                                       1.3802410
   114   6 C      125   6 C                                       1.3885918
   125   6 C      126   6 C                                       1.4161764
   126   6 C      127   6 C                                       1.4016921
   128   6 C      129   6 C                                       1.3949582
   129   6 C      130   6 C                                       1.3760860
   130   6 C      131   6 C                                       1.3956896
   133   6 C      134   6 C                                       1.5162693
   131   6 C      135   6 C                                       1.3913688
   128   6 C      136   6 C                                       1.3897086
   135   6 C      136   6 C                                       1.3814174
   113   6 C      138   6 C                                       1.4161514
   127   6 C      138   6 C                                       1.3874929
   111   6 C      139  16 S                                       1.7542970
   138   6 C      139  16 S                                       1.7427598
   126   6 C      140   6 C                                       1.4269780
   140   6 C      141   6 C                                       1.3479475
   125   6 C      142  16 S                                       1.7453550
   141   6 C      142  16 S                                       1.7301363
     1   6 C      143   1 H                                       1.0725970
     2   6 C      144   1 H                                       1.0749516
     6   6 C      145   1 H                                       1.0796158
     7   6 C      146   1 H                                       1.0783695
    10   6 C      147   1 H                                       1.0891542
    10   6 C      148   1 H                                       1.0898031
    11   6 C      149   1 H                                       1.0890140
    11   6 C      150   1 H                                       1.0880053
    11   6 C      151   1 H                                       1.0885567
    14   6 C      152   1 H                                       1.0787032
    19   6 C      153   1 H                                       1.0782550
    20   6 C      154   1 H                                       1.0784861
    23   6 C      155   1 H                                       1.0878502
    23   6 C      156   1 H                                       1.0894172
    24   6 C      157   1 H                                       1.0882146
    24   6 C      158   1 H                                       1.0877075
    24   6 C      159   1 H                                       1.0870217
    26   6 C      160   1 H                                       1.0788313
    30   6 C      161   1 H                                       1.0756546
    37   6 C      162   1 H                                       1.0714645
    44   6 C      163   1 H                                       1.0714518 (min)
    48   6 C      164   1 H                                       1.0748258
    52   6 C      165   1 H                                       1.0793220
    53   6 C      166   1 H                                       1.0789567
    56   6 C      167   1 H                                       1.0888506
    56   6 C      168   1 H                                       1.0887485
    57   6 C      169   1 H                                       1.0876750
    57   6 C      170   1 H                                       1.0876325
    57   6 C      171   1 H                                       1.0878642
    60   6 C      172   1 H                                       1.0780780
    65   6 C      173   1 H                                       1.0795435
    66   6 C      174   1 H                                       1.0788494
    69   6 C      175   1 H                                       1.0876347
    69   6 C      176   1 H                                       1.0900531
    70   6 C      177   1 H                                       1.0885661
    70   6 C      178   1 H                                       1.0879589
    70   6 C      179   1 H                                       1.0880795
    72   6 C      180   1 H                                       1.0785131
    76   6 C      181   1 H                                       1.0761403
    80   6 C      182   1 H                                       1.0750990
    84   6 C      183   1 H                                       1.0791996
    85   6 C      184   1 H                                       1.0789665
    88   6 C      185   1 H                                       1.0875692
    88   6 C      186   1 H                                       1.0900998
    89   6 C      187   1 H                                       1.0881092
    89   6 C      188   1 H                                       1.0880698
    89   6 C      189   1 H                                       1.0884150
    92   6 C      190   1 H                                       1.0789761
    97   6 C      191   1 H                                       1.0792161
    98   6 C      192   1 H                                       1.0788805
   101   6 C      193   1 H                                       1.0890148
   101   6 C      194   1 H                                       1.0880183
   102   6 C      195   1 H                                       1.0886023
   102   6 C      196   1 H                                       1.0880817
   102   6 C      197   1 H                                       1.0872730
   104   6 C      198   1 H                                       1.0791452
   108   6 C      199   1 H                                       1.0752739
   112   6 C      200   1 H                                       1.0752073
   116   6 C      201   1 H                                       1.0792961
   117   6 C      202   1 H                                       1.0789685
   120   6 C      203   1 H                                       1.0888740
   120   6 C      204   1 H                                       1.0888350
   121   6 C      205   1 H                                       1.0879256
   121   6 C      206   1 H                                       1.0876337
   121   6 C      207   1 H                                       1.0876770
   124   6 C      208   1 H                                       1.0787659
   129   6 C      209   1 H                                       1.0788307
   130   6 C      210   1 H                                       1.0787882
   133   6 C      211   1 H                                       1.0889090
   133   6 C      212   1 H                                       1.0888154
   134   6 C      213   1 H                                       1.0878242
   134   6 C      214   1 H                                       1.0876665
   134   6 C      215   1 H                                       1.0877952
   136   6 C      216   1 H                                       1.0792244
   140   6 C      217   1 H                                       1.0747164
   141   6 C      218   1 H                                       1.0725849

 * 4 distinct bonds (by element types)

   Z      Z             #   av. dist./Å        max./Å        min./Å
   1 H    6 C          76     1.0831153     1.0900998     1.0714518
   6 C    6 C         107     1.4030172     1.5163640     1.3468334
   6 C    7 N           4     1.3347051     1.3758423     1.2896784
   6 C   16 S          17     1.7476369     1.7720023     1.7297868


optimized geometry written to: xtbopt.mol


           -------------------------------------------------
          | TOTAL ENERGY             -384.971395313277 Eh   |
          | GRADIENT NORM               0.000167548006 Eh/α |
          | HOMO-LUMO GAP               0.434632083911 eV   |
           -------------------------------------------------

------------------------------------------------------------------------
 * finished run on 2022/03/03 at 18:40:42.631     
------------------------------------------------------------------------
 total:
 * wall-time:     0 d,  0 h,  6 min, 10.658 sec
 *  cpu-time:     0 d,  0 h, 43 min,  1.714 sec
 * ratio c/w:     6.965 speedup
 SCF:
 * wall-time:     0 d,  0 h,  0 min,  2.030 sec
 *  cpu-time:     0 d,  0 h,  0 min, 14.600 sec
 * ratio c/w:     7.192 speedup
 ANC optimizer:
 * wall-time:     0 d,  0 h,  6 min,  8.251 sec
 *  cpu-time:     0 d,  0 h, 42 min, 45.258 sec
 * ratio c/w:     6.966 speedup

