      -----------------------------------------------------------      
     |                   =====================                   |     
     |                           x T B                           |     
     |                   =====================                   |     
     |                         S. Grimme                         |     
     |          Mulliken Center for Theoretical Chemistry        |     
     |                    University of Bonn                     |     
      -----------------------------------------------------------      

   * xtb version 6.4.1 (unknown) compiled by 'oda6@login1.crc.pitt.edu' on 2021-06-25

   xtb is free software: you can redistribute it and/or modify it under
   the terms of the GNU Lesser General Public License as published by
   the Free Software Foundation, either version 3 of the License, or
   (at your option) any later version.
   
   xtb is distributed in the hope that it will be useful,
   but WITHOUT ANY WARRANTY; without even the implied warranty of
   MERCHANTABILITY or FITNESS FOR A PARTICULAR PURPOSE.  See the
   GNU Lesser General Public License for more details.
   
   Cite this work as:
   * C. Bannwarth, E. Caldeweyher, S. Ehlert, A. Hansen, P. Pracht,
     J. Seibert, S. Spicher, S. Grimme, WIREs Comput. Mol. Sci., 2020, 11,
     e01493. DOI: 10.1002/wcms.1493
   
   for GFN2-xTB:
   * C. Bannwarth, S. Ehlert and S. Grimme., J. Chem. Theory Comput., 2019,
     15, 1652-1671. DOI: 10.1021/acs.jctc.8b01176
   for GFN1-xTB:
   * S. Grimme, C. Bannwarth, P. Shushkov, J. Chem. Theory Comput., 2017,
     13, 1989-2009. DOI: 10.1021/acs.jctc.7b00118
   for GFN0-xTB:
   * P. Pracht, E. Caldeweyher, S. Ehlert, S. Grimme, ChemRxiv, 2019, preprint.
     DOI: 10.26434/chemrxiv.8326202.v1
   for GFN-FF:
   * S. Spicher and S. Grimme, Angew. Chem. Int. Ed., 2020, 59, 15665-15673.
     DOI: 10.1002/anie.202004239
   
   for DFT-D4:
   * E. Caldeweyher, C. Bannwarth and S. Grimme, J. Chem. Phys., 2017,
     147, 034112. DOI: 10.1063/1.4993215
   * E. Caldeweyher, S. Ehlert, A. Hansen, H. Neugebauer, S. Spicher,
     C. Bannwarth and S. Grimme, J. Chem. Phys., 2019, 150, 154122.
     DOI: 10.1063/1.5090222
   * E. Caldeweyher, J.-M. Mewes, S. Ehlert and S. Grimme, Phys. Chem. Chem. Phys.
     2020, 22, 8499-8512. DOI: 10.1039/D0CP00502A
   
   for sTDA-xTB:
   * S. Grimme and C. Bannwarth, J. Chem. Phys., 2016, 145, 054103.
     DOI: 10.1063/1.4959605
   
   in the mass-spec context:
   * V. Asgeirsson, C. Bauer and S. Grimme, Chem. Sci., 2017, 8, 4879.
     DOI: 10.1039/c7sc00601b
   * J. Koopman and S. Grimme, ACS Omega 2019, 4, 12, 15120-15133.
     DOI: 10.1021/acsomega.9b02011
   
   for metadynamics refer to:
   * S. Grimme, J. Chem. Theory Comput., 2019, 155, 2847-2862
     DOI: 10.1021/acs.jctc.9b00143
   
   for SPH calculations refer to:
   * S. Spicher and S. Grimme, J. Chem. Theory Comput., 2021, 17, 1701-1714
     DOI: 10.1021/acs.jctc.0c01306
   
   with help from (in alphabetical order)
   P. Atkinson, C. Bannwarth, F. Bohle, G. Brandenburg, E. Caldeweyher
   M. Checinski, S. Dohm, S. Ehlert, S. Ehrlich, I. Gerasimov, J. Koopman
   C. Lavigne, S. Lehtola, F. März, M. Müller, F. Musil, H. Neugebauer
   J. Pisarek, C. Plett, P. Pracht, J. Seibert, P. Shushkov, S. Spicher
   M. Stahn, M. Steiner, T. Strunk, J. Stückrath, T. Rose, and J. Unsleber
   
 * started run on 2022/03/01 at 11:18:40.056     

           -------------------------------------------------
          |                Calculation Setup                |
           -------------------------------------------------

          program call               : /ihome/ghutchison/oda6/xtb/xtb-641/bin/xtb ../../FF_optimized/824_61_110001.mol -opt
          hostname                   : smp-n90
          coordinate file            : ../../FF_optimized/824_61_110001.mol
          omp threads                :                     8
          number of atoms            :                   179
          number of electrons        :                   620
          charge                     :                     0
          spin                       :                   0.0
          first test random number   :      0.29959189727218

   ID    Z sym.   atoms
    1    6 C      1-5, 7-10, 12, 14-17, 19-23, 26, 28, 29, 31-35, 37-40, 42,
                  44-47, 49-53, 56, 58, 59, 61, 63-67, 69-72, 74-78, 80-83,
                  85-89, 91-98, 100-103, 105, 107-110, 112-116, 119, 121, 122
    2   16 S      6, 18, 27, 30, 36, 48, 57, 60, 62, 73, 84, 99, 111, 120, 123
    3   17 Cl     11, 13, 24, 25, 41, 43, 54, 55, 104, 106, 117, 118
    4    8 O      68, 79, 90
    5    1 H      124-179
########################################################################
[WARNING] Please study the warnings concerning your input carefully
-1- prog_main_parseArguments: the use of '-opt' is discouraged, please use '--opt' next time
########################################################################

           -------------------------------------------------
          |                 G F N 2 - x T B                 |
           -------------------------------------------------

        Reference                      10.1021/acs.jctc.8b01176
      * Hamiltonian:
        H0-scaling (s, p, d)           1.850000    2.230000    2.230000
        zeta-weighting                 0.500000
      * Dispersion:
        s8                             2.700000
        a1                             0.520000
        a2                             5.000000
        s9                             5.000000
      * Repulsion:
        kExp                           1.500000    1.000000
        rExp                           1.000000
      * Coulomb:
        alpha                          2.000000
        third order                    shell-resolved
        anisotropic                    true
        a3                             3.000000
        a5                             4.000000
        cn-shift                       1.200000
        cn-exp                         4.000000
        max-rad                        5.000000


          ...................................................
          :                      SETUP                      :
          :.................................................:
          :  # basis functions                 710          :
          :  # atomic orbitals                 683          :
          :  # shells                          329          :
          :  # electrons                       620          :
          :  max. iterations                   250          :
          :  Hamiltonian                  GFN2-xTB          :
          :  restarted?                      false          :
          :  GBSA solvation                  false          :
          :  PC potential                    false          :
          :  electronic temp.          300.0000000     K    :
          :  accuracy                    1.0000000          :
          :  -> integral cutoff          0.2500000E+02      :
          :  -> integral neglect         0.1000000E-07      :
          :  -> SCF convergence          0.1000000E-05 Eh   :
          :  -> wf. convergence          0.1000000E-03 e    :
          :  Broyden damping             0.4000000          :
          ...................................................

 iter      E             dE          RMSdq      gap      omega  full diag
   1   -347.0763812 -0.347076E+03  0.420E+00    1.10       0.0  T
   2   -347.2811536 -0.204772E+00  0.239E+00    1.07       1.0  T
   3   -347.0782681  0.202886E+00  0.136E+00    1.03       1.0  T
   4   -347.2945575 -0.216289E+00  0.602E-01    1.06       1.0  T
   5   -347.3347763 -0.402187E-01  0.274E-01    1.06       1.0  T
   6   -347.3428979 -0.812162E-02  0.173E-01    1.06       1.0  T
   7   -347.3470307 -0.413279E-02  0.937E-02    1.06       1.0  T
   8   -347.3477987 -0.768080E-03  0.613E-02    1.06       1.0  T
   9   -347.3479198 -0.121063E-03  0.484E-02    1.06       1.0  T
  10   -347.3480045 -0.847066E-04  0.343E-02    1.07       1.0  T
  11   -347.3481286 -0.124061E-03  0.185E-02    1.06       1.0  T
  12   -347.3481506 -0.220619E-04  0.116E-02    1.06       1.0  T
  13   -347.3481589 -0.821398E-05  0.720E-03    1.07       1.0  T
  14   -347.3481658 -0.693359E-05  0.319E-03    1.06       2.3  T
  15   -347.3481669 -0.109875E-05  0.175E-03    1.07       4.3  T
  16   -347.3481670 -0.139150E-06  0.127E-03    1.07       5.9  T
  17   -347.3481671 -0.847573E-07  0.874E-04    1.07       8.6  T
  18   -347.3481672 -0.448373E-07  0.647E-04    1.07      11.6  T

   *** convergence criteria satisfied after 18 iterations ***

         #    Occupation            Energy/Eh            Energy/eV
      -------------------------------------------------------------
         1        2.0000           -1.0635481             -28.9406
       ...           ...                  ...                  ...
       304        2.0000           -0.3896075             -10.6018
       305        2.0000           -0.3772133             -10.2645
       306        2.0000           -0.3695142             -10.0550
       307        2.0000           -0.3670187              -9.9871
       308        2.0000           -0.3640040              -9.9051
       309        2.0000           -0.3566722              -9.7055
       310        2.0000           -0.3453587              -9.3977 (HOMO)
       311                         -0.3062161              -8.3326 (LUMO)
       312                         -0.3017672              -8.2115
       313                         -0.2952317              -8.0337
       314                         -0.2863678              -7.7925
       315                         -0.2823543              -7.6833
       ...                                ...                  ...
       683                          0.8009209              21.7942
      -------------------------------------------------------------
                  HL-Gap            0.0391425 Eh            1.0651 eV
             Fermi-level           -0.3257918 Eh           -8.8652 eV

 SCC (total)                   0 d,  0 h,  0 min,  0.945 sec
 SCC setup                      ...        0 min,  0.003 sec (  0.293%)
 Dispersion                     ...        0 min,  0.007 sec (  0.696%)
 classical contributions        ...        0 min,  0.000 sec (  0.030%)
 integral evaluation            ...        0 min,  0.042 sec (  4.466%)
 iterations                     ...        0 min,  0.772 sec ( 81.750%)
 molecular gradient             ...        0 min,  0.117 sec ( 12.365%)
 printout                       ...        0 min,  0.004 sec (  0.392%)

         :::::::::::::::::::::::::::::::::::::::::::::::::::::
         ::                     SUMMARY                     ::
         :::::::::::::::::::::::::::::::::::::::::::::::::::::
         :: total energy            -343.203971359092 Eh    ::
         :: gradient norm              0.375084031122 Eh/a0 ::
         :: HOMO-LUMO gap              1.065122760240 eV    ::
         ::.................................................::
         :: SCC energy              -347.348167155270 Eh    ::
         :: -> isotropic ES            0.103591986821 Eh    ::
         :: -> anisotropic ES         -0.005716242349 Eh    ::
         :: -> anisotropic XC          0.091139923014 Eh    ::
         :: -> dispersion             -0.326393033322 Eh    ::
         :: repulsion energy           4.140468251641 Eh    ::
         :: add. restraining           0.000000000000 Eh    ::
         :: total charge              -0.000000000021 e     ::
         :::::::::::::::::::::::::::::::::::::::::::::::::::::

      ----------------------------------------------------------- 
     |                   =====================                   |
     |                        A N C O P T                        |
     |                   =====================                   |
     |               Approximate Normal Coordinate               |
     |                Rational Function Optimizer                |
      ----------------------------------------------------------- 

          ...................................................
          :                      SETUP                      :
          :.................................................:
          :   optimization level            normal          :
          :   max. optcycles                   537          :
          :   ANC micro-cycles                  20          :
          :   degrees of freedom               531          :
          :.................................................:
          :   RF solver                   davidson          :
          :   write xtbopt.log                true          :
          :   linear?                        false          :
          :   energy convergence         0.5000000E-05 Eh   :
          :   grad. convergence          0.1000000E-02 Eh/α :
          :   maximium RF displ.         1.0000000          :
          :   Hlow (freq-cutoff)         0.1000000E-01      :
          :   Hmax (freq-cutoff)         5.0000000          :
          :   S6 in model hess.         20.0000000          :
          ...................................................

generating ANC from model Hessian ...
Using Lindh-Hessian (1995)
 Shifting diagonal of input Hessian by   9.994667774767055E-003
 Lowest  eigenvalues of input Hessian
    0.000000    0.000000    0.000000    0.000000    0.000000    0.000000
    0.010000    0.010001    0.010008    0.010009    0.010019    0.010028
    0.010062    0.010082    0.010100    0.010102    0.010131    0.010133
 Highest eigenvalues
    2.037425    2.078363    2.082329    2.098578    2.106096    2.120655
 

........................................................................
.............................. CYCLE    1 ..............................
........................................................................
   1   -347.3481672 -0.347348E+03  0.433E-04    1.07       0.0  T
   2   -347.3481672  0.114670E-08  0.403E-04    1.07      18.5  T
   3   -347.3481672 -0.123818E-07  0.321E-04    1.07      23.3  T
     SCC iter.                  ...        0 min,  0.133 sec
     gradient                   ...        0 min,  0.114 sec
 * total energy  :  -343.2039714 Eh     change       -0.4530511E-07 Eh
   gradient norm :     0.3750844 Eh/α   predicted     0.0000000E+00 (-100.00%)
   displ. norm   :     0.4654772 α      lambda       -0.1271487E+00
   maximum displ.:     0.0771135 α      in ANC's #327, #217, #344, ...

........................................................................
.............................. CYCLE    2 ..............................
........................................................................
   1   -347.4750146 -0.347475E+03  0.302E-01    1.00       0.0  T
   2   -347.4762162 -0.120155E-02  0.178E-01    1.00       1.0  T
   3   -347.4751853  0.103083E-02  0.114E-01    1.02       1.0  T
   4   -347.4767101 -0.152480E-02  0.617E-02    1.01       1.0  T
   5   -347.4771563 -0.446197E-03  0.334E-02    1.01       1.0  T
   6   -347.4772947 -0.138384E-03  0.152E-02    1.01       1.0  T
   7   -347.4773016 -0.685492E-05  0.125E-02    1.01       1.0  T
   8   -347.4773181 -0.164715E-04  0.827E-03    1.01       1.0  T
   9   -347.4773210 -0.299280E-05  0.608E-03    1.01       1.2  T
  10   -347.4773233 -0.221373E-05  0.354E-03    1.01       2.1  T
  11   -347.4773248 -0.150748E-05  0.184E-03    1.01       4.1  T
  12   -347.4773253 -0.485702E-06  0.876E-04    1.01       8.5  T
  13   -347.4773253 -0.464530E-07  0.554E-04    1.01      13.5  T
     SCC iter.                  ...        0 min,  0.532 sec
     gradient                   ...        0 min,  0.114 sec
 * total energy  :  -343.3027748 Eh     change       -0.9880335E-01 Eh
   gradient norm :     0.2134223 Eh/α   predicted    -0.7737618E-01 ( -21.69%)
   displ. norm   :     0.4878578 α      lambda       -0.7634042E-01
   maximum displ.:     0.0840861 α      in ANC's #75, #485, #95, ...

........................................................................
.............................. CYCLE    3 ..............................
........................................................................
   1   -347.5787834 -0.347579E+03  0.312E-01    0.94       0.0  T
   2   -347.5805695 -0.178615E-02  0.176E-01    0.94       1.0  T
   3   -347.5800486  0.520958E-03  0.111E-01    0.96       1.0  T
   4   -347.5812060 -0.115747E-02  0.660E-02    0.95       1.0  T
   5   -347.5816440 -0.437945E-03  0.369E-02    0.96       1.0  T
   6   -347.5818067 -0.162680E-03  0.162E-02    0.95       1.0  T
   7   -347.5818128 -0.615574E-05  0.125E-02    0.95       1.0  T
   8   -347.5818180 -0.519277E-05  0.984E-03    0.95       1.0  T
   9   -347.5818228 -0.477126E-05  0.694E-03    0.95       1.1  T
  10   -347.5818283 -0.549378E-05  0.357E-03    0.95       2.1  T
  11   -347.5818299 -0.167049E-05  0.171E-03    0.95       4.4  T
  12   -347.5818304 -0.439833E-06  0.768E-04    0.95       9.7  T
  13   -347.5818304 -0.883762E-08  0.577E-04    0.95      13.0  T
     SCC iter.                  ...        0 min,  0.559 sec
     gradient                   ...        0 min,  0.114 sec
 * total energy  :  -343.3516928 Eh     change       -0.4891807E-01 Eh
   gradient norm :     0.0615357 Eh/α   predicted    -0.4725492E-01 (  -3.40%)
   displ. norm   :     0.5554122 α      lambda       -0.1824987E-01
   maximum displ.:     0.1703328 α      in ANC's #75, #95, #67, ...

........................................................................
.............................. CYCLE    4 ..............................
........................................................................
   1   -347.6177076 -0.347618E+03  0.159E-01    0.90       0.0  T
   2   -347.6179417 -0.234114E-03  0.893E-02    0.91       1.0  T
   3   -347.6174976  0.444135E-03  0.614E-02    0.92       1.0  T
   4   -347.6179341 -0.436538E-03  0.315E-02    0.91       1.0  T
   5   -347.6180669 -0.132776E-03  0.172E-02    0.92       1.0  T
   6   -347.6181102 -0.433593E-04  0.780E-03    0.91       1.0  T
   7   -347.6181136 -0.338894E-05  0.613E-03    0.91       1.2  T
   8   -347.6181177 -0.407593E-05  0.397E-03    0.91       1.9  T
   9   -347.6181185 -0.794387E-06  0.266E-03    0.91       2.8  T
  10   -347.6181189 -0.404477E-06  0.142E-03    0.91       5.3  T
  11   -347.6181192 -0.261540E-06  0.653E-04    0.91      11.5  T
  12   -347.6181192 -0.452836E-07  0.361E-04    0.91      20.7  T
     SCC iter.                  ...        0 min,  0.501 sec
     gradient                   ...        0 min,  0.114 sec
 * total energy  :  -343.3651008 Eh     change       -0.1340797E-01 Eh
   gradient norm :     0.0269882 Eh/α   predicted    -0.1194011E-01 ( -10.95%)
   displ. norm   :     0.6356045 α      lambda       -0.9985900E-02
   maximum displ.:     0.1924585 α      in ANC's #75, #95, #52, ...

........................................................................
.............................. CYCLE    5 ..............................
........................................................................
   1   -347.6452551 -0.347645E+03  0.126E-01    0.87       0.0  T
   2   -347.6452902 -0.351465E-04  0.708E-02    0.88       1.0  T
   3   -347.6447851  0.505132E-03  0.495E-02    0.88       1.0  T
   4   -347.6452768 -0.491724E-03  0.176E-02    0.88       1.0  T
   5   -347.6453254 -0.486349E-04  0.913E-03    0.88       1.0  T
   6   -347.6453378 -0.123691E-04  0.418E-03    0.88       1.8  T
   7   -347.6453399 -0.206686E-05  0.252E-03    0.88       3.0  T
   8   -347.6453404 -0.495266E-06  0.182E-03    0.88       4.1  T
   9   -347.6453405 -0.165633E-06  0.132E-03    0.88       5.7  T
  10   -347.6453406 -0.797297E-07  0.792E-04    0.88       9.4  T
  11   -347.6453407 -0.796408E-07  0.397E-04    0.88      18.8  T
     SCC iter.                  ...        0 min,  0.470 sec
     gradient                   ...        0 min,  0.115 sec
 * total energy  :  -343.3729848 Eh     change       -0.7884037E-02 Eh
   gradient norm :     0.0238442 Eh/α   predicted    -0.7010404E-02 ( -11.08%)
   displ. norm   :     0.6845154 α      lambda       -0.7170948E-02
   maximum displ.:     0.1926493 α      in ANC's #75, #52, #33, ...

........................................................................
.............................. CYCLE    6 ..............................
........................................................................
   1   -347.6700551 -0.347670E+03  0.116E-01    0.84       0.0  T
   2   -347.6700621 -0.705256E-05  0.655E-02    0.85       1.0  T
   3   -347.6696074  0.454753E-03  0.434E-02    0.85       1.0  T
   4   -347.6700719 -0.464518E-03  0.117E-02    0.85       1.0  T
   5   -347.6700863 -0.143955E-04  0.730E-03    0.85       1.0  T
   6   -347.6700943 -0.805009E-05  0.336E-03    0.85       2.2  T
   7   -347.6700961 -0.178656E-05  0.152E-03    0.85       4.9  T
   8   -347.6700963 -0.163931E-06  0.108E-03    0.85       6.9  T
   9   -347.6700963 -0.489719E-07  0.786E-04    0.85       9.5  T
  10   -347.6700964 -0.341424E-07  0.510E-04    0.85      14.6  T
     SCC iter.                  ...        0 min,  0.413 sec
     gradient                   ...        0 min,  0.114 sec
 * total energy  :  -343.3789026 Eh     change       -0.5917770E-02 Eh
   gradient norm :     0.0241128 Eh/α   predicted    -0.5265494E-02 ( -11.02%)
   displ. norm   :     0.7181483 α      lambda       -0.5863825E-02
   maximum displ.:     0.2170932 α      in ANC's #33, #36, #52, ...

........................................................................
.............................. CYCLE    7 ..............................
........................................................................
   1   -347.6898123 -0.347690E+03  0.113E-01    0.82       0.0  T
   2   -347.6898241 -0.118366E-04  0.641E-02    0.82       1.0  T
   3   -347.6894973  0.326867E-03  0.377E-02    0.82       1.0  T
   4   -347.6898277 -0.330389E-03  0.115E-02    0.82       1.0  T
   5   -347.6898439 -0.162317E-04  0.706E-03    0.82       1.1  T
   6   -347.6898506 -0.670827E-05  0.367E-03    0.82       2.0  T
   7   -347.6898529 -0.227386E-05  0.179E-03    0.82       4.2  T
   8   -347.6898532 -0.298852E-06  0.121E-03    0.82       6.2  T
   9   -347.6898532 -0.447979E-07  0.917E-04    0.82       8.2  T
  10   -347.6898533 -0.508148E-07  0.539E-04    0.82      13.9  T
     SCC iter.                  ...        0 min,  0.425 sec
     gradient                   ...        0 min,  0.114 sec
 * total energy  :  -343.3838602 Eh     change       -0.4957628E-02 Eh
   gradient norm :     0.0215312 Eh/α   predicted    -0.4444009E-02 ( -10.36%)
   displ. norm   :     0.7353125 α      lambda       -0.5001722E-02
   maximum displ.:     0.2444524 α      in ANC's #33, #36, #40, ...

........................................................................
.............................. CYCLE    8 ..............................
........................................................................
   1   -347.7046590 -0.347705E+03  0.110E-01    0.79       0.0  T
   2   -347.7046719 -0.129288E-04  0.620E-02    0.79       1.0  T
   3   -347.7044256  0.246264E-03  0.340E-02    0.79       1.0  T
   4   -347.7046762 -0.250600E-03  0.104E-02    0.79       1.0  T
   5   -347.7046883 -0.121108E-04  0.612E-03    0.79       1.2  T
   6   -347.7046931 -0.481423E-05  0.289E-03    0.79       2.6  T
   7   -347.7046943 -0.111362E-05  0.183E-03    0.79       4.1  T
   8   -347.7046947 -0.459965E-06  0.112E-03    0.79       6.7  T
   9   -347.7046948 -0.542618E-07  0.835E-04    0.79       9.0  T
  10   -347.7046948 -0.393127E-07  0.513E-04    0.79      14.6  T
     SCC iter.                  ...        0 min,  0.422 sec
     gradient                   ...        0 min,  0.114 sec
 * total energy  :  -343.3881102 Eh     change       -0.4249939E-02 Eh
   gradient norm :     0.0167881 Eh/α   predicted    -0.3853038E-02 (  -9.34%)
   displ. norm   :     0.7568855 α      lambda       -0.4206538E-02
   maximum displ.:     0.2727856 α      in ANC's #33, #40, #36, ...

........................................................................
.............................. CYCLE    9 ..............................
........................................................................
   1   -347.7104657 -0.347710E+03  0.111E-01    0.77       0.0  T
   2   -347.7104778 -0.120995E-04  0.620E-02    0.77       1.0  T
   3   -347.7103271  0.150728E-03  0.274E-02    0.77       1.0  T
   4   -347.7104764 -0.149336E-03  0.990E-03    0.77       1.0  T
   5   -347.7104872 -0.108480E-04  0.557E-03    0.77       1.3  T
   6   -347.7104917 -0.442944E-05  0.207E-03    0.77       3.6  T
   7   -347.7104921 -0.389112E-06  0.139E-03    0.77       5.4  T
   8   -347.7104921 -0.156559E-07  0.120E-03    0.77       6.2  T
   9   -347.7104922 -0.834791E-07  0.874E-04    0.77       8.5  T
  10   -347.7104923 -0.890046E-07  0.501E-04    0.77      14.9  T
     SCC iter.                  ...        0 min,  0.423 sec
     gradient                   ...        0 min,  0.114 sec
 * total energy  :  -343.3916756 Eh     change       -0.3565419E-02 Eh
   gradient norm :     0.0163544 Eh/α   predicted    -0.3308180E-02 (  -7.21%)
   displ. norm   :     0.7616435 α      lambda       -0.3857495E-02
   maximum displ.:     0.2795994 α      in ANC's #33, #36, #40, ...

........................................................................
.............................. CYCLE   10 ..............................
........................................................................
   1   -347.7176619 -0.347718E+03  0.108E-01    0.75       0.0  T
   2   -347.7176674 -0.551407E-05  0.599E-02    0.75       1.0  T
   3   -347.7173791  0.288368E-03  0.383E-02    0.74       1.0  T
   4   -347.7176808 -0.301717E-03  0.988E-03    0.75       1.0  T
   5   -347.7176880 -0.724824E-05  0.634E-03    0.75       1.2  T
   6   -347.7176927 -0.463040E-05  0.281E-03    0.75       2.7  T
   7   -347.7176939 -0.121198E-05  0.178E-03    0.75       4.2  T
   8   -347.7176942 -0.375016E-06  0.126E-03    0.75       5.9  T
   9   -347.7176943 -0.780605E-07  0.881E-04    0.75       8.5  T
  10   -347.7176944 -0.713865E-07  0.544E-04    0.75      13.7  T
     SCC iter.                  ...        0 min,  0.425 sec
     gradient                   ...        0 min,  0.114 sec
 * total energy  :  -343.3944936 Eh     change       -0.2818011E-02 Eh
   gradient norm :     0.0216315 Eh/α   predicted    -0.3047626E-02 (   8.15%)
   displ. norm   :     0.7504147 α      lambda       -0.3504182E-02
   maximum displ.:     0.2856411 α      in ANC's #33, #36, #40, ...

........................................................................
.............................. CYCLE   11 ..............................
........................................................................
   1   -347.7093192 -0.347709E+03  0.108E-01    0.73       0.0  T
   2   -347.7093317 -0.124798E-04  0.607E-02    0.73       1.0  T
   3   -347.7092769  0.547575E-04  0.189E-02    0.73       1.0  T
   4   -347.7093294 -0.524612E-04  0.826E-03    0.73       1.0  T
   5   -347.7093310 -0.158650E-05  0.619E-03    0.73       1.2  T
   6   -347.7093390 -0.800848E-05  0.237E-03    0.73       3.2  T
   7   -347.7093397 -0.768565E-06  0.160E-03    0.73       4.7  T
   8   -347.7093400 -0.249809E-06  0.114E-03    0.73       6.6  T
   9   -347.7093400 -0.523514E-07  0.853E-04    0.73       8.8  T
  10   -347.7093401 -0.653903E-07  0.520E-04    0.73      14.4  T
     SCC iter.                  ...        0 min,  0.442 sec
     gradient                   ...        0 min,  0.115 sec
 * total energy  :  -343.3969724 Eh     change       -0.2478785E-02 Eh
   gradient norm :     0.0177250 Eh/α   predicted    -0.2738735E-02 (  10.49%)
   displ. norm   :     0.6560693 α      lambda       -0.2151574E-02
   maximum displ.:     0.2378058 α      in ANC's #33, #36, #40, ...

........................................................................
.............................. CYCLE   12 ..............................
........................................................................
   1   -347.7073627 -0.347707E+03  0.859E-02    0.72       0.0  T
   2   -347.7073688 -0.604536E-05  0.482E-02    0.72       1.0  T
   3   -347.7072905  0.783046E-04  0.203E-02    0.72       1.0  T
   4   -347.7073686 -0.781343E-04  0.705E-03    0.72       1.1  T
   5   -347.7073719 -0.332681E-05  0.469E-03    0.72       1.6  T
   6   -347.7073759 -0.397671E-05  0.168E-03    0.72       4.5  T
   7   -347.7073761 -0.159274E-06  0.135E-03    0.72       5.5  T
   8   -347.7073762 -0.157962E-06  0.103E-03    0.72       7.3  T
   9   -347.7073763 -0.414154E-07  0.783E-04    0.72       9.5  T
  10   -347.7073763 -0.689720E-07  0.439E-04    0.72      17.0  T
     SCC iter.                  ...        0 min,  0.412 sec
     gradient                   ...        0 min,  0.114 sec
 * total energy  :  -343.3988090 Eh     change       -0.1836594E-02 Eh
   gradient norm :     0.0144821 Eh/α   predicted    -0.1538835E-02 ( -16.21%)
   displ. norm   :     0.6769288 α      lambda       -0.2252234E-02
   maximum displ.:     0.2346930 α      in ANC's #36, #27, #33, ...

........................................................................
.............................. CYCLE   13 ..............................
........................................................................
   1   -347.7170361 -0.347717E+03  0.851E-02    0.72       0.0  T
   2   -347.7170451 -0.907908E-05  0.484E-02    0.72       1.0  T
   3   -347.7169315  0.113669E-03  0.249E-02    0.72       1.0  T
   4   -347.7170476 -0.116092E-03  0.797E-03    0.72       1.0  T
   5   -347.7170531 -0.554525E-05  0.553E-03    0.72       1.4  T
   6   -347.7170584 -0.530525E-05  0.219E-03    0.72       3.4  T
   7   -347.7170587 -0.256614E-06  0.169E-03    0.72       4.4  T
   8   -347.7170588 -0.141118E-06  0.137E-03    0.72       5.5  T
   9   -347.7170589 -0.622874E-07  0.108E-03    0.72       6.9  T
  10   -347.7170590 -0.145192E-06  0.553E-04    0.72      13.5  T
  11   -347.7170591 -0.258350E-07  0.349E-04    0.72      21.4  T
     SCC iter.                  ...        0 min,  0.451 sec
     gradient                   ...        0 min,  0.114 sec
 * total energy  :  -343.4004923 Eh     change       -0.1683303E-02 Eh
   gradient norm :     0.0124305 Eh/α   predicted    -0.1642154E-02 (  -2.44%)
   displ. norm   :     0.7346659 α      lambda       -0.1832628E-02
   maximum displ.:     0.2749150 α      in ANC's #36, #33, #27, ...

........................................................................
.............................. CYCLE   14 ..............................
........................................................................
   1   -347.7052914 -0.347705E+03  0.991E-02    0.71       0.0  T
   2   -347.7053053 -0.138334E-04  0.562E-02    0.71       1.0  T
   3   -347.7052296  0.756386E-04  0.204E-02    0.71       1.0  T
   4   -347.7052977 -0.680879E-04  0.928E-03    0.71       1.0  T
   5   -347.7053045 -0.675019E-05  0.668E-03    0.71       1.1  T
   6   -347.7053128 -0.828721E-05  0.300E-03    0.71       2.5  T
   7   -347.7053142 -0.141194E-05  0.176E-03    0.71       4.2  T
   8   -347.7053145 -0.352473E-06  0.122E-03    0.71       6.1  T
   9   -347.7053146 -0.619846E-07  0.883E-04    0.71       8.5  T
  10   -347.7053146 -0.587638E-07  0.539E-04    0.71      13.9  T
     SCC iter.                  ...        0 min,  0.415 sec
     gradient                   ...        0 min,  0.114 sec
 * total energy  :  -343.4016210 Eh     change       -0.1128697E-02 Eh
   gradient norm :     0.0190262 Eh/α   predicted    -0.1410882E-02 (  25.00%)
   displ. norm   :     0.5517654 α      lambda       -0.1349739E-02
   maximum displ.:     0.1760206 α      in ANC's #36, #27, #10, ...

........................................................................
.............................. CYCLE   15 ..............................
........................................................................
   1   -347.7090675 -0.347709E+03  0.650E-02    0.71       0.0  T
   2   -347.7090757 -0.815633E-05  0.372E-02    0.71       1.0  T
   3   -347.7090328  0.428771E-04  0.144E-02    0.71       1.0  T
   4   -347.7090608 -0.279600E-04  0.886E-03    0.71       1.0  T
   5   -347.7090774 -0.166485E-04  0.395E-03    0.71       1.9  T
   6   -347.7090798 -0.237612E-05  0.177E-03    0.71       4.2  T
   7   -347.7090801 -0.366434E-06  0.108E-03    0.71       6.9  T
   8   -347.7090802 -0.871821E-07  0.797E-04    0.71       9.4  T
   9   -347.7090803 -0.227973E-07  0.580E-04    0.71      12.9  T
     SCC iter.                  ...        0 min,  0.375 sec
     gradient                   ...        0 min,  0.114 sec
 * total energy  :  -343.4025595 Eh     change       -0.9385151E-03 Eh
   gradient norm :     0.0112239 Eh/α   predicted    -0.8803565E-03 (  -6.20%)
   displ. norm   :     0.5494975 α      lambda       -0.1088042E-02
   maximum displ.:     0.1786016 α      in ANC's #11, #10, #27, ...

........................................................................
.............................. CYCLE   16 ..............................
........................................................................
   1   -347.7179864 -0.347718E+03  0.599E-02    0.71       0.0  T
   2   -347.7179931 -0.668270E-05  0.354E-02    0.71       1.0  T
   3   -347.7179331  0.599707E-04  0.188E-02    0.71       1.0  T
   4   -347.7179966 -0.634655E-04  0.599E-03    0.71       1.2  T
   5   -347.7179988 -0.226913E-05  0.478E-03    0.71       1.6  T
   6   -347.7180028 -0.399617E-05  0.240E-03    0.71       3.1  T
   7   -347.7180033 -0.482717E-06  0.168E-03    0.71       4.4  T
   8   -347.7180035 -0.142660E-06  0.126E-03    0.71       5.9  T
   9   -347.7180035 -0.711667E-07  0.811E-04    0.71       9.2  T
  10   -347.7180036 -0.714886E-07  0.405E-04    0.71      18.5  T
     SCC iter.                  ...        0 min,  0.416 sec
     gradient                   ...        0 min,  0.114 sec
 * total energy  :  -343.4032741 Eh     change       -0.7145618E-03 Eh
   gradient norm :     0.0123444 Eh/α   predicted    -0.7082900E-03 (  -0.88%)
   displ. norm   :     0.5708253 α      lambda       -0.1018619E-02
   maximum displ.:     0.2047953 α      in ANC's #11, #10, #27, ...

........................................................................
.............................. CYCLE   17 ..............................
........................................................................
   1   -347.7243416 -0.347724E+03  0.631E-02    0.70       0.0  T
   2   -347.7243514 -0.980711E-05  0.356E-02    0.70       1.0  T
   3   -347.7243171  0.343559E-04  0.129E-02    0.70       1.0  T
   4   -347.7243439 -0.268195E-04  0.705E-03    0.70       1.1  T
   5   -347.7243531 -0.917432E-05  0.332E-03    0.70       2.3  T
   6   -347.7243542 -0.119575E-05  0.207E-03    0.70       3.6  T
   7   -347.7243550 -0.748583E-06  0.107E-03    0.70       7.0  T
   8   -347.7243552 -0.206007E-06  0.528E-04    0.70      14.1  T
   9   -347.7243552 -0.225322E-07  0.363E-04    0.70      20.6  T
     SCC iter.                  ...        0 min,  0.372 sec
     gradient                   ...        0 min,  0.114 sec
 * total energy  :  -343.4038229 Eh     change       -0.5488187E-03 Eh
   gradient norm :     0.0123721 Eh/α   predicted    -0.6752750E-03 (  23.04%)
   displ. norm   :     0.5348131 α      lambda       -0.8737033E-03
   maximum displ.:     0.1945817 α      in ANC's #10, #11, #36, ...

........................................................................
.............................. CYCLE   18 ..............................
........................................................................
   1   -347.7163182 -0.347716E+03  0.594E-02    0.69       0.0  T
   2   -347.7163312 -0.130309E-04  0.344E-02    0.69       1.0  T
   3   -347.7162589  0.723344E-04  0.196E-02    0.69       1.0  T
   4   -347.7163122 -0.532766E-04  0.109E-02    0.69       1.0  T
   5   -347.7163370 -0.248803E-04  0.542E-03    0.69       1.4  T
   6   -347.7163419 -0.481236E-05  0.259E-03    0.69       2.9  T
   7   -347.7163420 -0.174098E-06  0.207E-03    0.69       3.6  T
   8   -347.7163424 -0.347301E-06  0.152E-03    0.69       4.9  T
   9   -347.7163425 -0.123968E-06  0.106E-03    0.69       7.1  T
  10   -347.7163426 -0.973721E-07  0.575E-04    0.69      13.0  T
  11   -347.7163426 -0.385926E-07  0.273E-04    0.69      27.4  T
     SCC iter.                  ...        0 min,  0.452 sec
     gradient                   ...        0 min,  0.114 sec
 * total energy  :  -343.4042935 Eh     change       -0.4706412E-03 Eh
   gradient norm :     0.0120774 Eh/α   predicted    -0.5618040E-03 (  19.37%)
   displ. norm   :     0.3849294 α      lambda       -0.7411382E-03
   maximum displ.:     0.1618415 α      in ANC's #11, #10, #12, ...

........................................................................
.............................. CYCLE   19 ..............................
........................................................................
   1   -347.7227330 -0.347723E+03  0.430E-02    0.69       0.0  T
   2   -347.7227363 -0.336713E-05  0.273E-02    0.69       1.0  T
   3   -347.7226139  0.122429E-03  0.230E-02    0.69       1.0  T
   4   -347.7227204 -0.106471E-03  0.112E-02    0.69       1.0  T
   5   -347.7227500 -0.296354E-04  0.349E-03    0.69       2.1  T
   6   -347.7227510 -0.977647E-06  0.231E-03    0.69       3.2  T
   7   -347.7227515 -0.491036E-06  0.153E-03    0.69       4.9  T
   8   -347.7227516 -0.106638E-06  0.124E-03    0.69       6.0  T
   9   -347.7227517 -0.120670E-06  0.846E-04    0.69       8.8  T
  10   -347.7227518 -0.613481E-07  0.504E-04    0.69      14.8  T
     SCC iter.                  ...        0 min,  0.411 sec
     gradient                   ...        0 min,  0.114 sec
 * total energy  :  -343.4046462 Eh     change       -0.3526961E-03 Eh
   gradient norm :     0.0154341 Eh/α   predicted    -0.4254847E-03 (  20.64%)
   displ. norm   :     0.3942551 α      lambda       -0.7622634E-03
   maximum displ.:     0.1723804 α      in ANC's #11, #10, #4, ...

........................................................................
.............................. CYCLE   20 ..............................
........................................................................
   1   -347.7264480 -0.347726E+03  0.386E-02    0.68       0.0  T
   2   -347.7264520 -0.400466E-05  0.234E-02    0.68       1.0  T
   3   -347.7263987  0.533374E-04  0.165E-02    0.68       1.0  T
   4   -347.7264533 -0.546013E-04  0.656E-03    0.68       1.1  T
   5   -347.7264613 -0.797228E-05  0.303E-03    0.68       2.5  T
   6   -347.7264620 -0.746011E-06  0.180E-03    0.68       4.2  T
   7   -347.7264621 -0.107475E-06  0.143E-03    0.68       5.2  T
   8   -347.7264623 -0.119459E-06  0.119E-03    0.68       6.3  T
   9   -347.7264624 -0.131742E-06  0.774E-04    0.68       9.7  T
  10   -347.7264624 -0.592821E-07  0.437E-04    0.68      17.1  T
     SCC iter.                  ...        0 min,  0.411 sec
     gradient                   ...        0 min,  0.114 sec
 * total energy  :  -343.4051872 Eh     change       -0.5409448E-03 Eh
   gradient norm :     0.0128675 Eh/α   predicted    -0.4403806E-03 ( -18.59%)
   displ. norm   :     0.5352454 α      lambda       -0.8857711E-03
   maximum displ.:     0.2404395 α      in ANC's #11, #10, #4, ...
 * RMSD in coord.:     0.7030066 α      energy gain  -0.2012158E+00 Eh

generating ANC from model Hessian ...
Using Lindh-Hessian (1995)
 Shifting diagonal of input Hessian by   9.996374942872503E-003
 Lowest  eigenvalues of input Hessian
    0.000000    0.000000    0.000000    0.000000    0.000000    0.000000
    0.010000    0.010003    0.010008    0.010013    0.010021    0.010026
    0.010045    0.010076    0.010079    0.010102    0.010125    0.010129
 Highest eigenvalues
    2.076827    2.081394    2.091773    2.140340    2.153626    2.162966
 

........................................................................
.............................. CYCLE   21 ..............................
........................................................................
   1   -347.7298737 -0.347730E+03  0.446E-02    0.67       0.0  T
   2   -347.7298774 -0.370787E-05  0.268E-02    0.68       1.0  T
   3   -347.7298047  0.727747E-04  0.186E-02    0.68       1.0  T
   4   -347.7298778 -0.731150E-04  0.640E-03    0.68       1.2  T
   5   -347.7298857 -0.794951E-05  0.326E-03    0.68       2.3  T
   6   -347.7298863 -0.535808E-06  0.238E-03    0.68       3.1  T
   7   -347.7298869 -0.636971E-06  0.173E-03    0.68       4.3  T
   8   -347.7298872 -0.311739E-06  0.119E-03    0.68       6.3  T
   9   -347.7298873 -0.101446E-06  0.705E-04    0.68      10.6  T
  10   -347.7298873 -0.300514E-07  0.427E-04    0.68      17.5  T
     SCC iter.                  ...        0 min,  0.416 sec
     gradient                   ...        0 min,  0.115 sec
 * total energy  :  -343.4058438 Eh     change       -0.6566479E-03 Eh
   gradient norm :     0.0120666 Eh/α   predicted     0.0000000E+00 (-100.00%)
   displ. norm   :     0.1480884 α      lambda       -0.5060025E-03
   maximum displ.:     0.0607334 α      in ANC's #11, #66, #12, ...

........................................................................
.............................. CYCLE   22 ..............................
........................................................................
   1   -347.7258579 -0.347726E+03  0.236E-02    0.67       0.0  T
   2   -347.7258589 -0.997039E-06  0.133E-02    0.67       1.0  T
   3   -347.7258438  0.150799E-04  0.844E-03    0.67       1.0  T
   4   -347.7258559 -0.120972E-04  0.431E-03    0.67       1.7  T
   5   -347.7258601 -0.421731E-05  0.182E-03    0.67       4.1  T
   6   -347.7258605 -0.397722E-06  0.861E-04    0.67       8.7  T
   7   -347.7258606 -0.495893E-07  0.610E-04    0.67      12.3  T
     SCC iter.                  ...        0 min,  0.290 sec
     gradient                   ...        0 min,  0.114 sec
 * total energy  :  -343.4062453 Eh     change       -0.4015379E-03 Eh
   gradient norm :     0.0057822 Eh/α   predicted    -0.2585527E-03 ( -35.61%)
   displ. norm   :     0.3657874 α      lambda       -0.7370049E-03
   maximum displ.:     0.1647478 α      in ANC's #11, #12, #66, ...

........................................................................
.............................. CYCLE   23 ..............................
........................................................................
   1   -347.7192265 -0.347719E+03  0.469E-02    0.67       0.0  T
   2   -347.7192299 -0.334840E-05  0.266E-02    0.67       1.0  T
   3   -347.7191693  0.606086E-04  0.165E-02    0.67       1.0  T
   4   -347.7192173 -0.480613E-04  0.843E-03    0.67       1.0  T
   5   -347.7192340 -0.167238E-04  0.350E-03    0.67       2.1  T
   6   -347.7192355 -0.149648E-05  0.173E-03    0.67       4.3  T
   7   -347.7192358 -0.225287E-06  0.122E-03    0.67       6.1  T
   8   -347.7192358 -0.777260E-07  0.971E-04    0.67       7.7  T
   9   -347.7192359 -0.449448E-07  0.686E-04    0.67      10.9  T
     SCC iter.                  ...        0 min,  0.374 sec
     gradient                   ...        0 min,  0.114 sec
 * total energy  :  -343.4067620 Eh     change       -0.5166473E-03 Eh
   gradient norm :     0.0068799 Eh/α   predicted    -0.4178356E-03 ( -19.13%)
   displ. norm   :     0.3773659 α      lambda       -0.4694908E-03
   maximum displ.:     0.1790212 α      in ANC's #11, #12, #3, ...

........................................................................
.............................. CYCLE   24 ..............................
........................................................................
   1   -347.7162526 -0.347716E+03  0.385E-02    0.66       0.0  T
   2   -347.7162545 -0.185620E-05  0.221E-02    0.66       1.0  T
   3   -347.7162334  0.211504E-04  0.100E-02    0.66       1.0  T
   4   -347.7162499 -0.165640E-04  0.509E-03    0.66       1.5  T
   5   -347.7162551 -0.517968E-05  0.281E-03    0.66       2.7  T
   6   -347.7162565 -0.141550E-05  0.118E-03    0.66       6.3  T
   7   -347.7162566 -0.947778E-07  0.861E-04    0.66       8.7  T
   8   -347.7162567 -0.468831E-07  0.668E-04    0.66      11.2  T
     SCC iter.                  ...        0 min,  0.332 sec
     gradient                   ...        0 min,  0.114 sec
 * total energy  :  -343.4071447 Eh     change       -0.3827576E-03 Eh
   gradient norm :     0.0101660 Eh/α   predicted    -0.2681785E-03 ( -29.94%)
   displ. norm   :     0.5158232 α      lambda       -0.6366418E-03
   maximum displ.:     0.2520595 α      in ANC's #11, #12, #3, ...

........................................................................
.............................. CYCLE   25 ..............................
........................................................................
   1   -347.7158410 -0.347716E+03  0.441E-02    0.66       0.0  T
   2   -347.7158429 -0.194557E-05  0.254E-02    0.66       1.0  T
   3   -347.7158324  0.105171E-04  0.812E-03    0.66       1.0  T
   4   -347.7158432 -0.107709E-04  0.302E-03    0.66       2.5  T
   5   -347.7158435 -0.326235E-06  0.226E-03    0.66       3.3  T
   6   -347.7158444 -0.856352E-06  0.109E-03    0.66       6.9  T
   7   -347.7158444 -0.974035E-07  0.831E-04    0.66       9.0  T
   8   -347.7158445 -0.148809E-07  0.725E-04    0.66      10.3  T
     SCC iter.                  ...        0 min,  0.332 sec
     gradient                   ...        0 min,  0.114 sec
 * total energy  :  -343.4076889 Eh     change       -0.5441886E-03 Eh
   gradient norm :     0.0110389 Eh/α   predicted    -0.4030221E-03 ( -25.94%)
   displ. norm   :     0.5996478 α      lambda       -0.8058588E-03
   maximum displ.:     0.3037293 α      in ANC's #11, #12, #3, ...

........................................................................
.............................. CYCLE   26 ..............................
........................................................................
   1   -347.7193975 -0.347719E+03  0.451E-02    0.65       0.0  T
   2   -347.7193983 -0.812007E-06  0.263E-02    0.65       1.0  T
   3   -347.7193506  0.477729E-04  0.138E-02    0.65       1.0  T
   4   -347.7193947 -0.440987E-04  0.487E-03    0.65       1.5  T
   5   -347.7193997 -0.509664E-05  0.222E-03    0.65       3.4  T
   6   -347.7194005 -0.763546E-06  0.983E-04    0.65       7.6  T
   7   -347.7194006 -0.967531E-07  0.643E-04    0.65      11.6  T
     SCC iter.                  ...        0 min,  0.290 sec
     gradient                   ...        0 min,  0.114 sec
 * total energy  :  -343.4083668 Eh     change       -0.6778241E-03 Eh
   gradient norm :     0.0099026 Eh/α   predicted    -0.5478141E-03 ( -19.18%)
   displ. norm   :     0.6228096 α      lambda       -0.8167935E-03
   maximum displ.:     0.3284966 α      in ANC's #11, #12, #3, ...

........................................................................
.............................. CYCLE   27 ..............................
........................................................................
   1   -347.7249114 -0.347725E+03  0.434E-02    0.65       0.0  T
   2   -347.7249132 -0.177601E-05  0.253E-02    0.65       1.0  T
   3   -347.7248820  0.311596E-04  0.114E-02    0.65       1.0  T
   4   -347.7249072 -0.251852E-04  0.534E-03    0.65       1.4  T
   5   -347.7249139 -0.671883E-05  0.254E-03    0.65       2.9  T
   6   -347.7249151 -0.120139E-05  0.113E-03    0.65       6.6  T
   7   -347.7249153 -0.148483E-06  0.682E-04    0.65      11.0  T
   8   -347.7249153 -0.425212E-07  0.488E-04    0.65      15.3  T
     SCC iter.                  ...        0 min,  0.349 sec
     gradient                   ...        0 min,  0.114 sec
 * total energy  :  -343.4090553 Eh     change       -0.6885332E-03 Eh
   gradient norm :     0.0090949 Eh/α   predicted    -0.5668112E-03 ( -17.68%)
   displ. norm   :     0.6823581 α      lambda       -0.7865613E-03
   maximum displ.:     0.3660752 α      in ANC's #11, #12, #3, ...

........................................................................
.............................. CYCLE   28 ..............................
........................................................................
   1   -347.7272752 -0.347727E+03  0.459E-02    0.65       0.0  T
   2   -347.7272777 -0.248312E-05  0.267E-02    0.65       1.0  T
   3   -347.7272668  0.109632E-04  0.775E-03    0.65       1.0  T
   4   -347.7272766 -0.988734E-05  0.328E-03    0.65       2.3  T
   5   -347.7272769 -0.252877E-06  0.285E-03    0.65       2.6  T
   6   -347.7272789 -0.204911E-05  0.116E-03    0.65       6.5  T
   7   -347.7272791 -0.168713E-06  0.667E-04    0.65      11.2  T
   8   -347.7272792 -0.366724E-07  0.478E-04    0.65      15.6  T
     SCC iter.                  ...        0 min,  0.341 sec
     gradient                   ...        0 min,  0.114 sec
 * total energy  :  -343.4097459 Eh     change       -0.6905806E-03 Eh
   gradient norm :     0.0087418 Eh/α   predicted    -0.5763974E-03 ( -16.53%)
   displ. norm   :     0.6884715 α      lambda       -0.8466117E-03
   maximum displ.:     0.3857990 α      in ANC's #11, #12, #3, ...

........................................................................
.............................. CYCLE   29 ..............................
........................................................................
   1   -347.7328958 -0.347733E+03  0.453E-02    0.65       0.0  T
   2   -347.7329000 -0.423910E-05  0.262E-02    0.65       1.0  T
   3   -347.7328827  0.173267E-04  0.100E-02    0.64       1.0  T
   4   -347.7328965 -0.138425E-04  0.497E-03    0.65       1.5  T
   5   -347.7328995 -0.302056E-05  0.325E-03    0.65       2.3  T
   6   -347.7329019 -0.234695E-05  0.134E-03    0.65       5.6  T
   7   -347.7329021 -0.180629E-06  0.937E-04    0.65       8.0  T
   8   -347.7329022 -0.939847E-07  0.637E-04    0.65      11.7  T
     SCC iter.                  ...        0 min,  0.341 sec
     gradient                   ...        0 min,  0.114 sec
 * total energy  :  -343.4104306 Eh     change       -0.6847691E-03 Eh
   gradient norm :     0.0088854 Eh/α   predicted    -0.6239544E-03 (  -8.88%)
   displ. norm   :     0.8314199 α      lambda       -0.8934895E-03
   maximum displ.:     0.4509993 α      in ANC's #11, #12, #3, ...

........................................................................
.............................. CYCLE   30 ..............................
........................................................................
   1   -347.7246303 -0.347725E+03  0.568E-02    0.64       0.0  T
   2   -347.7246356 -0.525711E-05  0.330E-02    0.64       1.0  T
   3   -347.7245852  0.503751E-04  0.142E-02    0.64       1.0  T
   4   -347.7246218 -0.366141E-04  0.772E-03    0.64       1.0  T
   5   -347.7246372 -0.153795E-04  0.241E-03    0.64       3.1  T
   6   -347.7246380 -0.846092E-06  0.119E-03    0.64       6.3  T
   7   -347.7246381 -0.822797E-07  0.810E-04    0.64       9.2  T
   8   -347.7246382 -0.896887E-07  0.495E-04    0.64      15.1  T
     SCC iter.                  ...        0 min,  0.341 sec
     gradient                   ...        0 min,  0.114 sec
 * total energy  :  -343.4110948 Eh     change       -0.6641284E-03 Eh
   gradient norm :     0.0113690 Eh/α   predicted    -0.7555629E-03 (  13.77%)
   displ. norm   :     0.6173003 α      lambda       -0.7214812E-03
   maximum displ.:     0.3536710 α      in ANC's #11, #12, #3, ...

........................................................................
.............................. CYCLE   31 ..............................
........................................................................
   1   -347.7255858 -0.347726E+03  0.384E-02    0.64       0.0  T
   2   -347.7255856  0.269039E-06  0.225E-02    0.64       1.0  T
   3   -347.7255229  0.626534E-04  0.152E-02    0.64       1.0  T
   4   -347.7255852 -0.622457E-04  0.340E-03    0.64       2.2  T
   5   -347.7255874 -0.227005E-05  0.164E-03    0.64       4.6  T
   6   -347.7255877 -0.296934E-06  0.859E-04    0.64       8.7  T
   7   -347.7255878 -0.966617E-07  0.538E-04    0.64      13.9  T
     SCC iter.                  ...        0 min,  0.299 sec
     gradient                   ...        0 min,  0.114 sec
 * total energy  :  -343.4117427 Eh     change       -0.6479113E-03 Eh
   gradient norm :     0.0094260 Eh/α   predicted    -0.4982073E-03 ( -23.11%)
   displ. norm   :     0.6842523 α      lambda       -0.9358645E-03
   maximum displ.:     0.3956346 α      in ANC's #11, #12, #3, ...

........................................................................
.............................. CYCLE   32 ..............................
........................................................................
   1   -347.7309757 -0.347731E+03  0.473E-02    0.64       0.0  T
   2   -347.7309783 -0.259809E-05  0.272E-02    0.64       1.0  T
   3   -347.7309027  0.755526E-04  0.170E-02    0.64       1.0  T
   4   -347.7309719 -0.692092E-04  0.623E-03    0.64       1.2  T
   5   -347.7309804 -0.849676E-05  0.280E-03    0.64       2.7  T
   6   -347.7309817 -0.122561E-05  0.140E-03    0.64       5.3  T
   7   -347.7309819 -0.193920E-06  0.951E-04    0.64       7.9  T
   8   -347.7309820 -0.117433E-06  0.622E-04    0.64      12.0  T
     SCC iter.                  ...        0 min,  0.337 sec
     gradient                   ...        0 min,  0.114 sec
 * total energy  :  -343.4124676 Eh     change       -0.7248835E-03 Eh
   gradient norm :     0.0075168 Eh/α   predicted    -0.6870201E-03 (  -5.22%)
   displ. norm   :     0.8358722 α      lambda       -0.8491225E-03
   maximum displ.:     0.4769136 α      in ANC's #11, #12, #3, ...

........................................................................
.............................. CYCLE   33 ..............................
........................................................................
   1   -347.7296287 -0.347730E+03  0.546E-02    0.64       0.0  T
   2   -347.7296314 -0.268617E-05  0.315E-02    0.64       1.0  T
   3   -347.7295597  0.716607E-04  0.162E-02    0.64       1.0  T
   4   -347.7296248 -0.650745E-04  0.627E-03    0.64       1.2  T
   5   -347.7296330 -0.824916E-05  0.286E-03    0.64       2.6  T
   6   -347.7296342 -0.120353E-05  0.145E-03    0.64       5.2  T
   7   -347.7296345 -0.238865E-06  0.958E-04    0.64       7.8  T
   8   -347.7296346 -0.113854E-06  0.650E-04    0.64      11.5  T
     SCC iter.                  ...        0 min,  0.339 sec
     gradient                   ...        0 min,  0.114 sec
 * total energy  :  -343.4131856 Eh     change       -0.7180250E-03 Eh
   gradient norm :     0.0060660 Eh/α   predicted    -0.7212007E-03 (   0.44%)
   displ. norm   :     0.8666197 α      lambda       -0.7808478E-03
   maximum displ.:     0.4972895 α      in ANC's #11, #12, #3, ...

........................................................................
.............................. CYCLE   34 ..............................
........................................................................
   1   -347.7235365 -0.347724E+03  0.573E-02    0.63       0.0  T
   2   -347.7235405 -0.402148E-05  0.330E-02    0.63       1.0  T
   3   -347.7234864  0.541392E-04  0.143E-02    0.63       1.0  T
   4   -347.7235321 -0.456955E-04  0.662E-03    0.63       1.1  T
   5   -347.7235414 -0.931870E-05  0.298E-03    0.63       2.5  T
   6   -347.7235427 -0.136479E-05  0.162E-03    0.63       4.6  T
   7   -347.7235431 -0.326974E-06  0.101E-03    0.63       7.4  T
   8   -347.7235432 -0.128221E-06  0.686E-04    0.63      10.9  T
   9   -347.7235432 -0.188153E-07  0.537E-04    0.63      13.9  T
     SCC iter.                  ...        0 min,  0.379 sec
     gradient                   ...        0 min,  0.114 sec
 * total energy  :  -343.4137577 Eh     change       -0.5720890E-03 Eh
   gradient norm :     0.0100084 Eh/α   predicted    -0.6836487E-03 (  19.50%)
   displ. norm   :     0.6472785 α      lambda       -0.7916991E-03
   maximum displ.:     0.3730576 α      in ANC's #11, #3, #12, ...

........................................................................
.............................. CYCLE   35 ..............................
........................................................................
   1   -347.7302508 -0.347730E+03  0.490E-02    0.62       0.0  T
   2   -347.7302546 -0.382673E-05  0.276E-02    0.62       1.0  T
   3   -347.7302390  0.156423E-04  0.909E-03    0.62       1.0  T
   4   -347.7302505 -0.115384E-04  0.517E-03    0.62       1.4  T
   5   -347.7302543 -0.377459E-05  0.338E-03    0.62       2.2  T
   6   -347.7302558 -0.148374E-05  0.194E-03    0.62       3.9  T
   7   -347.7302566 -0.786061E-06  0.100E-03    0.62       7.4  T
   8   -347.7302567 -0.125929E-06  0.714E-04    0.62      10.5  T
   9   -347.7302567 -0.247041E-07  0.554E-04    0.62      13.5  T
     SCC iter.                  ...        0 min,  0.378 sec
     gradient                   ...        0 min,  0.114 sec
 * total energy  :  -343.4143357 Eh     change       -0.5780580E-03 Eh
   gradient norm :     0.0075821 Eh/α   predicted    -0.5617009E-03 (  -2.83%)
   displ. norm   :     0.7698572 α      lambda       -0.6786389E-03
   maximum displ.:     0.4484527 α      in ANC's #11, #3, #12, ...

........................................................................
.............................. CYCLE   36 ..............................
........................................................................
   1   -347.7295112 -0.347730E+03  0.493E-02    0.61       0.0  T
   2   -347.7295138 -0.259051E-05  0.282E-02    0.61       1.0  T
   3   -347.7294956  0.182120E-04  0.901E-03    0.61       1.0  T
   4   -347.7295079 -0.122703E-04  0.546E-03    0.62       1.4  T
   5   -347.7295132 -0.534890E-05  0.292E-03    0.61       2.6  T
   6   -347.7295146 -0.138314E-05  0.161E-03    0.61       4.6  T
   7   -347.7295152 -0.617849E-06  0.648E-04    0.61      11.5  T
   8   -347.7295153 -0.448462E-07  0.456E-04    0.61      16.4  T
     SCC iter.                  ...        0 min,  0.336 sec
     gradient                   ...        0 min,  0.114 sec
 * total energy  :  -343.4148699 Eh     change       -0.5341266E-03 Eh
   gradient norm :     0.0083445 Eh/α   predicted    -0.5404289E-03 (   1.18%)
   displ. norm   :     0.7786434 α      lambda       -0.6064692E-03
   maximum displ.:     0.4567891 α      in ANC's #11, #3, #12, ...

........................................................................
.............................. CYCLE   37 ..............................
........................................................................
   1   -347.7291219 -0.347729E+03  0.476E-02    0.61       0.0  T
   2   -347.7291237 -0.173596E-05  0.273E-02    0.61       1.0  T
   3   -347.7291062  0.174456E-04  0.884E-03    0.61       1.0  T
   4   -347.7291176 -0.113503E-04  0.530E-03    0.61       1.4  T
   5   -347.7291230 -0.542026E-05  0.280E-03    0.61       2.7  T
   6   -347.7291245 -0.154623E-05  0.125E-03    0.61       6.0  T
   7   -347.7291249 -0.327611E-06  0.580E-04    0.61      12.9  T
   8   -347.7291249 -0.394427E-07  0.396E-04    0.61      18.9  T
     SCC iter.                  ...        0 min,  0.339 sec
     gradient                   ...        0 min,  0.114 sec
 * total energy  :  -343.4154124 Eh     change       -0.5425697E-03 Eh
   gradient norm :     0.0070044 Eh/α   predicted    -0.4870854E-03 ( -10.23%)
   displ. norm   :     0.7259385 α      lambda       -0.7195214E-03
   maximum displ.:     0.4207579 α      in ANC's #11, #3, #12, ...

........................................................................
.............................. CYCLE   38 ..............................
........................................................................
   1   -347.7383626 -0.347738E+03  0.483E-02    0.60       0.0  T
   2   -347.7383675 -0.485620E-05  0.273E-02    0.60       1.0  T
   3   -347.7383413  0.261396E-04  0.110E-02    0.60       1.0  T
   4   -347.7383504 -0.908598E-05  0.807E-03    0.60       1.0  T
   5   -347.7383671 -0.167166E-04  0.355E-03    0.60       2.1  T
   6   -347.7383697 -0.255595E-05  0.134E-03    0.60       5.6  T
   7   -347.7383698 -0.137706E-06  0.886E-04    0.60       8.4  T
   8   -347.7383699 -0.597304E-07  0.656E-04    0.60      11.4  T
     SCC iter.                  ...        0 min,  0.338 sec
     gradient                   ...        0 min,  0.114 sec
 * total energy  :  -343.4159053 Eh     change       -0.4928512E-03 Eh
   gradient norm :     0.0074227 Eh/α   predicted    -0.5493510E-03 (  11.46%)
   displ. norm   :     0.8377079 α      lambda       -0.6302490E-03
   maximum displ.:     0.4936320 α      in ANC's #11, #3, #12, ...

........................................................................
.............................. CYCLE   39 ..............................
........................................................................
   1   -347.7310890 -0.347731E+03  0.514E-02    0.60       0.0  T
   2   -347.7310913 -0.233398E-05  0.295E-02    0.60       1.0  T
   3   -347.7310419  0.494069E-04  0.134E-02    0.59       1.0  T
   4   -347.7310831 -0.411577E-04  0.613E-03    0.60       1.2  T
   5   -347.7310920 -0.889632E-05  0.251E-03    0.60       3.0  T
   6   -347.7310929 -0.977875E-06  0.134E-03    0.60       5.6  T
   7   -347.7310933 -0.356980E-06  0.608E-04    0.60      12.3  T
   8   -347.7310934 -0.627121E-07  0.335E-04    0.60      22.3  T
     SCC iter.                  ...        0 min,  0.338 sec
     gradient                   ...        0 min,  0.114 sec
 * total energy  :  -343.4164223 Eh     change       -0.5169974E-03 Eh
   gradient norm :     0.0064817 Eh/α   predicted    -0.5362658E-03 (   3.73%)
   displ. norm   :     0.8029502 α      lambda       -0.5099286E-03
   maximum displ.:     0.4797478 α      in ANC's #11, #3, #12, ...

........................................................................
.............................. CYCLE   40 ..............................
........................................................................
   1   -347.7298877 -0.347730E+03  0.476E-02    0.59       0.0  T
   2   -347.7298891 -0.141578E-05  0.272E-02    0.59       1.0  T
   3   -347.7298753  0.137572E-04  0.761E-03    0.59       1.0  T
   4   -347.7298817 -0.638213E-05  0.544E-03    0.59       1.4  T
   5   -347.7298888 -0.708589E-05  0.246E-03    0.59       3.0  T
   6   -347.7298900 -0.122762E-05  0.760E-04    0.59       9.8  T
   7   -347.7298901 -0.587909E-07  0.502E-04    0.59      14.9  T
   8   -347.7298901 -0.626159E-08  0.418E-04    0.59      17.9  T
     SCC iter.                  ...        0 min,  0.330 sec
     gradient                   ...        0 min,  0.114 sec
 * total energy  :  -343.4168805 Eh     change       -0.4582052E-03 Eh
   gradient norm :     0.0068111 Eh/α   predicted    -0.4193486E-03 (  -8.48%)
   displ. norm   :     0.7603408 α      lambda       -0.5732561E-03
   maximum displ.:     0.4550682 α      in ANC's #11, #3, #12, ...

........................................................................
.............................. CYCLE   41 ..............................
........................................................................
   1   -347.7348175 -0.347735E+03  0.470E-02    0.59       0.0  T
   2   -347.7348194 -0.197811E-05  0.269E-02    0.59       1.0  T
   3   -347.7348112  0.820067E-05  0.714E-03    0.59       1.0  T
   4   -347.7348194 -0.814775E-05  0.293E-03    0.59       2.6  T
   5   -347.7348198 -0.394916E-06  0.196E-03    0.59       3.8  T
   6   -347.7348205 -0.729026E-06  0.859E-04    0.59       8.7  T
   7   -347.7348206 -0.690937E-07  0.636E-04    0.59      11.8  T
     SCC iter.                  ...        0 min,  0.293 sec
     gradient                   ...        0 min,  0.115 sec
 * total energy  :  -343.4173684 Eh     change       -0.4879332E-03 Eh
   gradient norm :     0.0042425 Eh/α   predicted    -0.4523335E-03 (  -7.30%)
   displ. norm   :     0.8500088 α      lambda       -0.5565341E-03
   maximum displ.:     0.5142184 α      in ANC's #11, #3, #12, ...

........................................................................
.............................. CYCLE   42 ..............................
........................................................................
   1   -347.7353648 -0.347735E+03  0.524E-02    0.59       0.0  T
   2   -347.7353670 -0.220318E-05  0.301E-02    0.59       1.0  T
   3   -347.7353267  0.403652E-04  0.119E-02    0.59       1.0  T
   4   -347.7353577 -0.310323E-04  0.631E-03    0.59       1.2  T
   5   -347.7353679 -0.101938E-04  0.236E-03    0.59       3.2  T
   6   -347.7353687 -0.781715E-06  0.103E-03    0.59       7.3  T
   7   -347.7353688 -0.109877E-06  0.668E-04    0.59      11.2  T
   8   -347.7353688 -0.527166E-07  0.466E-04    0.59      16.0  T
     SCC iter.                  ...        0 min,  0.349 sec
     gradient                   ...        0 min,  0.114 sec
 * total energy  :  -343.4177677 Eh     change       -0.3992495E-03 Eh
   gradient norm :     0.0083199 Eh/α   predicted    -0.4793247E-03 (  20.06%)
   displ. norm   :     0.7580520 α      lambda       -0.5307600E-03
   maximum displ.:     0.4527591 α      in ANC's #11, #3, #12, ...
 * RMSD in coord.:     1.0558601 α      energy gain  -0.1258051E-01 Eh

generating ANC from model Hessian ...
Using Lindh-Hessian (1995)
 Shifting diagonal of input Hessian by   1.000386403720221E-002
 Lowest  eigenvalues of input Hessian
    0.010000    0.000000    0.000000    0.000000    0.000000    0.000000
    0.000000    0.010010    0.010016    0.010019    0.010030    0.010032
    0.010074    0.010084    0.010108    0.010118    0.010131    0.010139
 Highest eigenvalues
    2.076134    2.079061    2.091632    2.138534    2.152045    2.160972
 

........................................................................
.............................. CYCLE   43 ..............................
........................................................................
   1   -347.7360278 -0.347736E+03  0.449E-02    0.59       0.0  T
   2   -347.7360290 -0.125458E-05  0.258E-02    0.59       1.0  T
   3   -347.7360074  0.215820E-04  0.923E-03    0.59       1.0  T
   4   -347.7360231 -0.156488E-04  0.503E-03    0.59       1.5  T
   5   -347.7360291 -0.600594E-05  0.219E-03    0.59       3.4  T
   6   -347.7360301 -0.967634E-06  0.745E-04    0.59      10.0  T
   7   -347.7360301 -0.853585E-07  0.401E-04    0.59      18.6  T
     SCC iter.                  ...        0 min,  0.304 sec
     gradient                   ...        0 min,  0.114 sec
 * total energy  :  -343.4182214 Eh     change       -0.4537550E-03 Eh
   gradient norm :     0.0041406 Eh/α   predicted     0.0000000E+00 (-100.00%)
   displ. norm   :     0.0664445 α      lambda       -0.8887889E-04
   maximum displ.:     0.0330667 α      in ANC's #11, #3, #2, ...

........................................................................
.............................. CYCLE   44 ..............................
........................................................................
   1   -347.7379195 -0.347738E+03  0.745E-03    0.59       0.0  T
   2   -347.7379196 -0.138194E-06  0.442E-03    0.59       1.7  T
   3   -347.7379172  0.239606E-05  0.340E-03    0.59       2.2  T
   4   -347.7379189 -0.168563E-05  0.182E-03    0.59       4.1  T
   5   -347.7379198 -0.861119E-06  0.699E-04    0.59      10.7  T
   6   -347.7379199 -0.101784E-06  0.316E-04    0.59      23.7  T
     SCC iter.                  ...        0 min,  0.261 sec
     gradient                   ...        0 min,  0.114 sec
 * total energy  :  -343.4182941 Eh     change       -0.7266375E-04 Eh
   gradient norm :     0.0019813 Eh/α   predicted    -0.4463797E-04 ( -38.57%)
   displ. norm   :     0.2906986 α      lambda       -0.1580322E-03
   maximum displ.:     0.1465825 α      in ANC's #11, #3, #2, ...

........................................................................
.............................. CYCLE   45 ..............................
........................................................................
   1   -347.7414766 -0.347741E+03  0.250E-02    0.59       0.0  T
   2   -347.7414772 -0.606403E-06  0.147E-02    0.59       1.0  T
   3   -347.7414425  0.346971E-04  0.119E-02    0.59       1.0  T
   4   -347.7414701 -0.275497E-04  0.569E-03    0.59       1.3  T
   5   -347.7414788 -0.877614E-05  0.195E-03    0.59       3.8  T
   6   -347.7414795 -0.612260E-06  0.106E-03    0.59       7.1  T
   7   -347.7414796 -0.113877E-06  0.719E-04    0.59      10.4  T
   8   -347.7414796 -0.228583E-07  0.590E-04    0.59      12.7  T
     SCC iter.                  ...        0 min,  0.346 sec
     gradient                   ...        0 min,  0.114 sec
 * total energy  :  -343.4184357 Eh     change       -0.1416422E-03 Eh
   gradient norm :     0.0045534 Eh/α   predicted    -0.8198443E-04 ( -42.12%)
   displ. norm   :     0.1554050 α      lambda       -0.8857704E-04
   maximum displ.:     0.0825404 α      in ANC's #11, #3, #2, ...

........................................................................
.............................. CYCLE   46 ..............................
........................................................................
   1   -347.7410467 -0.347741E+03  0.110E-02    0.59       0.0  T
   2   -347.7410467  0.243684E-07  0.641E-03    0.59       1.2  T
   3   -347.7410393  0.740119E-05  0.494E-03    0.59       1.5  T
   4   -347.7410466 -0.729119E-05  0.127E-03    0.59       5.9  T
   5   -347.7410469 -0.280392E-06  0.734E-04    0.59      10.2  T
   6   -347.7410470 -0.750098E-07  0.437E-04    0.59      17.1  T
     SCC iter.                  ...        0 min,  0.260 sec
     gradient                   ...        0 min,  0.114 sec
 * total energy  :  -343.4185179 Eh     change       -0.8218348E-04 Eh
   gradient norm :     0.0043072 Eh/α   predicted    -0.4535844E-04 ( -44.81%)
   displ. norm   :     0.3967881 α      lambda       -0.2334931E-03
   maximum displ.:     0.2070279 α      in ANC's #11, #3, #2, ...

........................................................................
.............................. CYCLE   47 ..............................
........................................................................
   1   -347.7387347 -0.347739E+03  0.277E-02    0.59       0.0  T
   2   -347.7387347  0.850420E-07  0.162E-02    0.59       1.0  T
   3   -347.7386946  0.400705E-04  0.116E-02    0.59       1.0  T
   4   -347.7387338 -0.392538E-04  0.290E-03    0.59       2.6  T
   5   -347.7387357 -0.183487E-05  0.125E-03    0.59       6.0  T
   6   -347.7387359 -0.197655E-06  0.585E-04    0.59      12.8  T
   7   -347.7387359 -0.372906E-07  0.370E-04    0.59      20.2  T
     SCC iter.                  ...        0 min,  0.304 sec
     gradient                   ...        0 min,  0.114 sec
 * total energy  :  -343.4187125 Eh     change       -0.1945693E-03 Eh
   gradient norm :     0.0028852 Eh/α   predicted    -0.1351273E-03 ( -30.55%)
   displ. norm   :     0.4949025 α      lambda       -0.2245067E-03
   maximum displ.:     0.2611868 α      in ANC's #11, #3, #2, ...

........................................................................
.............................. CYCLE   48 ..............................
........................................................................
   1   -347.7361326 -0.347736E+03  0.329E-02    0.59       0.0  T
   2   -347.7361324  0.195775E-06  0.192E-02    0.59       1.0  T
   3   -347.7360764  0.560371E-04  0.136E-02    0.59       1.0  T
   4   -347.7361310 -0.546082E-04  0.361E-03    0.59       2.1  T
   5   -347.7361339 -0.287576E-05  0.153E-03    0.59       4.9  T
   6   -347.7361341 -0.247245E-06  0.812E-04    0.59       9.2  T
   7   -347.7361342 -0.963112E-07  0.483E-04    0.59      15.5  T
     SCC iter.                  ...        0 min,  0.302 sec
     gradient                   ...        0 min,  0.114 sec
 * total energy  :  -343.4188935 Eh     change       -0.1809794E-03 Eh
   gradient norm :     0.0039236 Eh/α   predicted    -0.1397522E-03 ( -22.78%)
   displ. norm   :     0.4505842 α      lambda       -0.1874850E-03
   maximum displ.:     0.2403897 α      in ANC's #11, #3, #2, ...

........................................................................
.............................. CYCLE   49 ..............................
........................................................................
   1   -347.7351960 -0.347735E+03  0.281E-02    0.59       0.0  T
   2   -347.7351960  0.751044E-08  0.163E-02    0.59       1.0  T
   3   -347.7351653  0.307645E-04  0.102E-02    0.59       1.0  T
   4   -347.7351945 -0.292715E-04  0.317E-03    0.59       2.4  T
   5   -347.7351968 -0.227427E-05  0.136E-03    0.59       5.5  T
   6   -347.7351970 -0.183747E-06  0.785E-04    0.59       9.5  T
   7   -347.7351971 -0.112667E-06  0.413E-04    0.59      18.1  T
     SCC iter.                  ...        0 min,  0.299 sec
     gradient                   ...        0 min,  0.114 sec
 * total energy  :  -343.4190597 Eh     change       -0.1662167E-03 Eh
   gradient norm :     0.0048450 Eh/α   predicted    -0.1127766E-03 ( -32.15%)
   displ. norm   :     0.5209917 α      lambda       -0.2624967E-03
   maximum displ.:     0.2795226 α      in ANC's #11, #3, #2, ...

........................................................................
.............................. CYCLE   50 ..............................
........................................................................
   1   -347.7361591 -0.347736E+03  0.310E-02    0.59       0.0  T
   2   -347.7361595 -0.441478E-06  0.178E-02    0.59       1.0  T
   3   -347.7361409  0.185744E-04  0.818E-03    0.59       1.0  T
   4   -347.7361567 -0.157769E-04  0.364E-03    0.59       2.1  T
   5   -347.7361598 -0.307176E-05  0.167E-03    0.59       4.5  T
   6   -347.7361602 -0.435140E-06  0.813E-04    0.59       9.2  T
   7   -347.7361603 -0.122387E-06  0.417E-04    0.59      17.9  T
     SCC iter.                  ...        0 min,  0.298 sec
     gradient                   ...        0 min,  0.114 sec
 * total energy  :  -343.4192979 Eh     change       -0.2381944E-03 Eh
   gradient norm :     0.0046838 Eh/α   predicted    -0.1668735E-03 ( -29.94%)
   displ. norm   :     0.6552053 α      lambda       -0.3521570E-03
   maximum displ.:     0.3527152 α      in ANC's #11, #3, #2, ...

........................................................................
.............................. CYCLE   51 ..............................
........................................................................
   1   -347.7382024 -0.347738E+03  0.379E-02    0.59       0.0  T
   2   -347.7382034 -0.102361E-05  0.216E-02    0.59       1.0  T
   3   -347.7381923  0.110951E-04  0.681E-03    0.59       1.1  T
   4   -347.7381991 -0.677025E-05  0.429E-03    0.59       1.7  T
   5   -347.7382029 -0.379512E-05  0.227E-03    0.59       3.3  T
   6   -347.7382040 -0.112233E-05  0.903E-04    0.59       8.3  T
   7   -347.7382042 -0.163089E-06  0.430E-04    0.59      17.4  T
   8   -347.7382042 -0.223076E-07  0.299E-04    0.59      25.0  T
     SCC iter.                  ...        0 min,  0.338 sec
     gradient                   ...        0 min,  0.114 sec
 * total energy  :  -343.4196118 Eh     change       -0.3139313E-03 Eh
   gradient norm :     0.0040406 Eh/α   predicted    -0.2516710E-03 ( -19.83%)
   displ. norm   :     0.7438607 α      lambda       -0.3612250E-03
   maximum displ.:     0.4029400 α      in ANC's #11, #3, #2, ...

........................................................................
.............................. CYCLE   52 ..............................
........................................................................
   1   -347.7395585 -0.347740E+03  0.418E-02    0.59       0.0  T
   2   -347.7395597 -0.124296E-05  0.238E-02    0.59       1.0  T
   3   -347.7395506  0.915113E-05  0.672E-03    0.59       1.1  T
   4   -347.7395560 -0.548338E-05  0.422E-03    0.59       1.8  T
   5   -347.7395583 -0.225621E-05  0.284E-03    0.59       2.6  T
   6   -347.7395604 -0.211798E-05  0.848E-04    0.59       8.8  T
   7   -347.7395606 -0.153159E-06  0.370E-04    0.59      20.2  T
   8   -347.7395606 -0.685350E-08  0.297E-04    0.59      25.1  T
     SCC iter.                  ...        0 min,  0.340 sec
     gradient                   ...        0 min,  0.114 sec
 * total energy  :  -343.4199373 Eh     change       -0.3254741E-03 Eh
   gradient norm :     0.0036052 Eh/α   predicted    -0.2805515E-03 ( -13.80%)
   displ. norm   :     0.7749539 α      lambda       -0.3454400E-03
   maximum displ.:     0.4221983 α      in ANC's #11, #3, #2, ...

........................................................................
.............................. CYCLE   53 ..............................
........................................................................
   1   -347.7401894 -0.347740E+03  0.422E-02    0.59       0.0  T
   2   -347.7401907 -0.125370E-05  0.240E-02    0.59       1.0  T
   3   -347.7401799  0.108111E-04  0.728E-03    0.59       1.0  T
   4   -347.7401871 -0.721250E-05  0.431E-03    0.59       1.7  T
   5   -347.7401892 -0.215826E-05  0.294E-03    0.59       2.5  T
   6   -347.7401915 -0.220925E-05  0.963E-04    0.59       7.8  T
   7   -347.7401917 -0.211532E-06  0.425E-04    0.59      17.6  T
   8   -347.7401917 -0.102237E-07  0.345E-04    0.59      21.6  T
     SCC iter.                  ...        0 min,  0.336 sec
     gradient                   ...        0 min,  0.114 sec
 * total energy  :  -343.4202552 Eh     change       -0.3179660E-03 Eh
   gradient norm :     0.0031623 Eh/α   predicted    -0.2764481E-03 ( -13.06%)
   displ. norm   :     0.7840142 α      lambda       -0.3379796E-03
   maximum displ.:     0.4286067 α      in ANC's #11, #3, #2, ...

........................................................................
.............................. CYCLE   54 ..............................
........................................................................
   1   -347.7404740 -0.347740E+03  0.416E-02    0.59       0.0  T
   2   -347.7404751 -0.114079E-05  0.237E-02    0.59       1.0  T
   3   -347.7404574  0.176993E-04  0.865E-03    0.59       1.0  T
   4   -347.7404697 -0.122612E-04  0.497E-03    0.59       1.5  T
   5   -347.7404745 -0.483554E-05  0.265E-03    0.59       2.8  T
   6   -347.7404761 -0.157337E-05  0.957E-04    0.59       7.8  T
   7   -347.7404763 -0.192203E-06  0.454E-04    0.59      16.5  T
   8   -347.7404763 -0.108702E-07  0.372E-04    0.59      20.1  T
     SCC iter.                  ...        0 min,  0.338 sec
     gradient                   ...        0 min,  0.114 sec
 * total energy  :  -343.4205688 Eh     change       -0.3135570E-03 Eh
   gradient norm :     0.0027421 Eh/α   predicted    -0.2728685E-03 ( -12.98%)
   displ. norm   :     0.7963205 α      lambda       -0.3335743E-03
   maximum displ.:     0.4358649 α      in ANC's #11, #3, #2, ...

........................................................................
.............................. CYCLE   55 ..............................
........................................................................
   1   -347.7404297 -0.347740E+03  0.416E-02    0.59       0.0  T
   2   -347.7404304 -0.760906E-06  0.236E-02    0.59       1.0  T
   3   -347.7403939  0.365295E-04  0.115E-02    0.59       1.0  T
   4   -347.7404257 -0.317616E-04  0.491E-03    0.59       1.5  T
[...]
   120  16 S    2.493 --   119 C    1.099    94 C    1.078
   121   6 C    3.980 --   122 C    1.672   108 C    1.201   178 H    0.959
   122   6 C    3.925 --   121 C    1.672   123 S    1.155   179 H    0.969
   123  16 S    2.551 --   122 C    1.155   107 C    1.112
   124   1 H    0.996 --     1 C    0.969
   125   1 H    0.997 --     2 C    0.959
   126   1 H    0.996 --     8 C    0.970
   127   1 H    0.996 --     8 C    0.964
   128   1 H    0.997 --     9 C    0.984
   129   1 H    0.998 --     9 C    0.988
   130   1 H    0.998 --     9 C    0.988
   131   1 H    0.996 --    20 C    0.969
   132   1 H    0.995 --    20 C    0.964
   133   1 H    0.998 --    21 C    0.988
   134   1 H    0.998 --    21 C    0.987
   135   1 H    0.997 --    21 C    0.984
   136   1 H    0.997 --    28 C    0.956
   137   1 H    0.997 --    32 C    0.954
   138   1 H    0.996 --    38 C    0.966
   139   1 H    0.996 --    38 C    0.968
   140   1 H    0.997 --    39 C    0.984
   141   1 H    0.998 --    39 C    0.988
   142   1 H    0.998 --    39 C    0.987
   143   1 H    0.996 --    50 C    0.962
   144   1 H    0.996 --    50 C    0.967
   145   1 H    0.997 --    51 C    0.985
   146   1 H    0.997 --    51 C    0.987
   147   1 H    0.998 --    51 C    0.985
   148   1 H    0.997 --    58 C    0.952
   149   1 H    0.997 --    66 C    0.950
   150   1 H    0.997 --    69 C    0.976
   151   1 H    0.995 --    69 C    0.980
   152   1 H    0.997 --    69 C    0.976
   153   1 H    0.996 --    70 C    0.967
   154   1 H    0.996 --    71 C    0.957
   155   1 H    0.996 --    77 C    0.952
   156   1 H    0.995 --    80 C    0.979
   157   1 H    0.997 --    80 C    0.976
   158   1 H    0.997 --    80 C    0.976
   159   1 H    0.997 --    81 C    0.965
   160   1 H    0.997 --    82 C    0.955
   161   1 H    0.996 --    88 C    0.953
   162   1 H    0.995 --    91 C    0.979
   163   1 H    0.997 --    91 C    0.976
   164   1 H    0.997 --    91 C    0.976
   165   1 H    0.997 --    92 C    0.965
   166   1 H    0.997 --    93 C    0.956
   167   1 H    0.997 --    95 C    0.951
   168   1 H    0.996 --   101 C    0.967
   169   1 H    0.996 --   101 C    0.966
   170   1 H    0.997 --   102 C    0.985
   171   1 H    0.998 --   102 C    0.988
   172   1 H    0.998 --   102 C    0.987
   173   1 H    0.996 --   113 C    0.970
   174   1 H    0.995 --   113 C    0.964
   175   1 H    0.998 --   114 C    0.988
   176   1 H    0.997 --   114 C    0.984
   177   1 H    0.998 --   114 C    0.988
   178   1 H    0.997 --   121 C    0.959
   179   1 H    0.996 --   122 C    0.969
 ---------------------------------------------------------------------------

Topologies differ in bond orders
Writing corrected topology to xtbtopo.mol

molecular dipole:
                 x           y           z       tot (Debye)
 q only:       -1.308       2.623      -1.962
   full:       -0.826       1.324      -1.781       6.020
molecular quadrupole (traceless):
                xx          xy          yy          xz          yz          zz
 q only:      -81.277       5.183      28.380      66.206     -32.274      52.897
  q+dip:      -42.091      14.522       8.159      54.610      -6.536      33.932
   full:      -44.623       8.826      11.511      51.743      -7.009      33.112

           -------------------------------------------------
          |                Geometry Summary                 |
           -------------------------------------------------

      molecular mass/u    :     2127.8483976
   center of mass at/Å    :        0.1937680      -0.7125514       0.2173865
  moments of inertia/u·Å² :        0.5489153E+05   0.1845332E+06   0.1998382E+06
rotational constants/cm⁻¹ :        0.3071081E-03   0.9135285E-04   0.8435641E-04

 * 193 selected distances

     #   Z          #   Z                                           value/Å
     1   6 C        2   6 C                                       1.3484414
     2   6 C        3   6 C                                       1.4255773
     3   6 C        4   6 C                                       1.4036361
     5   6 C        6  16 S                                       1.7387490
     6  16 S        7   6 C                                       1.7306492
     7   6 C        8   6 C                                       1.4888580
     8   6 C        9   6 C                                       1.5306590
     7   6 C       10   6 C                                       1.3625370
    10   6 C       11  17 Cl                                      1.7155580
     5   6 C       12   6 C                                       1.3670876
    10   6 C       12   6 C                                       1.4211462
    12   6 C       13  17 Cl                                      1.7138123
     4   6 C       14   6 C                                       1.3891308
    14   6 C       15   6 C                                       1.4164783
    15   6 C       16   6 C                                       1.4050579
    17   6 C       18  16 S                                       1.7412623
    18  16 S       19   6 C                                       1.7302290
    19   6 C       20   6 C                                       1.4890779
    20   6 C       21   6 C                                       1.5305125
    19   6 C       22   6 C                                       1.3626387
    17   6 C       23   6 C                                       1.3669023
    22   6 C       23   6 C                                       1.4215979
    23   6 C       24  17 Cl                                      1.7134471
    22   6 C       25  17 Cl                                      1.7158036
     3   6 C       26   6 C                                       1.4160949
    16   6 C       26   6 C                                       1.3897919
     1   6 C       27  16 S                                       1.7287662
    26   6 C       27  16 S                                       1.7403570
    15   6 C       28   6 C                                       1.4141177
    28   6 C       29   6 C                                       1.3655420
    14   6 C       30  16 S                                       1.7400605
    29   6 C       30  16 S                                       1.7478762
    29   6 C       31   6 C                                       1.4268404
    31   6 C       32   6 C                                       1.3666232
    32   6 C       33   6 C                                       1.4117188
    33   6 C       34   6 C                                       1.4104585
    35   6 C       36  16 S                                       1.7416203
    36  16 S       37   6 C                                       1.7306766
    37   6 C       38   6 C                                       1.4888390
    38   6 C       39   6 C                                       1.5307995
    37   6 C       40   6 C                                       1.3621139
    40   6 C       41  17 Cl                                      1.7166337
    35   6 C       42   6 C                                       1.3678813
    40   6 C       42   6 C                                       1.4214724
    42   6 C       43  17 Cl                                      1.7135199
    34   6 C       44   6 C                                       1.3862026
    44   6 C       45   6 C                                       1.4179465
    45   6 C       46   6 C                                       1.4081845
    47   6 C       48  16 S                                       1.7405686
    48  16 S       49   6 C                                       1.7314847
    49   6 C       50   6 C                                       1.4888413
    50   6 C       51   6 C                                       1.5298731
    49   6 C       52   6 C                                       1.3620454
    47   6 C       53   6 C                                       1.3665242
    52   6 C       53   6 C                                       1.4222404
    53   6 C       54  17 Cl                                      1.7139197
    52   6 C       55  17 Cl                                      1.7163686
    33   6 C       56   6 C                                       1.4182858
    46   6 C       56   6 C                                       1.3871540
    31   6 C       57  16 S                                       1.7477094
    56   6 C       57  16 S                                       1.7395313
    45   6 C       58   6 C                                       1.4072100
    58   6 C       59   6 C                                       1.3733014
    44   6 C       60  16 S                                       1.7420621
    59   6 C       60  16 S                                       1.7561649 (max)
    59   6 C       61   6 C                                       1.4105451
    61   6 C       62  16 S                                       1.7397511
    62  16 S       63   6 C                                       1.7401139
    63   6 C       64   6 C                                       1.4110123
    61   6 C       65   6 C                                       1.4020797
    64   6 C       65   6 C                                       1.4274355
    65   6 C       66   6 C                                       1.4057687
    66   6 C       67   6 C                                       1.3738951
    67   6 C       68   8 O                                       1.3559198
    68   8 O       69   6 C                                       1.4087273
    67   6 C       70   6 C                                       1.4174748
    64   6 C       71   6 C                                       1.4070944
    70   6 C       71   6 C                                       1.3634087
    63   6 C       72   6 C                                       1.4013744
    72   6 C       73  16 S                                       1.7431475
    73  16 S       74   6 C                                       1.7410710
    74   6 C       75   6 C                                       1.4136558
    72   6 C       76   6 C                                       1.4145969
    75   6 C       76   6 C                                       1.4260688
    76   6 C       77   6 C                                       1.3982496
    77   6 C       78   6 C                                       1.3812382
    78   6 C       79   8 O                                       1.3594116
    79   8 O       80   6 C                                       1.4075932
    78   6 C       81   6 C                                       1.4084000
    75   6 C       82   6 C                                       1.4026378
    81   6 C       82   6 C                                       1.3694107
    74   6 C       83   6 C                                       1.4013053
    83   6 C       84  16 S                                       1.7404106
    84  16 S       85   6 C                                       1.7361017
    85   6 C       86   6 C                                       1.4018760
    83   6 C       87   6 C                                       1.4139957
    86   6 C       87   6 C                                       1.4301845
    87   6 C       88   6 C                                       1.3982259
    88   6 C       89   6 C                                       1.3806229
    89   6 C       90   8 O                                       1.3591037
    90   8 O       91   6 C                                       1.4075468
    89   6 C       92   6 C                                       1.4114053
    86   6 C       93   6 C                                       1.4058288
    92   6 C       93   6 C                                       1.3668934
    85   6 C       94   6 C                                       1.4132976
    94   6 C       95   6 C                                       1.3729230
    95   6 C       96   6 C                                       1.4085952
    96   6 C       97   6 C                                       1.4066067
    98   6 C       99  16 S                                       1.7406078
    99  16 S      100   6 C                                       1.7311034
   100   6 C      101   6 C                                       1.4889376
   101   6 C      102   6 C                                       1.5309380
   100   6 C      103   6 C                                       1.3621894
   103   6 C      104  17 Cl                                      1.7161210
    98   6 C      105   6 C                                       1.3670362
   103   6 C      105   6 C                                       1.4218778
   105   6 C      106  17 Cl                                      1.7134780
    97   6 C      107   6 C                                       1.3895433
   107   6 C      108   6 C                                       1.4156454
   108   6 C      109   6 C                                       1.4057558
   110   6 C      111  16 S                                       1.7388193
   111  16 S      112   6 C                                       1.7307939
   112   6 C      113   6 C                                       1.4888086
   113   6 C      114   6 C                                       1.5304989
   112   6 C      115   6 C                                       1.3623442
   110   6 C      116   6 C                                       1.3668417
   115   6 C      116   6 C                                       1.4210172
   116   6 C      117  17 Cl                                      1.7143114
   115   6 C      118  17 Cl                                      1.7159994
    96   6 C      119   6 C                                       1.4169255
   109   6 C      119   6 C                                       1.3867025
    94   6 C      120  16 S                                       1.7551954
   119   6 C      120  16 S                                       1.7424980
   108   6 C      121   6 C                                       1.4245747
   121   6 C      122   6 C                                       1.3491067
   107   6 C      123  16 S                                       1.7404462
   122   6 C      123  16 S                                       1.7285371
     1   6 C      124   1 H                                       1.0724471
     2   6 C      125   1 H                                       1.0743163
     8   6 C      126   1 H                                       1.0911777
     8   6 C      127   1 H                                       1.0915844
     9   6 C      128   1 H                                       1.0865905
     9   6 C      129   1 H                                       1.0874682
     9   6 C      130   1 H                                       1.0870174
    20   6 C      131   1 H                                       1.0913014
    20   6 C      132   1 H                                       1.0915130
    21   6 C      133   1 H                                       1.0868943
    21   6 C      134   1 H                                       1.0873178
    21   6 C      135   1 H                                       1.0866749
    28   6 C      136   1 H                                       1.0732106
    32   6 C      137   1 H                                       1.0729982
    38   6 C      138   1 H                                       1.0911697
    38   6 C      139   1 H                                       1.0916901
    39   6 C      140   1 H                                       1.0864544
    39   6 C      141   1 H                                       1.0869729
    39   6 C      142   1 H                                       1.0876582
    50   6 C      143   1 H                                       1.0928350
    50   6 C      144   1 H                                       1.0911801
    51   6 C      145   1 H                                       1.0867979
    51   6 C      146   1 H                                       1.0870228
    51   6 C      147   1 H                                       1.0873242
    58   6 C      148   1 H                                       1.0746678
    66   6 C      149   1 H                                       1.0763537
    69   6 C      150   1 H                                       1.0943608
    69   6 C      151   1 H                                       1.0886027
    69   6 C      152   1 H                                       1.0943900
    70   6 C      153   1 H                                       1.0780413
    71   6 C      154   1 H                                       1.0781253
    77   6 C      155   1 H                                       1.0765007
    80   6 C      156   1 H                                       1.0887719
    80   6 C      157   1 H                                       1.0947276
    80   6 C      158   1 H                                       1.0946848
    81   6 C      159   1 H                                       1.0780081
    82   6 C      160   1 H                                       1.0776972
    88   6 C      161   1 H                                       1.0767507
    91   6 C      162   1 H                                       1.0888512
    91   6 C      163   1 H                                       1.0947559
    91   6 C      164   1 H                                       1.0946020
    92   6 C      165   1 H                                       1.0780759
    93   6 C      166   1 H                                       1.0780571
    95   6 C      167   1 H                                       1.0745255
   101   6 C      168   1 H                                       1.0918485
   101   6 C      169   1 H                                       1.0911503
   102   6 C      170   1 H                                       1.0871623
   102   6 C      171   1 H                                       1.0872262
   102   6 C      172   1 H                                       1.0878294
   113   6 C      173   1 H                                       1.0912600
   113   6 C      174   1 H                                       1.0917178
   114   6 C      175   1 H                                       1.0874107
   114   6 C      176   1 H                                       1.0865942
   114   6 C      177   1 H                                       1.0869901
   121   6 C      178   1 H                                       1.0743650
   122   6 C      179   1 H                                       1.0723826 (min)

 * 5 distinct bonds (by element types)

   Z      Z             #   av. dist./Å        max./Å        min./Å
   1 H    6 C          56     1.0854662     1.0947559     1.0723826
   6 C    6 C          89     1.4117336     1.5309380     1.3484414
   6 C    8 O           6     1.3830504     1.4087273     1.3559198
   6 C   16 S          30     1.7392121     1.7561649     1.7285371
   6 C   17 Cl         12     1.7149144     1.7166337     1.7134471


optimized geometry written to: xtbopt.mol


           -------------------------------------------------
          | TOTAL ENERGY             -343.443077399277 Eh   |
          | GRADIENT NORM               0.000180069050 Eh/α |
          | HOMO-LUMO GAP               0.604460363481 eV   |
           -------------------------------------------------

------------------------------------------------------------------------
 * finished run on 2022/03/01 at 11:21:13.481     
------------------------------------------------------------------------
 total:
 * wall-time:     0 d,  0 h,  2 min, 33.425 sec
 *  cpu-time:     0 d,  0 h, 20 min, 22.741 sec
 * ratio c/w:     7.970 speedup
 SCF:
 * wall-time:     0 d,  0 h,  0 min,  0.947 sec
 *  cpu-time:     0 d,  0 h,  0 min,  7.557 sec
 * ratio c/w:     7.979 speedup
 ANC optimizer:
 * wall-time:     0 d,  0 h,  2 min, 31.706 sec
 *  cpu-time:     0 d,  0 h, 20 min, 13.461 sec
 * ratio c/w:     7.999 speedup

