      -----------------------------------------------------------      
     |                   =====================                   |     
     |                           x T B                           |     
     |                   =====================                   |     
     |                         S. Grimme                         |     
     |          Mulliken Center for Theoretical Chemistry        |     
     |                    University of Bonn                     |     
      -----------------------------------------------------------      

   * xtb version 6.4.1 (unknown) compiled by 'oda6@login1.crc.pitt.edu' on 2021-06-25

   xtb is free software: you can redistribute it and/or modify it under
   the terms of the GNU Lesser General Public License as published by
   the Free Software Foundation, either version 3 of the License, or
   (at your option) any later version.
   
   xtb is distributed in the hope that it will be useful,
   but WITHOUT ANY WARRANTY; without even the implied warranty of
   MERCHANTABILITY or FITNESS FOR A PARTICULAR PURPOSE.  See the
   GNU Lesser General Public License for more details.
   
   Cite this work as:
   * C. Bannwarth, E. Caldeweyher, S. Ehlert, A. Hansen, P. Pracht,
     J. Seibert, S. Spicher, S. Grimme, WIREs Comput. Mol. Sci., 2020, 11,
     e01493. DOI: 10.1002/wcms.1493
   
   for GFN2-xTB:
   * C. Bannwarth, S. Ehlert and S. Grimme., J. Chem. Theory Comput., 2019,
     15, 1652-1671. DOI: 10.1021/acs.jctc.8b01176
   for GFN1-xTB:
   * S. Grimme, C. Bannwarth, P. Shushkov, J. Chem. Theory Comput., 2017,
     13, 1989-2009. DOI: 10.1021/acs.jctc.7b00118
   for GFN0-xTB:
   * P. Pracht, E. Caldeweyher, S. Ehlert, S. Grimme, ChemRxiv, 2019, preprint.
     DOI: 10.26434/chemrxiv.8326202.v1
   for GFN-FF:
   * S. Spicher and S. Grimme, Angew. Chem. Int. Ed., 2020, 59, 15665-15673.
     DOI: 10.1002/anie.202004239
   
   for DFT-D4:
   * E. Caldeweyher, C. Bannwarth and S. Grimme, J. Chem. Phys., 2017,
     147, 034112. DOI: 10.1063/1.4993215
   * E. Caldeweyher, S. Ehlert, A. Hansen, H. Neugebauer, S. Spicher,
     C. Bannwarth and S. Grimme, J. Chem. Phys., 2019, 150, 154122.
     DOI: 10.1063/1.5090222
   * E. Caldeweyher, J.-M. Mewes, S. Ehlert and S. Grimme, Phys. Chem. Chem. Phys.
     2020, 22, 8499-8512. DOI: 10.1039/D0CP00502A
   
   for sTDA-xTB:
   * S. Grimme and C. Bannwarth, J. Chem. Phys., 2016, 145, 054103.
     DOI: 10.1063/1.4959605
   
   in the mass-spec context:
   * V. Asgeirsson, C. Bauer and S. Grimme, Chem. Sci., 2017, 8, 4879.
     DOI: 10.1039/c7sc00601b
   * J. Koopman and S. Grimme, ACS Omega 2019, 4, 12, 15120-15133.
     DOI: 10.1021/acsomega.9b02011
   
   for metadynamics refer to:
   * S. Grimme, J. Chem. Theory Comput., 2019, 155, 2847-2862
     DOI: 10.1021/acs.jctc.9b00143
   
   for SPH calculations refer to:
   * S. Spicher and S. Grimme, J. Chem. Theory Comput., 2021, 17, 1701-1714
     DOI: 10.1021/acs.jctc.0c01306
   
   with help from (in alphabetical order)
   P. Atkinson, C. Bannwarth, F. Bohle, G. Brandenburg, E. Caldeweyher
   M. Checinski, S. Dohm, S. Ehlert, S. Ehrlich, I. Gerasimov, J. Koopman
   C. Lavigne, S. Lehtola, F. März, M. Müller, F. Musil, H. Neugebauer
   J. Pisarek, C. Plett, P. Pracht, J. Seibert, P. Shushkov, S. Spicher
   M. Stahn, M. Steiner, T. Strunk, J. Stückrath, T. Rose, and J. Unsleber
   
 * started run on 2022/03/04 at 13:55:28.950     

           -------------------------------------------------
          |                Calculation Setup                |
           -------------------------------------------------

          program call               : /ihome/ghutchison/oda6/xtb/xtb-641/bin/xtb ../../FF_optimized/920_99_011010.mol -opt
          hostname                   : smp-n90
          coordinate file            : ../../FF_optimized/920_99_011010.mol
          omp threads                :                     8
          number of atoms            :                   212
          number of electrons        :                   662
          charge                     :                     0
          spin                       :                   0.0
          first test random number   :      0.94919900162234

   ID    Z sym.   atoms
    1    6 C      1, 3-9, 11-20, 22-24, 26-33, 35-38, 40, 42, 43, 45-52,
                  54-56, 58-65, 67-70, 72, 74, 75, 77, 79-85, 87-96, 98-100,
                  102-109, 111-114, 116, 118, 119, 121, 123-129, 131, 132
    2   16 S      2, 21, 34, 41, 44, 53, 66, 73, 76, 78, 97, 110, 117, 120,
                  122
    3    8 O      10, 86, 130
    4    9 F      25, 39, 57, 71, 101, 115
    5    1 H      133-212
########################################################################
[WARNING] Please study the warnings concerning your input carefully
-1- prog_main_parseArguments: the use of '-opt' is discouraged, please use '--opt' next time
########################################################################

           -------------------------------------------------
          |                 G F N 2 - x T B                 |
           -------------------------------------------------

        Reference                      10.1021/acs.jctc.8b01176
      * Hamiltonian:
        H0-scaling (s, p, d)           1.850000    2.230000    2.230000
        zeta-weighting                 0.500000
      * Dispersion:
        s8                             2.700000
        a1                             0.520000
        a2                             5.000000
        s9                             5.000000
      * Repulsion:
        kExp                           1.500000    1.000000
        rExp                           1.000000
      * Coulomb:
        alpha                          2.000000
        third order                    shell-resolved
        anisotropic                    true
        a3                             3.000000
        a5                             4.000000
        cn-shift                       1.200000
        cn-exp                         4.000000
        max-rad                        5.000000


          ...................................................
          :                      SETUP                      :
          :.................................................:
          :  # basis functions                 698          :
          :  # atomic orbitals                 683          :
          :  # shells                          359          :
          :  # electrons                       662          :
          :  max. iterations                   250          :
          :  Hamiltonian                  GFN2-xTB          :
          :  restarted?                      false          :
          :  GBSA solvation                  false          :
          :  PC potential                    false          :
          :  electronic temp.          300.0000000     K    :
          :  accuracy                    1.0000000          :
          :  -> integral cutoff          0.2500000E+02      :
          :  -> integral neglect         0.1000000E-07      :
          :  -> SCF convergence          0.1000000E-05 Eh   :
          :  -> wf. convergence          0.1000000E-03 e    :
          :  Broyden damping             0.4000000          :
          ...................................................

 iter      E             dE          RMSdq      gap      omega  full diag
   1   -365.8918019 -0.365892E+03  0.432E+00    1.36       0.0  T
   2   -366.1774391 -0.285637E+00  0.252E+00    1.25       1.0  T
   3   -365.9830120  0.194427E+00  0.128E+00    1.25       1.0  T
   4   -366.1918085 -0.208797E+00  0.627E-01    1.18       1.0  T
   5   -366.2471691 -0.553606E-01  0.298E-01    1.23       1.0  T
   6   -366.2579598 -0.107907E-01  0.142E-01    1.20       1.0  T
   7   -366.2602631 -0.230329E-02  0.673E-02    1.21       1.0  T
   8   -366.2609575 -0.694420E-03  0.277E-02    1.21       1.0  T
   9   -366.2610019 -0.443369E-04  0.183E-02    1.21       1.0  T
  10   -366.2610395 -0.376135E-04  0.942E-03    1.21       1.0  T
  11   -366.2610504 -0.108998E-04  0.328E-03    1.21       2.1  T
  12   -366.2610514 -0.106493E-05  0.149E-03    1.21       4.6  T
  13   -366.2610515 -0.106075E-06  0.858E-04    1.21       8.0  T
  14   -366.2610516 -0.692642E-07  0.413E-04    1.21      16.6  T

   *** convergence criteria satisfied after 14 iterations ***

         #    Occupation            Energy/Eh            Energy/eV
      -------------------------------------------------------------
         1        2.0000           -0.8236325             -22.4122
       ...           ...                  ...                  ...
       325        2.0000           -0.3628735              -9.8743
       326        2.0000           -0.3620197              -9.8511
       327        2.0000           -0.3615708              -9.8388
       328        2.0000           -0.3589882              -9.7686
       329        2.0000           -0.3576843              -9.7331
       330        2.0000           -0.3560124              -9.6876
       331        2.0000           -0.3524907              -9.5918 (HOMO)
       332                         -0.3080275              -8.3819 (LUMO)
       333                         -0.3008771              -8.1873
       334                         -0.2918357              -7.9413
       335                         -0.2870819              -7.8119
       336                         -0.2793717              -7.6021
       ...                                ...                  ...
       683                          0.7961242              21.6636
      -------------------------------------------------------------
                  HL-Gap            0.0444632 Eh            1.2099 eV
             Fermi-level           -0.3302452 Eh           -8.9864 eV

 SCC (total)                   0 d,  0 h,  0 min,  0.849 sec
 SCC setup                      ...        0 min,  0.004 sec (  0.448%)
 Dispersion                     ...        0 min,  0.011 sec (  1.267%)
 classical contributions        ...        0 min,  0.000 sec (  0.047%)
 integral evaluation            ...        0 min,  0.042 sec (  4.968%)
 iterations                     ...        0 min,  0.640 sec ( 75.307%)
 molecular gradient             ...        0 min,  0.149 sec ( 17.498%)
 printout                       ...        0 min,  0.004 sec (  0.456%)

         :::::::::::::::::::::::::::::::::::::::::::::::::::::
         ::                     SUMMARY                     ::
         :::::::::::::::::::::::::::::::::::::::::::::::::::::
         :: total energy            -361.337463244729 Eh    ::
         :: gradient norm              0.329242559580 Eh/a0 ::
         :: HOMO-LUMO gap              1.209904419899 eV    ::
         ::.................................................::
         :: SCC energy              -366.261051612393 Eh    ::
         :: -> isotropic ES            0.138907119981 Eh    ::
         :: -> anisotropic ES          0.026738014998 Eh    ::
         :: -> anisotropic XC          0.131252363108 Eh    ::
         :: -> dispersion             -0.324583035347 Eh    ::
         :: repulsion energy           4.920125069092 Eh    ::
         :: add. restraining           0.000000000000 Eh    ::
         :: total charge               0.000000000004 e     ::
         :::::::::::::::::::::::::::::::::::::::::::::::::::::

      ----------------------------------------------------------- 
     |                   =====================                   |
     |                        A N C O P T                        |
     |                   =====================                   |
     |               Approximate Normal Coordinate               |
     |                Rational Function Optimizer                |
      ----------------------------------------------------------- 

          ...................................................
          :                      SETUP                      :
          :.................................................:
          :   optimization level            normal          :
          :   max. optcycles                   636          :
          :   ANC micro-cycles                  20          :
          :   degrees of freedom               630          :
          :.................................................:
          :   RF solver                   davidson          :
          :   write xtbopt.log                true          :
          :   linear?                        false          :
          :   energy convergence         0.5000000E-05 Eh   :
          :   grad. convergence          0.1000000E-02 Eh/α :
          :   maximium RF displ.         1.0000000          :
          :   Hlow (freq-cutoff)         0.1000000E-01      :
          :   Hmax (freq-cutoff)         5.0000000          :
          :   S6 in model hess.         20.0000000          :
          ...................................................

generating ANC from model Hessian ...
Using Lindh-Hessian (1995)
 Shifting diagonal of input Hessian by   9.995343715386811E-003
 Lowest  eigenvalues of input Hessian
    0.000000    0.000000    0.000000    0.000000    0.000000    0.000000
    0.010000    0.010004    0.010007    0.010010    0.010019    0.010028
    0.010059    0.010065    0.010071    0.010082    0.010087    0.010098
 Highest eigenvalues
    2.082801    2.088918    2.090620    2.096677    2.097716    2.103300
 

........................................................................
.............................. CYCLE    1 ..............................
........................................................................
   1   -366.2610516 -0.366261E+03  0.199E-04    1.21       0.0  T
   2   -366.2610516  0.123589E-08  0.165E-04    1.21      41.7  T
   3   -366.2610516 -0.408915E-08  0.993E-05    1.21      69.2  T
     SCC iter.                  ...        0 min,  0.140 sec
     gradient                   ...        0 min,  0.146 sec
 * total energy  :  -361.3374633 Eh     change       -0.2244155E-07 Eh
   gradient norm :     0.3292434 Eh/α   predicted     0.0000000E+00 (-100.00%)
   displ. norm   :     0.4749659 α      lambda       -0.1124710E+00
   maximum displ.:     0.0809328 α      in ANC's #327, #397, #395, ...

........................................................................
.............................. CYCLE    2 ..............................
........................................................................
   1   -366.4545261 -0.366455E+03  0.262E-01    1.20       0.0  T
   2   -366.4553649 -0.838803E-03  0.152E-01    1.20       1.0  T
   3   -366.4544920  0.872935E-03  0.872E-02    1.22       1.0  T
   4   -366.4557594 -0.126738E-02  0.332E-02    1.21       1.0  T
   5   -366.4558584 -0.990453E-04  0.191E-02    1.21       1.0  T
   6   -366.4559168 -0.583419E-04  0.716E-03    1.21       1.0  T
   7   -366.4559238 -0.700108E-05  0.335E-03    1.21       2.0  T
   8   -366.4559255 -0.174856E-05  0.125E-03    1.21       5.5  T
   9   -366.4559256 -0.771126E-07  0.821E-04    1.21       8.4  T
  10   -366.4559256 -0.470419E-07  0.458E-04    1.21      15.0  T
     SCC iter.                  ...        0 min,  0.441 sec
     gradient                   ...        0 min,  0.145 sec
 * total energy  :  -361.4219343 Eh     change       -0.8447100E-01 Eh
   gradient norm :     0.1753539 Eh/α   predicted    -0.6895486E-01 ( -18.37%)
   displ. norm   :     0.4625195 α      lambda       -0.5450062E-01
   maximum displ.:     0.0780028 α      in ANC's #327, #328, #330, ...

........................................................................
.............................. CYCLE    3 ..............................
........................................................................
   1   -366.5938662 -0.366594E+03  0.237E-01    1.20       0.0  T
   2   -366.5948211 -0.954836E-03  0.132E-01    1.21       1.0  T
   3   -366.5943738  0.447236E-03  0.783E-02    1.22       1.0  T
   4   -366.5951633 -0.789511E-03  0.353E-02    1.21       1.0  T
   5   -366.5952943 -0.130907E-03  0.189E-02    1.21       1.0  T
   6   -366.5953527 -0.584373E-04  0.666E-03    1.21       1.0  T
   7   -366.5953577 -0.498718E-05  0.335E-03    1.21       2.1  T
   8   -366.5953595 -0.182685E-05  0.134E-03    1.21       5.1  T
   9   -366.5953596 -0.143057E-06  0.883E-04    1.21       7.8  T
  10   -366.5953597 -0.981738E-07  0.389E-04    1.21      17.6  T
     SCC iter.                  ...        0 min,  0.447 sec
     gradient                   ...        0 min,  0.147 sec
 * total energy  :  -361.4564819 Eh     change       -0.3454764E-01 Eh
   gradient norm :     0.0521111 Eh/α   predicted    -0.3307982E-01 (  -4.25%)
   displ. norm   :     0.4577711 α      lambda       -0.1137184E-01
   maximum displ.:     0.1088747 α      in ANC's #116, #103, #99, ...

........................................................................
.............................. CYCLE    4 ..............................
........................................................................
   1   -366.6332141 -0.366633E+03  0.114E-01    1.19       0.0  T
   2   -366.6334048 -0.190659E-03  0.638E-02    1.20       1.0  T
   3   -366.6332670  0.137767E-03  0.386E-02    1.20       1.0  T
   4   -366.6334578 -0.190801E-03  0.177E-02    1.20       1.0  T
   5   -366.6334955 -0.376294E-04  0.922E-03    1.20       1.0  T
   6   -366.6335099 -0.144288E-04  0.268E-03    1.20       2.6  T
   7   -366.6335105 -0.655372E-06  0.151E-03    1.20       4.5  T
   8   -366.6335109 -0.385011E-06  0.627E-04    1.20      11.0  T
   9   -366.6335110 -0.469997E-07  0.362E-04    1.20      19.0  T
     SCC iter.                  ...        0 min,  0.407 sec
     gradient                   ...        0 min,  0.146 sec
 * total energy  :  -361.4643333 Eh     change       -0.7851355E-02 Eh
   gradient norm :     0.0206555 Eh/α   predicted    -0.6877454E-02 ( -12.40%)
   displ. norm   :     0.4611662 α      lambda       -0.4422031E-02
   maximum displ.:     0.1144692 α      in ANC's #77, #103, #116, ...

........................................................................
.............................. CYCLE    5 ..............................
........................................................................
   1   -366.6534288 -0.366653E+03  0.708E-02    1.18       0.0  T
   2   -366.6534663 -0.375077E-04  0.398E-02    1.18       1.0  T
   3   -366.6533820  0.843572E-04  0.235E-02    1.19       1.0  T
   4   -366.6534742 -0.921783E-04  0.960E-03    1.19       1.0  T
   5   -366.6534864 -0.122192E-04  0.465E-03    1.19       1.5  T
   6   -366.6534898 -0.340105E-05  0.127E-03    1.19       5.4  T
   7   -366.6534899 -0.149698E-06  0.725E-04    1.19       9.5  T
   8   -366.6534900 -0.865753E-07  0.331E-04    1.19      20.7  T
     SCC iter.                  ...        0 min,  0.355 sec
     gradient                   ...        0 min,  0.146 sec
 * total energy  :  -361.4674465 Eh     change       -0.3113263E-02 Eh
   gradient norm :     0.0116449 Eh/α   predicted    -0.2681244E-02 ( -13.88%)
   displ. norm   :     0.4266448 α      lambda       -0.1975344E-02
   maximum displ.:     0.1163078 α      in ANC's #77, #44, #38, ...

........................................................................
.............................. CYCLE    6 ..............................
........................................................................
   1   -366.6669878 -0.366667E+03  0.538E-02    1.18       0.0  T
   2   -366.6669937 -0.590025E-05  0.303E-02    1.18       1.0  T
   3   -366.6669591  0.346415E-04  0.134E-02    1.18       1.0  T
   4   -366.6669949 -0.357949E-04  0.486E-03    1.18       1.4  T
   5   -366.6669974 -0.248081E-05  0.247E-03    1.18       2.8  T
   6   -366.6669983 -0.941176E-06  0.616E-04    1.18      11.1  T
   7   -366.6669983 -0.414262E-07  0.309E-04    1.18      22.3  T
     SCC iter.                  ...        0 min,  0.319 sec
     gradient                   ...        0 min,  0.146 sec
 * total energy  :  -361.4688707 Eh     change       -0.1424135E-02 Eh
   gradient norm :     0.0106278 Eh/α   predicted    -0.1167456E-02 ( -18.02%)
   displ. norm   :     0.4268929 α      lambda       -0.1170525E-02
   maximum displ.:     0.1437606 α      in ANC's #38, #44, #77, ...

........................................................................
.............................. CYCLE    7 ..............................
........................................................................
   1   -366.6760603 -0.366676E+03  0.507E-02    1.17       0.0  T
   2   -366.6760654 -0.506053E-05  0.287E-02    1.17       1.0  T
   3   -366.6760399  0.254762E-04  0.117E-02    1.17       1.0  T
   4   -366.6760662 -0.262750E-04  0.426E-03    1.17       1.6  T
   5   -366.6760682 -0.195978E-05  0.230E-03    1.17       3.0  T
   6   -366.6760690 -0.868685E-06  0.822E-04    1.17       8.4  T
   7   -366.6760691 -0.107581E-06  0.343E-04    1.17      20.0  T
     SCC iter.                  ...        0 min,  0.306 sec
     gradient                   ...        0 min,  0.146 sec
 * total energy  :  -361.4697683 Eh     change       -0.8976569E-03 Eh
   gradient norm :     0.0091371 Eh/α   predicted    -0.6919203E-03 ( -22.92%)
   displ. norm   :     0.5089652 α      lambda       -0.1047995E-02
   maximum displ.:     0.1940137 α      in ANC's #38, #44, #37, ...

........................................................................
.............................. CYCLE    8 ..............................
........................................................................
   1   -366.6815953 -0.366682E+03  0.582E-02    1.16       0.0  T
   2   -366.6816020 -0.669882E-05  0.330E-02    1.16       1.0  T
   3   -366.6815697  0.322952E-04  0.131E-02    1.16       1.0  T
   4   -366.6816029 -0.331918E-04  0.475E-03    1.16       1.4  T
   5   -366.6816055 -0.260663E-05  0.251E-03    1.16       2.7  T
   6   -366.6816065 -0.102616E-05  0.965E-04    1.16       7.1  T
   7   -366.6816067 -0.159802E-06  0.361E-04    1.16      19.0  T
   8   -366.6816067 -0.163254E-07  0.212E-04    1.16      32.3  T
     SCC iter.                  ...        0 min,  0.365 sec
     gradient                   ...        0 min,  0.146 sec
 * total energy  :  -361.4706134 Eh     change       -0.8450834E-03 Eh
   gradient norm :     0.0072238 Eh/α   predicted    -0.6597381E-03 ( -21.93%)
   displ. norm   :     0.6010801 α      lambda       -0.1074582E-02
   maximum displ.:     0.2379158 α      in ANC's #38, #44, #37, ...

........................................................................
.............................. CYCLE    9 ..............................
........................................................................
   1   -366.6831423 -0.366683E+03  0.674E-02    1.16       0.0  T
   2   -366.6831487 -0.642683E-05  0.382E-02    1.16       1.0  T
   3   -366.6831184  0.302739E-04  0.126E-02    1.16       1.0  T
   4   -366.6831491 -0.307037E-04  0.491E-03    1.16       1.4  T
   5   -366.6831516 -0.246268E-05  0.264E-03    1.16       2.6  T
   6   -366.6831528 -0.119159E-05  0.984E-04    1.16       7.0  T
   7   -366.6831530 -0.179377E-06  0.360E-04    1.16      19.1  T
   8   -366.6831530 -0.129580E-07  0.222E-04    1.16      30.9  T
     SCC iter.                  ...        0 min,  0.359 sec
     gradient                   ...        0 min,  0.146 sec
 * total energy  :  -361.4715099 Eh     change       -0.8964765E-03 Eh
   gradient norm :     0.0077481 Eh/α   predicted    -0.7314160E-03 ( -18.41%)
   displ. norm   :     0.6517196 α      lambda       -0.1091803E-02
   maximum displ.:     0.2588643 α      in ANC's #44, #38, #37, ...

........................................................................
.............................. CYCLE   10 ..............................
........................................................................
   1   -366.6815615 -0.366682E+03  0.725E-02    1.15       0.0  T
   2   -366.6815670 -0.552072E-05  0.411E-02    1.15       1.0  T
   3   -366.6815532  0.138089E-04  0.942E-03    1.15       1.0  T
   4   -366.6815664 -0.132001E-04  0.463E-03    1.15       1.5  T
   5   -366.6815688 -0.244294E-05  0.220E-03    1.15       3.1  T
   6   -366.6815696 -0.810482E-06  0.759E-04    1.15       9.0  T
   7   -366.6815697 -0.932069E-07  0.337E-04    1.15      20.4  T
     SCC iter.                  ...        0 min,  0.317 sec
     gradient                   ...        0 min,  0.146 sec
 * total energy  :  -361.4724319 Eh     change       -0.9220138E-03 Eh
   gradient norm :     0.0093739 Eh/α   predicted    -0.7777741E-03 ( -15.64%)
   displ. norm   :     0.6787009 α      lambda       -0.1049573E-02
   maximum displ.:     0.2709551 α      in ANC's #44, #38, #37, ...

........................................................................
.............................. CYCLE   11 ..............................
........................................................................
   1   -366.6783609 -0.366678E+03  0.752E-02    1.15       0.0  T
   2   -366.6783674 -0.653352E-05  0.426E-02    1.15       1.0  T
   3   -366.6783563  0.110882E-04  0.910E-03    1.15       1.0  T
   4   -366.6783653 -0.898686E-05  0.512E-03    1.15       1.3  T
   5   -366.6783686 -0.332948E-05  0.258E-03    1.15       2.7  T
   6   -366.6783699 -0.125811E-05  0.786E-04    1.15       8.7  T
   7   -366.6783700 -0.924809E-07  0.389E-04    1.15      17.7  T
   8   -366.6783700 -0.176564E-07  0.224E-04    1.15      30.7  T
     SCC iter.                  ...        0 min,  0.361 sec
     gradient                   ...        0 min,  0.146 sec
 * total energy  :  -361.4733130 Eh     change       -0.8811323E-03 Eh
   gradient norm :     0.0092557 Eh/α   predicted    -0.7665677E-03 ( -13.00%)
   displ. norm   :     0.6833497 α      lambda       -0.9267442E-03
   maximum displ.:     0.2749687 α      in ANC's #44, #38, #37, ...

........................................................................
.............................. CYCLE   12 ..............................
........................................................................
   1   -366.6750527 -0.366675E+03  0.751E-02    1.15       0.0  T
   2   -366.6750603 -0.753692E-05  0.424E-02    1.15       1.0  T
   3   -366.6750398  0.205097E-04  0.112E-02    1.15       1.0  T
   4   -366.6750578 -0.180209E-04  0.573E-03    1.15       1.2  T
   5   -366.6750623 -0.452674E-05  0.263E-03    1.15       2.6  T
   6   -366.6750635 -0.118700E-05  0.880E-04    1.15       7.8  T
   7   -366.6750636 -0.126407E-06  0.405E-04    1.15      17.0  T
   8   -366.6750636 -0.205955E-07  0.229E-04    1.15      29.9  T
     SCC iter.                  ...        0 min,  0.361 sec
     gradient                   ...        0 min,  0.146 sec
 * total energy  :  -361.4740888 Eh     change       -0.7757451E-03 Eh
   gradient norm :     0.0074612 Eh/α   predicted    -0.6797566E-03 ( -12.37%)
   displ. norm   :     0.6737742 α      lambda       -0.8069980E-03
   maximum displ.:     0.2710231 α      in ANC's #44, #37, #38, ...

........................................................................
.............................. CYCLE   13 ..............................
........................................................................
   1   -366.6738856 -0.366674E+03  0.730E-02    1.14       0.0  T
   2   -366.6738926 -0.704689E-05  0.412E-02    1.14       1.0  T
   3   -366.6738644  0.282137E-04  0.126E-02    1.14       1.0  T
   4   -366.6738912 -0.268333E-04  0.570E-03    1.14       1.2  T
   5   -366.6738953 -0.407191E-05  0.254E-03    1.14       2.7  T
   6   -366.6738964 -0.110191E-05  0.796E-04    1.14       8.6  T
   7   -366.6738965 -0.973260E-07  0.353E-04    1.14      19.4  T
   8   -366.6738965 -0.133061E-07  0.215E-04    1.14      31.9  T
     SCC iter.                  ...        0 min,  0.359 sec
     gradient                   ...        0 min,  0.146 sec
 * total energy  :  -361.4747628 Eh     change       -0.6739876E-03 Eh
   gradient norm :     0.0059960 Eh/α   predicted    -0.5866795E-03 ( -12.95%)
   displ. norm   :     0.6722169 α      lambda       -0.7079925E-03
   maximum displ.:     0.2701225 α      in ANC's #44, #37, #29, ...

........................................................................
.............................. CYCLE   14 ..............................
........................................................................
   1   -366.6734358 -0.366673E+03  0.718E-02    1.14       0.0  T
   2   -366.6734422 -0.643092E-05  0.401E-02    1.14       1.0  T
   3   -366.6734151  0.271250E-04  0.125E-02    1.14       1.0  T
   4   -366.6734412 -0.261138E-04  0.567E-03    1.14       1.2  T
   5   -366.6734448 -0.355708E-05  0.256E-03    1.14       2.7  T
   6   -366.6734460 -0.118754E-05  0.640E-04    1.14      10.7  T
   7   -366.6734460 -0.489636E-07  0.325E-04    1.14      21.2  T
   8   -366.6734460 -0.128924E-07  0.183E-04    1.14      37.6  T
     SCC iter.                  ...        0 min,  0.360 sec
     gradient                   ...        0 min,  0.146 sec
 * total energy  :  -361.4753577 Eh     change       -0.5949886E-03 Eh
   gradient norm :     0.0067036 Eh/α   predicted    -0.5139797E-03 ( -13.62%)
   displ. norm   :     0.6487707 α      lambda       -0.6634474E-03
   maximum displ.:     0.2451438 α      in ANC's #44, #37, #29, ...

........................................................................
.............................. CYCLE   15 ..............................
........................................................................
   1   -366.6794934 -0.366679E+03  0.679E-02    1.14       0.0  T
   2   -366.6794996 -0.620269E-05  0.375E-02    1.14       1.0  T
   3   -366.6794688  0.308178E-04  0.132E-02    1.14       1.0  T
   4   -366.6794995 -0.306348E-04  0.564E-03    1.14       1.2  T
   5   -366.6795020 -0.252462E-05  0.288E-03    1.14       2.4  T
   6   -366.6795037 -0.172385E-05  0.690E-04    1.14       9.9  T
   7   -366.6795038 -0.551694E-07  0.440E-04    1.14      15.6  T
   8   -366.6795038 -0.346207E-07  0.178E-04    1.14      38.6  T
     SCC iter.                  ...        0 min,  0.358 sec
     gradient                   ...        0 min,  0.146 sec
 * total energy  :  -361.4758824 Eh     change       -0.5247008E-03 Eh
   gradient norm :     0.0081209 Eh/α   predicted    -0.4713492E-03 ( -10.17%)
   displ. norm   :     0.7555924 α      lambda       -0.6687094E-03
   maximum displ.:     0.3135135 α      in ANC's #44, #37, #29, ...

........................................................................
.............................. CYCLE   16 ..............................
........................................................................
   1   -366.6678326 -0.366668E+03  0.803E-02    1.14       0.0  T
   2   -366.6678455 -0.128916E-04  0.441E-02    1.14       1.0  T
   3   -366.6678148  0.306930E-04  0.143E-02    1.14       1.0  T
   4   -366.6678415 -0.267617E-04  0.743E-03    1.14       1.0  T
   5   -366.6678479 -0.641884E-05  0.384E-03    1.14       1.8  T
   6   -366.6678507 -0.274539E-05  0.110E-03    1.14       6.3  T
   7   -366.6678509 -0.197653E-06  0.510E-04    1.14      13.5  T
   8   -366.6678509 -0.424947E-07  0.237E-04    1.14      29.0  T
     SCC iter.                  ...        0 min,  0.354 sec
     gradient                   ...        0 min,  0.146 sec
 * total energy  :  -361.4762735 Eh     change       -0.3910829E-03 Eh
   gradient norm :     0.0106812 Eh/α   predicted    -0.5252552E-03 (  34.31%)
   displ. norm   :     0.4499884 α      lambda       -0.5842535E-03
   maximum displ.:     0.1405396 α      in ANC's #21, #44, #29, ...

........................................................................
.............................. CYCLE   17 ..............................
........................................................................
   1   -366.6782262 -0.366678E+03  0.461E-02    1.14       0.0  T
   2   -366.6782312 -0.500863E-05  0.246E-02    1.14       1.0  T
   3   -366.6782142  0.169249E-04  0.979E-03    1.14       1.0  T
   4   -366.6782311 -0.168283E-04  0.446E-03    1.14       1.5  T
   5   -366.6782326 -0.149034E-05  0.254E-03    1.14       2.7  T
   6   -366.6782339 -0.135564E-05  0.665E-04    1.14      10.3  T
   7   -366.6782340 -0.798947E-07  0.278E-04    1.14      24.7  T
   8   -366.6782340 -0.106436E-07  0.139E-04    1.14      49.5  T
     SCC iter.                  ...        0 min,  0.352 sec
     gradient                   ...        0 min,  0.146 sec
 * total energy  :  -361.4767121 Eh     change       -0.4385480E-03 Eh
   gradient norm :     0.0062011 Eh/α   predicted    -0.3512881E-03 ( -19.90%)
   displ. norm   :     0.6110974 α      lambda       -0.4688153E-03
   maximum displ.:     0.2167552 α      in ANC's #44, #21, #37, ...

........................................................................
.............................. CYCLE   18 ..............................
........................................................................
   1   -366.6780637 -0.366678E+03  0.605E-02    1.14       0.0  T
   2   -366.6780711 -0.737144E-05  0.324E-02    1.14       1.0  T
   3   -366.6780568  0.142715E-04  0.101E-02    1.14       1.0  T
   4   -366.6780706 -0.138133E-04  0.521E-03    1.15       1.3  T
   5   -366.6780720 -0.144580E-05  0.312E-03    1.14       2.2  T
   6   -366.6780742 -0.218042E-05  0.711E-04    1.14       9.7  T
   7   -366.6780743 -0.835361E-07  0.329E-04    1.14      20.9  T
   8   -366.6780743 -0.168189E-07  0.153E-04    1.14      44.9  T
     SCC iter.                  ...        0 min,  0.357 sec
     gradient                   ...        0 min,  0.146 sec
 * total energy  :  -361.4770941 Eh     change       -0.3819768E-03 Eh
   gradient norm :     0.0060259 Eh/α   predicted    -0.3219454E-03 ( -15.72%)
   displ. norm   :     0.6531060 α      lambda       -0.5623434E-03
   maximum displ.:     0.2009633 α      in ANC's #21, #44, #6, ...

........................................................................
.............................. CYCLE   19 ..............................
........................................................................
   1   -366.6856657 -0.366686E+03  0.640E-02    1.14       0.0  T
   2   -366.6856762 -0.105291E-04  0.334E-02    1.15       1.0  T
   3   -366.6856575  0.187232E-04  0.115E-02    1.15       1.0  T
   4   -366.6856778 -0.203062E-04  0.542E-03    1.15       1.3  T
   5   -366.6856789 -0.115271E-05  0.312E-03    1.15       2.2  T
   6   -366.6856809 -0.197454E-05  0.861E-04    1.15       8.0  T
   7   -366.6856810 -0.125291E-06  0.384E-04    1.15      17.9  T
   8   -366.6856811 -0.221385E-07  0.198E-04    1.15      34.7  T
     SCC iter.                  ...        0 min,  0.355 sec
     gradient                   ...        0 min,  0.146 sec
 * total energy  :  -361.4774883 Eh     change       -0.3942254E-03 Eh
   gradient norm :     0.0084395 Eh/α   predicted    -0.4011131E-03 (   1.75%)
   displ. norm   :     0.6746624 α      lambda       -0.4948724E-03
   maximum displ.:     0.2306903 α      in ANC's #44, #21, #29, ...

........................................................................
.............................. CYCLE   20 ..............................
........................................................................
   1   -366.6787864 -0.366679E+03  0.645E-02    1.14       0.0  T
   2   -366.6787968 -0.104321E-04  0.339E-02    1.14       1.0  T
   3   -366.6787873  0.950311E-05  0.990E-03    1.14       1.0  T
   4   -366.6787977 -0.103530E-04  0.496E-03    1.14       1.4  T
   5   -366.6787992 -0.149606E-05  0.233E-03    1.14       2.9  T
   6   -366.6788002 -0.100841E-05  0.899E-04    1.14       7.6  T
   7   -366.6788003 -0.150741E-06  0.352E-04    1.14      19.5  T
   8   -366.6788004 -0.174496E-07  0.177E-04    1.14      38.8  T
     SCC iter.                  ...        0 min,  0.355 sec
     gradient                   ...        0 min,  0.146 sec
 * total energy  :  -361.4778838 Eh     change       -0.3955398E-03 Eh
   gradient norm :     0.0086363 Eh/α   predicted    -0.3600646E-03 (  -8.97%)
   displ. norm   :     0.6218027 α      lambda       -0.4700125E-03
   maximum displ.:     0.1843360 α      in ANC's #6, #21, #44, ...
 * RMSD in coord.:     0.6220939 α      energy gain  -0.1404206E+00 Eh

generating ANC from model Hessian ...
Using Lindh-Hessian (1995)
 Shifting diagonal of input Hessian by   9.994954101924485E-003
 Lowest  eigenvalues of input Hessian
    0.000000    0.000000    0.000000    0.000000    0.000000    0.000000
    0.010000    0.010002    0.010005    0.010012    0.010019    0.010026
    0.010060    0.010065    0.010082    0.010090    0.010101    0.010109
 Highest eigenvalues
    2.107448    2.109088    2.113004    2.156625    2.158421    2.161486
 

........................................................................
.............................. CYCLE   21 ..............................
........................................................................
   1   -366.6773751 -0.366677E+03  0.577E-02    1.13       0.0  T
   2   -366.6773833 -0.816793E-05  0.299E-02    1.13       1.0  T
   3   -366.6773694  0.139176E-04  0.102E-02    1.13       1.0  T
   4   -366.6773813 -0.118984E-04  0.579E-03    1.13       1.2  T
   5   -366.6773843 -0.304552E-05  0.323E-03    1.13       2.1  T
   6   -366.6773865 -0.218287E-05  0.601E-04    1.13      11.4  T
   7   -366.6773865 -0.478074E-07  0.298E-04    1.13      23.0  T
   8   -366.6773865 -0.125899E-07  0.149E-04    1.13      46.2  T
     SCC iter.                  ...        0 min,  0.356 sec
     gradient                   ...        0 min,  0.145 sec
 * total energy  :  -361.4782583 Eh     change       -0.3744993E-03 Eh
   gradient norm :     0.0083628 Eh/α   predicted     0.0000000E+00 (-100.00%)
   displ. norm   :     0.0940216 α      lambda       -0.1929093E-03
   maximum displ.:     0.0256911 α      in ANC's #39, #41, #24, ...

........................................................................
.............................. CYCLE   22 ..............................
........................................................................
   1   -366.6802925 -0.366680E+03  0.130E-02    1.13       0.0  T
   2   -366.6802929 -0.429758E-06  0.747E-03    1.13       1.0  T
   3   -366.6802873  0.561134E-05  0.538E-03    1.13       1.3  T
   4   -366.6802935 -0.615917E-05  0.148E-03    1.13       4.6  T
   5   -366.6802937 -0.272930E-06  0.759E-04    1.13       9.0  T
   6   -366.6802938 -0.731118E-07  0.316E-04    1.13      21.7  T
     SCC iter.                  ...        0 min,  0.270 sec
     gradient                   ...        0 min,  0.146 sec
 * total energy  :  -361.4784189 Eh     change       -0.1605674E-03 Eh
   gradient norm :     0.0043809 Eh/α   predicted    -0.9730773E-04 ( -39.40%)
   displ. norm   :     0.3041949 α      lambda       -0.3838392E-03
   maximum displ.:     0.0880621 α      in ANC's #39, #41, #24, ...

........................................................................
.............................. CYCLE   23 ..............................
........................................................................
   1   -366.6837569 -0.366684E+03  0.356E-02    1.13       0.0  T
   2   -366.6837592 -0.231801E-05  0.200E-02    1.13       1.0  T
   3   -366.6837244  0.348657E-04  0.132E-02    1.13       1.0  T
   4   -366.6837620 -0.376110E-04  0.363E-03    1.13       1.9  T
   5   -366.6837632 -0.123312E-05  0.206E-03    1.13       3.3  T
   6   -366.6837639 -0.652369E-06  0.716E-04    1.13       9.6  T
   7   -366.6837640 -0.860009E-07  0.341E-04    1.13      20.1  T
     SCC iter.                  ...        0 min,  0.315 sec
     gradient                   ...        0 min,  0.145 sec
 * total energy  :  -361.4786839 Eh     change       -0.2650054E-03 Eh
   gradient norm :     0.0049544 Eh/α   predicted    -0.2096817E-03 ( -20.88%)
   displ. norm   :     0.3138851 α      lambda       -0.2281478E-03
   maximum displ.:     0.0942454 α      in ANC's #39, #24, #41, ...

........................................................................
.............................. CYCLE   24 ..............................
........................................................................
   1   -366.6837602 -0.366684E+03  0.337E-02    1.13       0.0  T
   2   -366.6837621 -0.183317E-05  0.183E-02    1.13       1.0  T
   3   -366.6837503  0.118274E-04  0.793E-03    1.13       1.0  T
   4   -366.6837624 -0.121326E-04  0.308E-03    1.13       2.2  T
   5   -366.6837630 -0.644791E-06  0.168E-03    1.13       4.1  T
   6   -366.6837636 -0.565788E-06  0.453E-04    1.13      15.2  T
   7   -366.6837636 -0.346051E-07  0.229E-04    1.13      30.0  T
     SCC iter.                  ...        0 min,  0.312 sec
     gradient                   ...        0 min,  0.146 sec
 * total energy  :  -361.4788729 Eh     change       -0.1889923E-03 Eh
   gradient norm :     0.0083339 Eh/α   predicted    -0.1256237E-03 ( -33.53%)
   displ. norm   :     0.5226104 α      lambda       -0.3674565E-03
   maximum displ.:     0.1593893 α      in ANC's #39, #24, #6, ...

........................................................................
.............................. CYCLE   25 ..............................
........................................................................
   1   -366.6813986 -0.366681E+03  0.548E-02    1.12       0.0  T
   2   -366.6814036 -0.509139E-05  0.291E-02    1.12       1.0  T
   3   -366.6813988  0.481323E-05  0.711E-03    1.12       1.0  T
   4   -366.6814008 -0.195436E-05  0.503E-03    1.12       1.4  T
   5   -366.6814045 -0.369830E-05  0.195E-03    1.12       3.5  T
   6   -366.6814053 -0.828204E-06  0.539E-04    1.12      12.7  T
   7   -366.6814054 -0.516323E-07  0.260E-04    1.12      26.4  T
     SCC iter.                  ...        0 min,  0.308 sec
     gradient                   ...        0 min,  0.146 sec
 * total energy  :  -361.4791817 Eh     change       -0.3088380E-03 Eh
   gradient norm :     0.0096469 Eh/α   predicted    -0.2339099E-03 ( -24.26%)
   displ. norm   :     0.6090540 α      lambda       -0.4324904E-03
   maximum displ.:     0.1835767 α      in ANC's #39, #24, #6, ...

........................................................................
.............................. CYCLE   26 ..............................
........................................................................
   1   -366.6782840 -0.366678E+03  0.635E-02    1.12       0.0  T
   2   -366.6782917 -0.768628E-05  0.333E-02    1.13       1.0  T
   3   -366.6782846  0.704576E-05  0.859E-03    1.13       1.0  T
   4   -366.6782889 -0.428971E-05  0.578E-03    1.13       1.2  T
   5   -366.6782931 -0.414647E-05  0.237E-03    1.13       2.9  T
   6   -366.6782942 -0.116209E-05  0.565E-04    1.13      12.2  T
   7   -366.6782943 -0.446193E-07  0.310E-04    1.13      22.1  T
   8   -366.6782943 -0.139991E-07  0.160E-04    1.13      43.0  T
     SCC iter.                  ...        0 min,  0.350 sec
     gradient                   ...        0 min,  0.145 sec
 * total energy  :  -361.4795399 Eh     change       -0.3582033E-03 Eh
   gradient norm :     0.0077969 Eh/α   predicted    -0.2964611E-03 ( -17.24%)
   displ. norm   :     0.5906494 α      lambda       -0.4203749E-03
   maximum displ.:     0.1818751 α      in ANC's #6, #24, #3, ...

........................................................................
.............................. CYCLE   27 ..............................
........................................................................
   1   -366.6778897 -0.366678E+03  0.614E-02    1.13       0.0  T
   2   -366.6778980 -0.827229E-05  0.316E-02    1.13       1.0  T
   3   -366.6778755  0.224271E-04  0.119E-02    1.13       1.0  T
   4   -366.6778983 -0.227412E-04  0.575E-03    1.13       1.2  T
   5   -366.6779004 -0.214825E-05  0.305E-03    1.13       2.2  T
   6   -366.6779023 -0.189049E-05  0.684E-04    1.13      10.0  T
   7   -366.6779024 -0.610654E-07  0.413E-04    1.13      16.6  T
   8   -366.6779024 -0.311454E-07  0.161E-04    1.13      42.5  T
     SCC iter.                  ...        0 min,  0.350 sec
     gradient                   ...        0 min,  0.145 sec
 * total energy  :  -361.4798796 Eh     change       -0.3396970E-03 Eh
   gradient norm :     0.0053800 Eh/α   predicted    -0.2835249E-03 ( -16.54%)
   displ. norm   :     0.5782486 α      lambda       -0.3698462E-03
   maximum displ.:     0.1868627 α      in ANC's #6, #3, #24, ...

........................................................................
.............................. CYCLE   28 ..............................
........................................................................
   1   -366.6799677 -0.366680E+03  0.592E-02    1.13       0.0  T
   2   -366.6799764 -0.869300E-05  0.298E-02    1.13       1.0  T
   3   -366.6799592  0.172017E-04  0.108E-02    1.13       1.0  T
   4   -366.6799769 -0.177909E-04  0.537E-03    1.13       1.3  T
   5   -366.6799785 -0.160584E-05  0.296E-03    1.13       2.3  T
   6   -366.6799804 -0.181636E-05  0.636E-04    1.13      10.8  T
   7   -366.6799804 -0.501379E-07  0.388E-04    1.13      17.7  T
   8   -366.6799804 -0.280596E-07  0.150E-04    1.13      45.6  T
     SCC iter.                  ...        0 min,  0.348 sec
     gradient                   ...        0 min,  0.146 sec
 * total energy  :  -361.4801862 Eh     change       -0.3065607E-03 Eh
   gradient norm :     0.0063338 Eh/α   predicted    -0.2467954E-03 ( -19.50%)
   displ. norm   :     0.6198280 α      lambda       -0.3763478E-03
   maximum displ.:     0.2073369 α      in ANC's #6, #3, #24, ...

........................................................................
.............................. CYCLE   29 ..............................
........................................................................
   1   -366.6830984 -0.366683E+03  0.617E-02    1.14       0.0  T
   2   -366.6831087 -0.103351E-04  0.305E-02    1.14       1.0  T
   3   -366.6831021  0.662663E-05  0.855E-03    1.14       1.0  T
   4   -366.6831088 -0.677799E-05  0.505E-03    1.14       1.4  T
   5   -366.6831105 -0.165653E-05  0.257E-03    1.14       2.7  T
   6   -366.6831119 -0.142180E-05  0.610E-04    1.14      11.3  T
   7   -366.6831120 -0.553587E-07  0.312E-04    1.14      22.0  T
   8   -366.6831120 -0.164885E-07  0.144E-04    1.14      47.7  T
     SCC iter.                  ...        0 min,  0.351 sec
     gradient                   ...        0 min,  0.145 sec
 * total energy  :  -361.4805129 Eh     change       -0.3267451E-03 Eh
   gradient norm :     0.0077611 Eh/α   predicted    -0.2604695E-03 ( -20.28%)
   displ. norm   :     0.6690055 α      lambda       -0.4345635E-03
   maximum displ.:     0.2311026 α      in ANC's #6, #3, #1, ...

........................................................................
.............................. CYCLE   30 ..............................
........................................................................
   1   -366.6874127 -0.366687E+03  0.645E-02    1.14       0.0  T
   2   -366.6874249 -0.122897E-04  0.314E-02    1.14       1.0  T
   3   -366.6874209  0.402258E-05  0.797E-03    1.14       1.0  T
   4   -366.6874259 -0.495294E-05  0.473E-03    1.14       1.5  T
   5   -366.6874276 -0.174752E-05  0.195E-03    1.14       3.5  T
   6   -366.6874284 -0.723998E-06  0.658E-04    1.14      10.4  T
   7   -366.6874284 -0.721470E-07  0.289E-04    1.14      23.7  T
     SCC iter.                  ...        0 min,  0.330 sec
     gradient                   ...        0 min,  0.145 sec
 * total energy  :  -361.4808939 Eh     change       -0.3809933E-03 Eh
   gradient norm :     0.0076761 Eh/α   predicted    -0.3146370E-03 ( -17.42%)
   displ. norm   :     0.7348512 α      lambda       -0.4650764E-03
   maximum displ.:     0.2583442 α      in ANC's #6, #3, #1, ...

........................................................................
.............................. CYCLE   31 ..............................
........................................................................
   1   -366.6882231 -0.366688E+03  0.689E-02    1.13       0.0  T
   2   -366.6882377 -0.146180E-04  0.333E-02    1.13       1.0  T
   3   -366.6882264  0.113582E-04  0.101E-02    1.13       1.0  T
   4   -366.6882382 -0.118466E-04  0.585E-03    1.13       1.2  T
   5   -366.6882406 -0.234690E-05  0.312E-03    1.13       2.2  T
   6   -366.6882425 -0.190462E-05  0.694E-04    1.13       9.9  T
   7   -366.6882425 -0.587782E-07  0.401E-04    1.13      17.1  T
   8   -366.6882426 -0.291573E-07  0.171E-04    1.13      40.3  T
     SCC iter.                  ...        0 min,  0.364 sec
     gradient                   ...        0 min,  0.145 sec
 * total energy  :  -361.4813039 Eh     change       -0.4099518E-03 Eh
   gradient norm :     0.0061255 Eh/α   predicted    -0.3581412E-03 ( -12.64%)
   displ. norm   :     0.6948791 α      lambda       -0.4855959E-03
   maximum displ.:     0.2530613 α      in ANC's #6, #3, #1, ...

........................................................................
.............................. CYCLE   32 ..............................
........................................................................
   1   -366.6938983 -0.366694E+03  0.628E-02    1.13       0.0  T
   2   -366.6939112 -0.128958E-04  0.306E-02    1.13       1.0  T
   3   -366.6938880  0.231335E-04  0.120E-02    1.13       1.0  T
   4   -366.6939135 -0.254320E-04  0.552E-03    1.13       1.2  T
   5   -366.6939151 -0.164994E-05  0.314E-03    1.13       2.2  T
   6   -366.6939169 -0.181841E-05  0.774E-04    1.13       8.9  T
   7   -366.6939170 -0.634683E-07  0.475E-04    1.13      14.5  T
   8   -366.6939171 -0.439982E-07  0.167E-04    1.13      41.2  T
     SCC iter.                  ...        0 min,  0.364 sec
     gradient                   ...        0 min,  0.145 sec
 * total energy  :  -361.4816701 Eh     change       -0.3662346E-03 Eh
   gradient norm :     0.0061017 Eh/α   predicted    -0.3600386E-03 (  -1.69%)
   displ. norm   :     0.8193832 α      lambda       -0.4717016E-03
   maximum displ.:     0.2925273 α      in ANC's #6, #3, #1, ...

........................................................................
.............................. CYCLE   33 ..............................
........................................................................
   1   -366.6836966 -0.366684E+03  0.750E-02    1.13       0.0  T
   2   -366.6837153 -0.186613E-04  0.363E-02    1.13       1.0  T
   3   -366.6837049  0.103244E-04  0.105E-02    1.13       1.0  T
   4   -366.6837151 -0.101520E-04  0.645E-03    1.13       1.1  T
   5   -366.6837183 -0.322866E-05  0.339E-03    1.13       2.0  T
   6   -366.6837206 -0.223576E-05  0.869E-04    1.13       7.9  T
   7   -366.6837207 -0.113422E-06  0.443E-04    1.13      15.5  T
   8   -366.6837207 -0.360326E-07  0.184E-04    1.13      37.3  T
     SCC iter.                  ...        0 min,  0.358 sec
     gradient                   ...        0 min,  0.145 sec
 * total energy  :  -361.4819990 Eh     change       -0.3288839E-03 Eh
   gradient norm :     0.0083610 Eh/α   predicted    -0.3942051E-03 (  19.86%)
   displ. norm   :     0.5315515 α      lambda       -0.3413676E-03
   maximum displ.:     0.2055050 α      in ANC's #6, #3, #1, ...

........................................................................
.............................. CYCLE   34 ..............................
........................................................................
   1   -366.6834385 -0.366683E+03  0.429E-02    1.13       0.0  T
   2   -366.6834448 -0.623361E-05  0.207E-02    1.13       1.0  T
   3   -366.6834421  0.264015E-05  0.570E-03    1.13       1.2  T
   4   -366.6834453 -0.314349E-05  0.331E-03    1.13       2.1  T
   5   -366.6834458 -0.584911E-06  0.175E-03    1.13       3.9  T
   6   -366.6834465 -0.633026E-06  0.493E-04    1.13      13.9  T
   7   -366.6834465 -0.391021E-07  0.225E-04    1.13      30.5  T
     SCC iter.                  ...        0 min,  0.316 sec
     gradient                   ...        0 min,  0.146 sec
 * total energy  :  -361.4823032 Eh     change       -0.3042062E-03 Eh
   gradient norm :     0.0076274 Eh/α   predicted    -0.2189141E-03 ( -28.04%)
   displ. norm   :     0.5946011 α      lambda       -0.5409694E-03
   maximum displ.:     0.2353253 α      in ANC's #6, #3, #1, ...

........................................................................
.............................. CYCLE   35 ..............................
........................................................................
   1   -366.6881983 -0.366688E+03  0.456E-02    1.12       0.0  T
   2   -366.6882044 -0.603166E-05  0.239E-02    1.13       1.0  T
   3   -366.6881987  0.570373E-05  0.716E-03    1.13       1.0  T
   4   -366.6882042 -0.558139E-05  0.401E-03    1.13       1.7  T
   5   -366.6882051 -0.888674E-06  0.240E-03    1.13       2.9  T
   6   -366.6882063 -0.117479E-05  0.600E-04    1.13      11.4  T
   7   -366.6882064 -0.628667E-07  0.266E-04    1.13      25.8  T
   8   -366.6882064 -0.915395E-08  0.150E-04    1.13      45.8  T
     SCC iter.                  ...        0 min,  0.354 sec
     gradient                   ...        0 min,  0.145 sec
 * total energy  :  -361.4827183 Eh     change       -0.4150695E-03 Eh
   gradient norm :     0.0053349 Eh/α   predicted    -0.3661169E-03 ( -11.79%)
   displ. norm   :     0.8133698 α      lambda       -0.4709859E-03
   maximum displ.:     0.3203826 α      in ANC's #6, #3, #1, ...

........................................................................
.............................. CYCLE   36 ..............................
........................................................................
   1   -366.6851502 -0.366685E+03  0.617E-02    1.12       0.0  T
   2   -366.6851625 -0.122478E-04  0.303E-02    1.13       1.0  T
   3   -366.6851584  0.409042E-05  0.804E-03    1.13       1.0  T
   4   -366.6851632 -0.481052E-05  0.474E-03    1.13       1.4  T
   5   -366.6851644 -0.118994E-05  0.243E-03    1.13       2.8  T
   6   -366.6851656 -0.121496E-05  0.780E-04    1.13       8.8  T
   7   -366.6851657 -0.126278E-06  0.254E-04    1.13      27.0  T
   8   -366.6851657 -0.984789E-08  0.127E-04    1.13      54.1  T
     SCC iter.                  ...        0 min,  0.356 sec
     gradient                   ...        0 min,  0.146 sec
 * total energy  :  -361.4831512 Eh     change       -0.4329172E-03 Eh
   gradient norm :     0.0064622 Eh/α   predicted    -0.3912891E-03 (  -9.62%)
   displ. norm   :     0.7827890 α      lambda       -0.5383091E-03
   maximum displ.:     0.3127626 α      in ANC's #6, #3, #1, ...

........................................................................
.............................. CYCLE   37 ..............................
........................................................................
   1   -366.6846071 -0.366685E+03  0.571E-02    1.13       0.0  T
   2   -366.6846155 -0.836383E-05  0.296E-02    1.13       1.0  T
   3   -366.6846083  0.714556E-05  0.853E-03    1.13       1.0  T
   4   -366.6846143 -0.592068E-05  0.515E-03    1.13       1.3  T
   5   -366.6846161 -0.187072E-05  0.290E-03    1.13       2.4  T
   6   -366.6846181 -0.191306E-05  0.620E-04    1.13      11.1  T
   7   -366.6846181 -0.605108E-07  0.288E-04    1.13      23.8  T
   8   -366.6846181 -0.127698E-07  0.144E-04    1.13      47.7  T
     SCC iter.                  ...        0 min,  0.358 sec
     gradient                   ...        0 min,  0.145 sec
 * total energy  :  -361.4836206 Eh     change       -0.4693854E-03 Eh
   gradient norm :     0.0069176 Eh/α   predicted    -0.4340821E-03 (  -7.52%)
   displ. norm   :     0.7778481 α      lambda       -0.5389621E-03
   maximum displ.:     0.3108926 α      in ANC's #6, #3, #1, ...

........................................................................
.............................. CYCLE   38 ..............................
........................................................................
   1   -366.6841275 -0.366684E+03  0.567E-02    1.13       0.0  T
   2   -366.6841355 -0.798059E-05  0.300E-02    1.13       1.0  T
   3   -366.6841291  0.640131E-05  0.823E-03    1.13       1.0  T
   4   -366.6841348 -0.577364E-05  0.473E-03    1.13       1.5  T
   5   -366.6841363 -0.146650E-05  0.262E-03    1.13       2.6  T
   6   -366.6841378 -0.150971E-05  0.719E-04    1.13       9.6  T
   7   -366.6841379 -0.948814E-07  0.298E-04    1.13      23.0  T
   8   -366.6841379 -0.143763E-07  0.138E-04    1.13      49.9  T
     SCC iter.                  ...        0 min,  0.355 sec
     gradient                   ...        0 min,  0.145 sec
 * total energy  :  -361.4840600 Eh     change       -0.4393928E-03 Eh
   gradient norm :     0.0073478 Eh/α   predicted    -0.4325357E-03 (  -1.56%)
   displ. norm   :     0.7284933 α      lambda       -0.5097992E-03
   maximum displ.:     0.2957611 α      in ANC's #6, #1, #3, ...

........................................................................
.............................. CYCLE   39 ..............................
........................................................................
   1   -366.6861464 -0.366686E+03  0.542E-02    1.13       0.0  T
   2   -366.6861529 -0.656395E-05  0.291E-02    1.13       1.0  T
   3   -366.6861457  0.721322E-05  0.810E-03    1.13       1.0  T
   4   -366.6861526 -0.688580E-05  0.440E-03    1.13       1.6  T
   5   -366.6861542 -0.159039E-05  0.220E-03    1.13       3.1  T
   6   -366.6861551 -0.923959E-06  0.616E-04    1.13      11.1  T
   7   -366.6861552 -0.595947E-07  0.286E-04    1.13      24.0  T
     SCC iter.                  ...        0 min,  0.314 sec
     gradient                   ...        0 min,  0.145 sec
 * total energy  :  -361.4844601 Eh     change       -0.4000893E-03 Eh
   gradient norm :     0.0066336 Eh/α   predicted    -0.3901825E-03 (  -2.48%)
   displ. norm   :     0.8053903 α      lambda       -0.4433653E-03
   maximum displ.:     0.3325110 α      in ANC's #6, #3, #1, ...

........................................................................
.............................. CYCLE   40 ..............................
........................................................................
   1   -366.6826250 -0.366683E+03  0.583E-02    1.12       0.0  T
   2   -366.6826350 -0.993800E-05  0.296E-02    1.12       1.0  T
   3   -366.6826254  0.957213E-05  0.913E-03    1.12       1.0  T
   4   -366.6826346 -0.923827E-05  0.520E-03    1.12       1.3  T
   5   -366.6826367 -0.208332E-05  0.271E-03    1.12       2.5  T
   6   -366.6826382 -0.143102E-05  0.676E-04    1.12      10.2  T
   7   -366.6826382 -0.716971E-07  0.329E-04    1.12      20.9  T
   8   -366.6826383 -0.191876E-07  0.142E-04    1.12      48.3  T
     SCC iter.                  ...        0 min,  0.358 sec
     gradient                   ...        0 min,  0.145 sec
 * total energy  :  -361.4848346 Eh     change       -0.3744971E-03 Eh
   gradient norm :     0.0071448 Eh/α   predicted    -0.3654800E-03 (  -2.41%)
   displ. norm   :     0.6605383 α      lambda       -0.5447248E-03
   maximum displ.:     0.2735487 α      in ANC's #6, #1, #3, ...

........................................................................
.............................. CYCLE   41 ..............................
........................................................................
   1   -366.6932227 -0.366693E+03  0.519E-02    1.12       0.0  T
   2   -366.6932288 -0.608003E-05  0.289E-02    1.12       1.0  T
   3   -366.6932000  0.288413E-04  0.124E-02    1.12       1.0  T
   4   -366.6932296 -0.296872E-04  0.452E-03    1.12       1.5  T
   5   -366.6932315 -0.190666E-05  0.251E-03    1.12       2.7  T
   6   -366.6932326 -0.107195E-05  0.835E-04    1.12       8.2  T
   7   -366.6932327 -0.996863E-07  0.421E-04    1.12      16.3  T
   8   -366.6932327 -0.271326E-07  0.202E-04    1.12      34.0  T
     SCC iter.                  ...        0 min,  0.357 sec
     gradient                   ...        0 min,  0.145 sec
 * total energy  :  -361.4851204 Eh     change       -0.2858132E-03 Eh
   gradient norm :     0.0093054 Eh/α   predicted    -0.3912011E-03 (  36.87%)
   displ. norm   :     0.6834062 α      lambda       -0.5068947E-03
   maximum displ.:     0.2831248 α      in ANC's #6, #3, #1, ...

........................................................................
.............................. CYCLE   42 ..............................
........................................................................
   1   -366.6888599 -0.366689E+03  0.517E-02    1.12       0.0  T
   2   -366.6888696 -0.971846E-05  0.256E-02    1.12       1.0  T
   3   -366.6888658  0.380052E-05  0.708E-03    1.12       1.0  T
   4   -366.6888702 -0.433718E-05  0.409E-03    1.12       1.7  T
   5   -366.6888713 -0.112490E-05  0.202E-03    1.12       3.4  T
   6   -366.6888720 -0.708097E-06  0.840E-04    1.12       8.2  T
   7   -366.6888722 -0.144872E-06  0.282E-04    1.12      24.4  T
     SCC iter.                  ...        0 min,  0.313 sec
     gradient                   ...        0 min,  0.144 sec
 * total energy  :  -361.4854787 Eh     change       -0.3583456E-03 Eh
   gradient norm :     0.0078091 Eh/α   predicted    -0.3718201E-03 (   3.76%)
   displ. norm   :     0.6929932 α      lambda       -0.3794791E-03
   maximum displ.:     0.2980072 α      in ANC's #6, #3, #1, ...
 * RMSD in coord.:     0.8623022 α      energy gain  -0.7594888E-02 Eh

generating ANC from model Hessian ...
Using Lindh-Hessian (1995)
 Shifting diagonal of input Hessian by   9.995142889506663E-003
 Lowest  eigenvalues of input Hessian
    0.000000    0.000000    0.000000    0.000000    0.000000    0.000000
    0.010000    0.010003    0.010005    0.010013    0.010020    0.010029
    0.010050    0.010066    0.010086    0.010088    0.010098    0.010105
 Highest eigenvalues
    2.110292    2.110601    2.113818    2.154671    2.158127    2.159673
 

........................................................................
.............................. CYCLE   43 ..............................
........................................................................
   1   -366.6848810 -0.366685E+03  0.487E-02    1.12       0.0  T
   2   -366.6848880 -0.709483E-05  0.245E-02    1.12       1.0  T
   3   -366.6848851  0.290956E-05  0.648E-03    1.12       1.1  T
   4   -366.6848880 -0.290780E-05  0.388E-03    1.12       1.8  T
   5   -366.6848890 -0.921886E-06  0.209E-03    1.12       3.3  T
   6   -366.6848899 -0.909518E-06  0.596E-04    1.12      11.5  T
   7   -366.6848899 -0.695299E-07  0.229E-04    1.12      29.9  T
     SCC iter.                  ...        0 min,  0.311 sec
     gradient                   ...        0 min,  0.145 sec
 * total energy  :  -361.4857900 Eh     change       -0.3112723E-03 Eh
   gradient norm :     0.0070114 Eh/α   predicted     0.0000000E+00 (-100.00%)
   displ. norm   :     0.0741814 α      lambda       -0.1850953E-03
   maximum displ.:     0.0220809 α      in ANC's #3, #30, #1, ...

........................................................................
.............................. CYCLE   44 ..............................
........................................................................
   1   -366.6902901 -0.366690E+03  0.121E-02    1.12       0.0  T
   2   -366.6902907 -0.600184E-06  0.690E-03    1.12       1.0  T
   3   -366.6902900  0.632344E-06  0.214E-03    1.12       3.2  T
   4   -366.6902906 -0.564843E-06  0.113E-03    1.12       6.1  T
   5   -366.6902908 -0.187215E-06  0.580E-04    1.12      11.8  T
   6   -366.6902908 -0.363302E-07  0.275E-04    1.12      25.0  T
     SCC iter.                  ...        0 min,  0.269 sec
     gradient                   ...        0 min,  0.145 sec
 * total energy  :  -361.4859246 Eh     change       -0.1346356E-03 Eh
   gradient norm :     0.0028708 Eh/α   predicted    -0.9359066E-04 ( -30.49%)
   displ. norm   :     0.1429451 α      lambda       -0.1399200E-03
   maximum displ.:     0.0467335 α      in ANC's #3, #30, #1, ...

........................................................................
.............................. CYCLE   45 ..............................
........................................................................
   1   -366.6934805 -0.366693E+03  0.171E-02    1.12       0.0  T
   2   -366.6934814 -0.846004E-06  0.941E-03    1.12       1.0  T
   3   -366.6934795  0.187549E-05  0.337E-03    1.12       2.0  T
   4   -366.6934812 -0.169495E-05  0.171E-03    1.12       4.0  T
   5   -366.6934816 -0.390263E-06  0.852E-04    1.12       8.1  T
   6   -366.6934817 -0.102332E-06  0.317E-04    1.12      21.7  T
     SCC iter.                  ...        0 min,  0.269 sec
     gradient                   ...        0 min,  0.145 sec
 * total energy  :  -361.4860267 Eh     change       -0.1021080E-03 Eh
   gradient norm :     0.0023956 Eh/α   predicted    -0.7139064E-04 ( -30.08%)
   displ. norm   :     0.2321461 α      lambda       -0.1416450E-03
   maximum displ.:     0.0775623 α      in ANC's #3, #30, #1, ...

........................................................................
.............................. CYCLE   46 ..............................
........................................................................
   1   -366.6940759 -0.366694E+03  0.253E-02    1.12       0.0  T
   2   -366.6940772 -0.132626E-05  0.137E-02    1.12       1.0  T
   3   -366.6940741  0.310780E-05  0.442E-03    1.12       1.6  T
   4   -366.6940768 -0.268584E-05  0.243E-03    1.12       2.8  T
   5   -366.6940775 -0.724651E-06  0.117E-03    1.12       5.9  T
   6   -366.6940777 -0.236702E-06  0.347E-04    1.12      19.8  T
   7   -366.6940778 -0.209324E-07  0.155E-04    1.12      44.3  T
     SCC iter.                  ...        0 min,  0.314 sec
     gradient                   ...        0 min,  0.144 sec
 * total energy  :  -361.4861432 Eh     change       -0.1164914E-03 Eh
   gradient norm :     0.0045221 Eh/α   predicted    -0.7464754E-04 ( -35.92%)
   displ. norm   :     0.4490320 α      lambda       -0.2437379E-03
   maximum displ.:     0.1510975 α      in ANC's #3, #1, #30, ...

........................................................................
.............................. CYCLE   47 ..............................
........................................................................
   1   -366.6916113 -0.366692E+03  0.473E-02    1.12       0.0  T
   2   -366.6916154 -0.411303E-05  0.254E-02    1.12       1.0  T
   3   -366.6916083  0.712418E-05  0.716E-03    1.12       1.0  T
   4   -366.6916136 -0.525569E-05  0.447E-03    1.12       1.5  T
   5   -366.6916163 -0.272375E-05  0.187E-03    1.12       3.7  T
   6   -366.6916170 -0.661041E-06  0.533E-04    1.12      12.9  T
   7   -366.6916170 -0.491659E-07  0.251E-04    1.12      27.4  T
     SCC iter.                  ...        0 min,  0.314 sec
     gradient                   ...        0 min,  0.144 sec
 * total energy  :  -361.4863466 Eh     change       -0.2033926E-03 Eh
   gradient norm :     0.0062427 Eh/α   predicted    -0.1464423E-03 ( -28.00%)
   displ. norm   :     0.5856226 α      lambda       -0.2969136E-03
   maximum displ.:     0.2013372 α      in ANC's #3, #1, #30, ...

........................................................................
.............................. CYCLE   48 ..............................
........................................................................
   1   -366.6865973 -0.366687E+03  0.605E-02    1.13       0.0  T
   2   -366.6866038 -0.650369E-05  0.325E-02    1.13       1.0  T
   3   -366.6865985  0.532360E-05  0.753E-03    1.13       1.0  T
   4   -366.6866000 -0.143768E-05  0.555E-03    1.13       1.2  T
   5   -366.6866049 -0.490209E-05  0.218E-03    1.13       3.1  T
   6   -366.6866058 -0.931891E-06  0.602E-04    1.13      11.4  T
   7   -366.6866059 -0.623124E-07  0.283E-04    1.13      24.3  T
     SCC iter.                  ...        0 min,  0.313 sec
     gradient                   ...        0 min,  0.144 sec
 * total energy  :  -361.4865893 Eh     change       -0.2426932E-03 Eh
   gradient norm :     0.0066595 Eh/α   predicted    -0.1993713E-03 ( -17.85%)
   displ. norm   :     0.5605540 α      lambda       -0.2843905E-03
   maximum displ.:     0.2007803 α      in ANC's #3, #1, #6, ...

........................................................................
.............................. CYCLE   49 ..............................
........................................................................
   1   -366.6831465 -0.366683E+03  0.566E-02    1.13       0.0  T
   2   -366.6831520 -0.547129E-05  0.306E-02    1.13       1.0  T
   3   -366.6831503  0.166479E-05  0.617E-03    1.13       1.1  T
   4   -366.6831508 -0.508893E-06  0.398E-03    1.13       1.7  T
   5   -366.6831527 -0.188138E-05  0.185E-03    1.13       3.7  T
   6   -366.6831534 -0.729540E-06  0.540E-04    1.13      12.7  T
   7   -366.6831535 -0.507882E-07  0.232E-04    1.13      29.6  T
     SCC iter.                  ...        0 min,  0.313 sec
     gradient                   ...        0 min,  0.145 sec
 * total energy  :  -361.4868194 Eh     change       -0.2300686E-03 Eh
   gradient norm :     0.0060476 Eh/α   predicted    -0.1868775E-03 ( -18.77%)
   displ. norm   :     0.4952324 α      lambda       -0.2968401E-03
   maximum displ.:     0.1880598 α      in ANC's #3, #1, #6, ...

........................................................................
.............................. CYCLE   50 ..............................
........................................................................
   1   -366.6843397 -0.366684E+03  0.484E-02    1.13       0.0  T
   2   -366.6843436 -0.389360E-05  0.264E-02    1.13       1.0  T
   3   -366.6843396  0.397684E-05  0.651E-03    1.13       1.1  T
   4   -366.6843431 -0.348532E-05  0.364E-03    1.13       1.9  T
   5   -366.6843440 -0.920842E-06  0.202E-03    1.13       3.4  T
   6   -366.6843449 -0.879706E-06  0.479E-04    1.13      14.4  T
   7   -366.6843450 -0.352914E-07  0.232E-04    1.13      29.6  T
     SCC iter.                  ...        0 min,  0.312 sec
     gradient                   ...        0 min,  0.145 sec
 * total energy  :  -361.4870551 Eh     change       -0.2357082E-03 Eh
   gradient norm :     0.0051728 Eh/α   predicted    -0.1848412E-03 ( -21.58%)
   displ. norm   :     0.5102811 α      lambda       -0.2789694E-03
   maximum displ.:     0.2016013 α      in ANC's #3, #1, #6, ...

........................................................................
.............................. CYCLE   51 ..............................
........................................................................
   1   -366.6876881 -0.366688E+03  0.480E-02    1.13       0.0  T
   2   -366.6876917 -0.356315E-05  0.264E-02    1.13       1.0  T
   3   -366.6876851  0.655356E-05  0.726E-03    1.13       1.0  T
   4   -366.6876912 -0.605919E-05  0.376E-03    1.13       1.8  T
   5   -366.6876923 -0.108307E-05  0.205E-03    1.13       3.4  T
   6   -366.6876931 -0.882879E-06  0.441E-04    1.13      15.6  T
   7   -366.6876932 -0.293718E-07  0.219E-04    1.13      31.3  T
     SCC iter.                  ...        0 min,  0.313 sec
     gradient                   ...        0 min,  0.144 sec
 * total energy  :  -361.4872831 Eh     change       -0.2279952E-03 Eh
   gradient norm :     0.0058001 Eh/α   predicted    -0.1758056E-03 ( -22.89%)
   displ. norm   :     0.5595983 α      lambda       -0.2885431E-03
   maximum displ.:     0.2275347 α      in ANC's #3, #1, #6, ...

........................................................................
.............................. CYCLE   52 ..............................
........................................................................
   1   -366.6915185 -0.366692E+03  0.511E-02    1.13       0.0  T
   2   -366.6915223 -0.387909E-05  0.280E-02    1.13       1.0  T
   3   -366.6915162  0.609131E-05  0.716E-03    1.13       1.0  T
   4   -366.6915215 -0.528525E-05  0.396E-03    1.13       1.7  T
   5   -366.6915230 -0.149882E-05  0.195E-03    1.13       3.5  T
   6   -366.6915238 -0.815351E-06  0.442E-04    1.13      15.5  T
   7   -366.6915239 -0.307699E-07  0.217E-04    1.13      31.7  T
     SCC iter.                  ...        0 min,  0.313 sec
     gradient                   ...        0 min,  0.144 sec
 * total energy  :  -361.4875276 Eh     change       -0.2444887E-03 Eh
   gradient norm :     0.0062642 Eh/α   predicted    -0.1894541E-03 ( -22.51%)
   displ. norm   :     0.6145368 α      lambda       -0.3213449E-03
   maximum displ.:     0.2561780 α      in ANC's #3, #1, #6, ...

........................................................................
.............................. CYCLE   53 ..............................
........................................................................
   1   -366.6948566 -0.366695E+03  0.547E-02    1.13       0.0  T
   2   -366.6948614 -0.479292E-05  0.298E-02    1.13       1.0  T
   3   -366.6948567  0.472056E-05  0.695E-03    1.13       1.0  T
   4   -366.6948603 -0.361695E-05  0.416E-03    1.13       1.7  T
   5   -366.6948624 -0.209668E-05  0.172E-03    1.13       4.0  T
   6   -366.6948630 -0.603507E-06  0.471E-04    1.13      14.6  T
   7   -366.6948630 -0.336946E-07  0.230E-04    1.13      29.8  T
     SCC iter.                  ...        0 min,  0.311 sec
     gradient                   ...        0 min,  0.145 sec
 * total energy  :  -361.4878050 Eh     change       -0.2774431E-03 Eh
   gradient norm :     0.0056342 Eh/α   predicted    -0.2213514E-03 ( -20.22%)
   displ. norm   :     0.6682392 α      lambda       -0.3448592E-03
   maximum displ.:     0.2839217 α      in ANC's #3, #1, #6, ...

........................................................................
.............................. CYCLE   54 ..............................
........................................................................
   1   -366.6959592 -0.366696E+03  0.588E-02    1.13       0.0  T
   2   -366.6959657 -0.651020E-05  0.316E-02    1.13       1.0  T
   3   -366.6959616  0.412871E-05  0.725E-03    1.13       1.0  T
   4   -366.6959643 -0.273756E-05  0.452E-03    1.13       1.5  T
   5   -366.6959670 -0.268681E-05  0.174E-03    1.13       3.9  T
   6   -366.6959676 -0.606774E-06  0.521E-04    1.13      13.2  T
   7   -366.6959676 -0.404268E-07  0.250E-04    1.13      27.5  T
     SCC iter.                  ...        0 min,  0.315 sec
     gradient                   ...        0 min,  0.145 sec
 * total energy  :  -361.4881034 Eh     change       -0.2984299E-03 Eh
   gradient norm :     0.0041617 Eh/α   predicted    -0.2495096E-03 ( -16.39%)
   displ. norm   :     0.6774191 α      lambda       -0.3358865E-03
   maximum displ.:     0.2942778 α      in ANC's #3, #1, #6, ...

........................................................................
.............................. CYCLE   55 ..............................
........................................................................
   1   -366.6962925 -0.366696E+03  0.585E-02    1.13       0.0  T
   2   -366.6963004 -0.790001E-05  0.309E-02    1.13       1.0  T
   3   -366.6962960  0.440917E-05  0.759E-03    1.13       1.0  T
   4   -366.6962996 -0.363740E-05  0.456E-03    1.13       1.5  T
   5   -366.6963017 -0.211916E-05  0.205E-03    1.13       3.3  T
   6   -366.6963026 -0.860611E-06  0.590E-04    1.13      11.6  T
   7   -366.6963026 -0.548437E-07  0.266E-04    1.13      25.8  T
     SCC iter.                  ...        0 min,  0.310 sec
     gradient                   ...        0 min,  0.144 sec
 * total energy  :  -361.4883871 Eh     change       -0.2836164E-03 Eh
   gradient norm :     0.0036955 Eh/α   predicted    -0.2450134E-03 ( -13.61%)
   displ. norm   :     0.7089403 α      lambda       -0.2960019E-03
   maximum displ.:     0.3112138 α      in ANC's #3, #1, #6, ...

........................................................................
.............................. CYCLE   56 ..............................
........................................................................
   1   -366.6921920 -0.366692E+03  0.627E-02    1.13       0.0  T
   2   -366.6922014 -0.936381E-05  0.328E-02    1.13       1.0  T
   3   -366.6921973  0.410783E-05  0.784E-03    1.13       1.0  T
   4   -366.6922005 -0.327453E-05  0.483E-03    1.13       1.4  T
   5   -366.6922028 -0.230864E-05  0.222E-03    1.13       3.1  T
   6   -366.6922039 -0.102522E-05  0.651E-04    1.13      10.6  T
   7   -366.6922039 -0.744757E-07  0.278E-04    1.13      24.7  T
   8   -366.6922039 -0.119079E-07  0.143E-04    1.13      48.2  T
     SCC iter.                  ...        0 min,  0.354 sec
     gradient                   ...        0 min,  0.144 sec
 * total energy  :  -361.4886316 Eh     change       -0.2445357E-03 Eh
   gradient norm :     0.0047488 Eh/α   predicted    -0.2223914E-03 (  -9.06%)
   displ. norm   :     0.6263291 α      lambda       -0.3437800E-03
   maximum displ.:     0.2719790 α      in ANC's #3, #1, #6, ...

........................................................................
.............................. CYCLE   57 ..............................
........................................................................
   1   -366.6968918 -0.366697E+03  0.546E-02    1.12       0.0  T
   2   -366.6969018 -0.996455E-05  0.286E-02    1.12       1.0  T
   3   -366.6968914  0.103214E-04  0.946E-03    1.12       1.0  T
   4   -366.6969031 -0.116139E-04  0.448E-03    1.13       1.5  T
   5   -366.6969034 -0.327884E-06  0.305E-03    1.12       2.3  T
   6   -366.6969053 -0.186951E-05  0.758E-04    1.12       9.1  T
   7   -366.6969053 -0.912564E-07  0.377E-04    1.12      18.2  T
   8   -366.6969054 -0.244444E-07  0.179E-04    1.12      38.3  T
     SCC iter.                  ...        0 min,  0.356 sec
     gradient                   ...        0 min,  0.143 sec
 * total energy  :  -361.4888163 Eh     change       -0.1846737E-03 Eh
   gradient norm :     0.0075396 Eh/α   predicted    -0.2393207E-03 (  29.59%)
   displ. norm   :     0.5607021 α      lambda       -0.2832601E-03
   maximum displ.:     0.2528999 α      in ANC's #3, #1, #6, ...

........................................................................
.............................. CYCLE   58 ..............................
........................................................................
   1   -366.6912773 -0.366691E+03  0.503E-02    1.12       0.0  T
   2   -366.6912835 -0.619052E-05  0.264E-02    1.12       1.0  T
   3   -366.6912780  0.546939E-05  0.734E-03    1.12       1.0  T
   4   -366.6912835 -0.551493E-05  0.403E-03    1.12       1.7  T
   5   -366.6912843 -0.794846E-06  0.243E-03    1.12       2.8  T
   6   -366.6912855 -0.121758E-05  0.517E-04    1.12      13.3  T
   7   -366.6912856 -0.425161E-07  0.262E-04    1.12      26.2  T
   8   -366.6912856 -0.104868E-07  0.137E-04    1.12      50.0  T
     SCC iter.                  ...        0 min,  0.358 sec
     gradient                   ...        0 min,  0.144 sec
 * total energy  :  -361.4890328 Eh     change       -0.2165084E-03 Eh
   gradient norm :     0.0053589 Eh/α   predicted    -0.1861581E-03 ( -14.02%)
   displ. norm   :     0.4634234 α      lambda       -0.2287044E-03
   maximum displ.:     0.2212073 α      in ANC's #3, #1, #6, ...

........................................................................
.............................. CYCLE   59 ..............................
[...]
   167   1 H    0.998 --    55 C    0.978
   168   1 H    0.996 --    58 C    0.962
   169   1 H    0.998 --    63 C    0.965
   170   1 H    0.997 --    64 C    0.962
   171   1 H    0.997 --    67 C    0.970
   172   1 H    0.998 --    67 C    0.971
   173   1 H    0.998 --    68 C    0.983
   174   1 H    0.997 --    68 C    0.986
   175   1 H    0.998 --    68 C    0.979
   176   1 H    0.996 --    70 C    0.963
   177   1 H    0.997 --    74 C    0.953
   178   1 H    0.997 --    82 C    0.960
   179   1 H    0.992 --    84 C    0.966
   180   1 H    0.993 --    84 C    0.968
   181   1 H    0.998 --    84 C    0.985
   182   1 H    0.997 --    87 C    0.975
   183   1 H    0.997 --    87 C    0.976
   184   1 H    0.995 --    87 C    0.979
   185   1 H    0.996 --    88 C    0.947
   186   1 H    0.997 --    90 C    0.954
   187   1 H    0.998 --    94 C    0.966
   188   1 H    0.997 --    95 C    0.963
   189   1 H    0.997 --    98 C    0.971
   190   1 H    0.998 --    98 C    0.971
   191   1 H    0.997 --    99 C    0.986
   192   1 H    0.998 --    99 C    0.984
   193   1 H    0.996 --    99 C    0.975
   194   1 H    0.995 --   102 C    0.960
   195   1 H    0.997 --   107 C    0.965
   196   1 H    0.996 --   108 C    0.967
   197   1 H    0.996 --   111 C    0.973
   198   1 H    0.997 --   111 C    0.970
   199   1 H    0.998 --   112 C    0.979
   200   1 H    0.998 --   112 C    0.985
   201   1 H    0.998 --   112 C    0.986
   202   1 H    0.996 --   114 C    0.963
   203   1 H    0.998 --   118 C    0.956
   204   1 H    0.997 --   123 C    0.969
   205   1 H    0.996 --   126 C    0.951
   206   1 H    0.992 --   128 C    0.967
   207   1 H    0.992 --   128 C    0.967
   208   1 H    0.997 --   128 C    0.985
   209   1 H    0.996 --   131 C    0.980
   210   1 H    0.998 --   131 C    0.976
   211   1 H    0.998 --   131 C    0.976
   212   1 H    0.998 --   132 C    0.964
 ---------------------------------------------------------------------------

Topologies differ in bond orders
Writing corrected topology to xtbtopo.mol

molecular dipole:
                 x           y           z       tot (Debye)
 q only:        3.490       1.318      -0.646
   full:        3.781       1.199      -1.212      10.543
molecular quadrupole (traceless):
                xx          xy          yy          xz          yz          zz
 q only:       96.041      44.444     -25.000      84.872      36.001     -71.042
  q+dip:      119.289      72.927     -46.254     110.445      52.730     -73.035
   full:      116.900      78.204     -52.759     107.520      48.821     -64.141

           -------------------------------------------------
          |                Geometry Summary                 |
           -------------------------------------------------

      molecular mass/u    :     2020.7551821
   center of mass at/Å    :       -0.3071594      -0.3318878      -0.0368493
  moments of inertia/u·Å² :        0.4485506E+05   0.2041705E+06   0.2395006E+06
rotational constants/cm⁻¹ :        0.3758245E-03   0.8256643E-04   0.7038661E-04

 * 203 selected distances

     #   Z          #   Z                                           value/Å
     1   6 C        2  16 S                                       1.7042377
     2  16 S        3   6 C                                       1.7419942
     3   6 C        4   6 C                                       1.3956231
     1   6 C        5   6 C                                       1.3755190
     4   6 C        5   6 C                                       1.4344571
     5   6 C        6   6 C                                       1.4166287
     6   6 C        7   6 C                                       1.3593303
     9   6 C       10   8 O                                       1.3596200
    10   8 O       11   6 C                                       1.4063712
     4   6 C       12   6 C                                       1.4105473
     9   6 C       12   6 C                                       1.3685322
     3   6 C       13   6 C                                       1.4210454
    13   6 C       14   6 C                                       1.3683776
    14   6 C       15   6 C                                       1.4150623
    15   6 C       16   6 C                                       1.4058841
    17   6 C       18   6 C                                       1.3920170
    18   6 C       19   6 C                                       1.3816444
    19   6 C       20   6 C                                       1.3899400
    22   6 C       23   6 C                                       1.5170778
    20   6 C       24   6 C                                       1.3962827
    17   6 C       26   6 C                                       1.3936455
    24   6 C       26   6 C                                       1.3758821
    16   6 C       27   6 C                                       1.3871830
    27   6 C       28   6 C                                       1.4170777
    28   6 C       29   6 C                                       1.4060633
    30   6 C       31   6 C                                       1.3913246
    31   6 C       32   6 C                                       1.3817760
    32   6 C       33   6 C                                       1.3900247
    35   6 C       36   6 C                                       1.5167911
    33   6 C       37   6 C                                       1.3963461
    30   6 C       38   6 C                                       1.3940948
    37   6 C       38   6 C                                       1.3761745
    15   6 C       40   6 C                                       1.4167264
    29   6 C       40   6 C                                       1.3839670
    13   6 C       41  16 S                                       1.7571051
    40   6 C       41  16 S                                       1.7440253
    28   6 C       42   6 C                                       1.4158497
    42   6 C       43   6 C                                       1.3649738
    27   6 C       44  16 S                                       1.7444701
    43   6 C       44  16 S                                       1.7513429
    43   6 C       45   6 C                                       1.4273153
    45   6 C       46   6 C                                       1.3650754
    46   6 C       47   6 C                                       1.4160367
    47   6 C       48   6 C                                       1.4052620
    49   6 C       50   6 C                                       1.3945659
    50   6 C       51   6 C                                       1.3774673
    51   6 C       52   6 C                                       1.3951956
    54   6 C       55   6 C                                       1.5154942
    52   6 C       56   6 C                                       1.3906788
    49   6 C       58   6 C                                       1.3897238
    56   6 C       58   6 C                                       1.3798235
    48   6 C       59   6 C                                       1.3845976
    59   6 C       60   6 C                                       1.4179358
    60   6 C       61   6 C                                       1.4058058
    62   6 C       63   6 C                                       1.3920366
    63   6 C       64   6 C                                       1.3807870
    64   6 C       65   6 C                                       1.3902323
    67   6 C       68   6 C                                       1.5163685
    65   6 C       69   6 C                                       1.3956085
    62   6 C       70   6 C                                       1.3939494
    69   6 C       70   6 C                                       1.3767322
    47   6 C       72   6 C                                       1.4165441
    61   6 C       72   6 C                                       1.3869956
    45   6 C       73  16 S                                       1.7515019
    72   6 C       73  16 S                                       1.7443707
    60   6 C       74   6 C                                       1.4164518
    74   6 C       75   6 C                                       1.3666647
    59   6 C       76  16 S                                       1.7431727
    75   6 C       76  16 S                                       1.7591911 (max)
    75   6 C       77   6 C                                       1.4222140
    77   6 C       78  16 S                                       1.7308517
    78  16 S       79   6 C                                       1.7360700
    79   6 C       80   6 C                                       1.3994502
    77   6 C       81   6 C                                       1.3970998
    80   6 C       81   6 C                                       1.4304130
    81   6 C       82   6 C                                       1.4120394
    82   6 C       83   6 C                                       1.3629271
    83   6 C       85   6 C                                       1.4311289
    85   6 C       86   8 O                                       1.3578775
    86   8 O       87   6 C                                       1.4072236
    80   6 C       88   6 C                                       1.4091279
    85   6 C       88   6 C                                       1.3694688
    79   6 C       89   6 C                                       1.4187258
    89   6 C       90   6 C                                       1.3702190
    90   6 C       91   6 C                                       1.4130800
    91   6 C       92   6 C                                       1.4074545
    93   6 C       94   6 C                                       1.3936856
    94   6 C       95   6 C                                       1.3799616
    95   6 C       96   6 C                                       1.3906199
    98   6 C       99   6 C                                       1.5150976
    96   6 C      100   6 C                                       1.3941191
    93   6 C      102   6 C                                       1.3929879
   100   6 C      102   6 C                                       1.3774852
    92   6 C      103   6 C                                       1.3858402
   103   6 C      104   6 C                                       1.4169746
   104   6 C      105   6 C                                       1.4065076
   106   6 C      107   6 C                                       1.3935850
   107   6 C      108   6 C                                       1.3783609
   108   6 C      109   6 C                                       1.3931197
   111   6 C      112   6 C                                       1.5153760
   109   6 C      113   6 C                                       1.3913831
   106   6 C      114   6 C                                       1.3914515
   113   6 C      114   6 C                                       1.3797391
    91   6 C      116   6 C                                       1.4167291
   105   6 C      116   6 C                                       1.3842884
    89   6 C      117  16 S                                       1.7572998
   116   6 C      117  16 S                                       1.7446737
   104   6 C      118   6 C                                       1.4137407
   118   6 C      119   6 C                                       1.3688957
   103   6 C      120  16 S                                       1.7445567
   119   6 C      120  16 S                                       1.7544773
   119   6 C      121   6 C                                       1.4214353
   121   6 C      122  16 S                                       1.7399329
   122  16 S      123   6 C                                       1.7056251
   123   6 C      124   6 C                                       1.3759624
   121   6 C      125   6 C                                       1.3953777
   124   6 C      125   6 C                                       1.4344018
   125   6 C      126   6 C                                       1.4124513
   126   6 C      127   6 C                                       1.3623806
   129   6 C      130   8 O                                       1.3613755
   130   8 O      131   6 C                                       1.4048467
   124   6 C      132   6 C                                       1.4158400
   129   6 C      132   6 C                                       1.3652284
     1   6 C      133   1 H                                       1.0716358
     6   6 C      134   1 H                                       1.0797424
     8   6 C      135   1 H                                       1.0864432
     8   6 C      136   1 H                                       1.0887400
     8   6 C      137   1 H                                       1.0888307
    11   6 C      138   1 H                                       1.0945184
    11   6 C      139   1 H                                       1.0947916
    11   6 C      140   1 H                                       1.0889013
    12   6 C      141   1 H                                       1.0757309
    14   6 C      142   1 H                                       1.0753687
    18   6 C      143   1 H                                       1.0796513
    19   6 C      144   1 H                                       1.0778713
    22   6 C      145   1 H                                       1.0900429
    22   6 C      146   1 H                                       1.0891948
    23   6 C      147   1 H                                       1.0879028
    23   6 C      148   1 H                                       1.0884227
    23   6 C      149   1 H                                       1.0874119
    26   6 C      150   1 H                                       1.0783227
    31   6 C      151   1 H                                       1.0793175
    32   6 C      152   1 H                                       1.0779419
    35   6 C      153   1 H                                       1.0899373
    35   6 C      154   1 H                                       1.0893144
    36   6 C      155   1 H                                       1.0883803
    36   6 C      156   1 H                                       1.0874179
    36   6 C      157   1 H                                       1.0880725
    38   6 C      158   1 H                                       1.0788173
    42   6 C      159   1 H                                       1.0742189
    46   6 C      160   1 H                                       1.0743452
    50   6 C      161   1 H                                       1.0795442
    51   6 C      162   1 H                                       1.0790577
    54   6 C      163   1 H                                       1.0902623
    54   6 C      164   1 H                                       1.0877654
    55   6 C      165   1 H                                       1.0880160
    55   6 C      166   1 H                                       1.0881156
    55   6 C      167   1 H                                       1.0882390
    58   6 C      168   1 H                                       1.0788358
    63   6 C      169   1 H                                       1.0792341
    64   6 C      170   1 H                                       1.0779586
    67   6 C      171   1 H                                       1.0900642
    67   6 C      172   1 H                                       1.0895265
    68   6 C      173   1 H                                       1.0881508
    68   6 C      174   1 H                                       1.0873702
    68   6 C      175   1 H                                       1.0882396
    70   6 C      176   1 H                                       1.0787676
    74   6 C      177   1 H                                       1.0731491
    82   6 C      178   1 H                                       1.0779212
    84   6 C      179   1 H                                       1.0888588
    84   6 C      180   1 H                                       1.0887290
    84   6 C      181   1 H                                       1.0865580
    87   6 C      182   1 H                                       1.0944954
    87   6 C      183   1 H                                       1.0944448
    87   6 C      184   1 H                                       1.0886973
    88   6 C      185   1 H                                       1.0754767
    90   6 C      186   1 H                                       1.0754659
    94   6 C      187   1 H                                       1.0795116
    95   6 C      188   1 H                                       1.0785139
    98   6 C      189   1 H                                       1.0897622
    98   6 C      190   1 H                                       1.0894602
    99   6 C      191   1 H                                       1.0875152
    99   6 C      192   1 H                                       1.0883915
    99   6 C      193   1 H                                       1.0862698
   102   6 C      194   1 H                                       1.0783038
   107   6 C      195   1 H                                       1.0789001
   108   6 C      196   1 H                                       1.0789074
   111   6 C      197   1 H                                       1.0877229
   111   6 C      198   1 H                                       1.0900403
   112   6 C      199   1 H                                       1.0881491
   112   6 C      200   1 H                                       1.0885002
   112   6 C      201   1 H                                       1.0880787
   114   6 C      202   1 H                                       1.0791403
   118   6 C      203   1 H                                       1.0755028
   123   6 C      204   1 H                                       1.0716002 (min)
   126   6 C      205   1 H                                       1.0780012
   128   6 C      206   1 H                                       1.0889199
   128   6 C      207   1 H                                       1.0888805
   128   6 C      208   1 H                                       1.0862649
   131   6 C      209   1 H                                       1.0888956
   131   6 C      210   1 H                                       1.0950124
   131   6 C      211   1 H                                       1.0950063
   132   6 C      212   1 H                                       1.0780362

 * 4 distinct bonds (by element types)

   Z      Z             #   av. dist./Å        max./Å        min./Å
   1 H    6 C          80     1.0844690     1.0950124     1.0716002
   6 C    6 C          99     1.4026221     1.5170778     1.3593303
   6 C    8 O           6     1.3828857     1.4072236     1.3578775
   6 C   16 S          18     1.7419388     1.7591911     1.7042377


optimized geometry written to: xtbopt.mol


           -------------------------------------------------
          | TOTAL ENERGY             -361.524100706090 Eh   |
          | GRADIENT NORM               0.000221070546 Eh/α |
          | HOMO-LUMO GAP               1.102309067774 eV   |
           -------------------------------------------------

------------------------------------------------------------------------
 * finished run on 2022/03/04 at 13:59:28.487     
------------------------------------------------------------------------
 total:
 * wall-time:     0 d,  0 h,  3 min, 59.537 sec
 *  cpu-time:     0 d,  0 h, 31 min, 56.026 sec
 * ratio c/w:     7.999 speedup
 SCF:
 * wall-time:     0 d,  0 h,  0 min,  0.852 sec
 *  cpu-time:     0 d,  0 h,  0 min,  6.793 sec
 * ratio c/w:     7.972 speedup
 ANC optimizer:
 * wall-time:     0 d,  0 h,  3 min, 58.553 sec
 *  cpu-time:     0 d,  0 h, 31 min, 48.307 sec
 * ratio c/w:     7.999 speedup

