      -----------------------------------------------------------      
     |                   =====================                   |     
     |                           x T B                           |     
     |                   =====================                   |     
     |                         S. Grimme                         |     
     |          Mulliken Center for Theoretical Chemistry        |     
     |                    University of Bonn                     |     
      -----------------------------------------------------------      

   * xtb version 6.4.1 (unknown) compiled by 'oda6@login1.crc.pitt.edu' on 2021-06-25

   xtb is free software: you can redistribute it and/or modify it under
   the terms of the GNU Lesser General Public License as published by
   the Free Software Foundation, either version 3 of the License, or
   (at your option) any later version.
   
   xtb is distributed in the hope that it will be useful,
   but WITHOUT ANY WARRANTY; without even the implied warranty of
   MERCHANTABILITY or FITNESS FOR A PARTICULAR PURPOSE.  See the
   GNU Lesser General Public License for more details.
   
   Cite this work as:
   * C. Bannwarth, E. Caldeweyher, S. Ehlert, A. Hansen, P. Pracht,
     J. Seibert, S. Spicher, S. Grimme, WIREs Comput. Mol. Sci., 2020, 11,
     e01493. DOI: 10.1002/wcms.1493
   
   for GFN2-xTB:
   * C. Bannwarth, S. Ehlert and S. Grimme., J. Chem. Theory Comput., 2019,
     15, 1652-1671. DOI: 10.1021/acs.jctc.8b01176
   for GFN1-xTB:
   * S. Grimme, C. Bannwarth, P. Shushkov, J. Chem. Theory Comput., 2017,
     13, 1989-2009. DOI: 10.1021/acs.jctc.7b00118
   for GFN0-xTB:
   * P. Pracht, E. Caldeweyher, S. Ehlert, S. Grimme, ChemRxiv, 2019, preprint.
     DOI: 10.26434/chemrxiv.8326202.v1
   for GFN-FF:
   * S. Spicher and S. Grimme, Angew. Chem. Int. Ed., 2020, 59, 15665-15673.
     DOI: 10.1002/anie.202004239
   
   for DFT-D4:
   * E. Caldeweyher, C. Bannwarth and S. Grimme, J. Chem. Phys., 2017,
     147, 034112. DOI: 10.1063/1.4993215
   * E. Caldeweyher, S. Ehlert, A. Hansen, H. Neugebauer, S. Spicher,
     C. Bannwarth and S. Grimme, J. Chem. Phys., 2019, 150, 154122.
     DOI: 10.1063/1.5090222
   * E. Caldeweyher, J.-M. Mewes, S. Ehlert and S. Grimme, Phys. Chem. Chem. Phys.
     2020, 22, 8499-8512. DOI: 10.1039/D0CP00502A
   
   for sTDA-xTB:
   * S. Grimme and C. Bannwarth, J. Chem. Phys., 2016, 145, 054103.
     DOI: 10.1063/1.4959605
   
   in the mass-spec context:
   * V. Asgeirsson, C. Bauer and S. Grimme, Chem. Sci., 2017, 8, 4879.
     DOI: 10.1039/c7sc00601b
   * J. Koopman and S. Grimme, ACS Omega 2019, 4, 12, 15120-15133.
     DOI: 10.1021/acsomega.9b02011
   
   for metadynamics refer to:
   * S. Grimme, J. Chem. Theory Comput., 2019, 155, 2847-2862
     DOI: 10.1021/acs.jctc.9b00143
   
   for SPH calculations refer to:
   * S. Spicher and S. Grimme, J. Chem. Theory Comput., 2021, 17, 1701-1714
     DOI: 10.1021/acs.jctc.0c01306
   
   with help from (in alphabetical order)
   P. Atkinson, C. Bannwarth, F. Bohle, G. Brandenburg, E. Caldeweyher
   M. Checinski, S. Dohm, S. Ehlert, S. Ehrlich, I. Gerasimov, J. Koopman
   C. Lavigne, S. Lehtola, F. März, M. Müller, F. Musil, H. Neugebauer
   J. Pisarek, C. Plett, P. Pracht, J. Seibert, P. Shushkov, S. Spicher
   M. Stahn, M. Steiner, T. Strunk, J. Stückrath, T. Rose, and J. Unsleber
   
 * started run on 2022/03/07 at 15:28:10.328     

           -------------------------------------------------
          |                Calculation Setup                |
           -------------------------------------------------

          program call               : /ihome/ghutchison/oda6/xtb/xtb-641/bin/xtb ../../FF_optimized/97_99_001110.mol -opt
          hostname                   : smp-n44
          coordinate file            : ../../FF_optimized/97_99_001110.mol
          omp threads                :                     8
          number of atoms            :                   188
          number of electrons        :                   590
          charge                     :                     0
          spin                       :                   0.0
          first test random number   :      0.56453626788481

   ID    Z sym.   atoms
    1    6 C      1-4, 6, 8-11, 13, 15-22, 24-26, 28-35, 37-40, 42, 44, 45,
                  47-54, 56-58, 60-67, 69-72, 74, 76, 77, 79-86, 88-90,
                  92-99, 101-104, 106, 108, 109, 111-114, 116
    2    7 N      5, 12, 115
    3   16 S      7, 14, 23, 36, 43, 46, 55, 68, 75, 78, 87, 100, 107, 110,
                  117
    4    9 F      27, 41, 59, 73, 91, 105
    5    1 H      118-188
########################################################################
[WARNING] Please study the warnings concerning your input carefully
-1- prog_main_parseArguments: the use of '-opt' is discouraged, please use '--opt' next time
########################################################################

           -------------------------------------------------
          |                 G F N 2 - x T B                 |
           -------------------------------------------------

        Reference                      10.1021/acs.jctc.8b01176
      * Hamiltonian:
        H0-scaling (s, p, d)           1.850000    2.230000    2.230000
        zeta-weighting                 0.500000
      * Dispersion:
        s8                             2.700000
        a1                             0.520000
        a2                             5.000000
        s9                             5.000000
      * Repulsion:
        kExp                           1.500000    1.000000
        rExp                           1.000000
      * Coulomb:
        alpha                          2.000000
        third order                    shell-resolved
        anisotropic                    true
        a3                             3.000000
        a5                             4.000000
        cn-shift                       1.200000
        cn-exp                         4.000000
        max-rad                        5.000000


          ...................................................
          :                      SETUP                      :
          :.................................................:
          :  # basis functions                 629          :
          :  # atomic orbitals                 614          :
          :  # shells                          320          :
          :  # electrons                       590          :
          :  max. iterations                   250          :
          :  Hamiltonian                  GFN2-xTB          :
          :  restarted?                      false          :
          :  GBSA solvation                  false          :
          :  PC potential                    false          :
          :  electronic temp.          300.0000000     K    :
          :  accuracy                    1.0000000          :
          :  -> integral cutoff          0.2500000E+02      :
          :  -> integral neglect         0.1000000E-07      :
          :  -> SCF convergence          0.1000000E-05 Eh   :
          :  -> wf. convergence          0.1000000E-03 e    :
          :  Broyden damping             0.4000000          :
          ...................................................

 iter      E             dE          RMSdq      gap      omega  full diag
   1   -325.1787848 -0.325179E+03  0.426E+00    1.67       0.0  T
   2   -325.4292368 -0.250452E+00  0.246E+00    1.58       1.0  T
   3   -325.3159215  0.113315E+00  0.114E+00    1.25       1.0  T
   4   -325.4662443 -0.150323E+00  0.495E-01    1.25       1.0  T
   5   -325.4908066 -0.245623E-01  0.211E-01    1.23       1.0  T
   6   -325.4934668 -0.266018E-02  0.965E-02    1.24       1.0  T
   7   -325.4941774 -0.710602E-03  0.423E-02    1.25       1.0  T
   8   -325.4943434 -0.166068E-03  0.239E-02    1.26       1.0  T
   9   -325.4943982 -0.547807E-04  0.127E-02    1.26       1.0  T
  10   -325.4944120 -0.138019E-04  0.452E-03    1.26       1.6  T
  11   -325.4944130 -0.955304E-06  0.256E-03    1.26       2.8  T
  12   -325.4944135 -0.507358E-06  0.137E-03    1.26       5.3  T
  13   -325.4944137 -0.172630E-06  0.656E-04    1.26      11.1  T
  14   -325.4944137 -0.303695E-07  0.320E-04    1.26      22.8  T

   *** convergence criteria satisfied after 14 iterations ***

         #    Occupation            Energy/Eh            Energy/eV
      -------------------------------------------------------------
         1        2.0000           -0.8235544             -22.4101
       ...           ...                  ...                  ...
       289        2.0000           -0.3728050             -10.1445
       290        2.0000           -0.3645196              -9.9191
       291        2.0000           -0.3638987              -9.9022
       292        2.0000           -0.3627527              -9.8710
       293        2.0000           -0.3625189              -9.8646
       294        2.0000           -0.3613485              -9.8328
       295        2.0000           -0.3601027              -9.7989 (HOMO)
       296                         -0.3137965              -8.5388 (LUMO)
       297                         -0.3075420              -8.3686
       298                         -0.2937848              -7.9943
       299                         -0.2843294              -7.7370
       300                         -0.2776236              -7.5545
       ...                                ...                  ...
       614                          0.7777490              21.1636
      -------------------------------------------------------------
                  HL-Gap            0.0463062 Eh            1.2601 eV
             Fermi-level           -0.3367797 Eh           -9.1642 eV

 SCC (total)                   0 d,  0 h,  0 min,  0.663 sec
 SCC setup                      ...        0 min,  0.003 sec (  0.405%)
 Dispersion                     ...        0 min,  0.007 sec (  1.017%)
 classical contributions        ...        0 min,  0.000 sec (  0.043%)
 integral evaluation            ...        0 min,  0.033 sec (  4.987%)
 iterations                     ...        0 min,  0.517 sec ( 78.038%)
 molecular gradient             ...        0 min,  0.100 sec ( 15.019%)
 printout                       ...        0 min,  0.003 sec (  0.479%)

         :::::::::::::::::::::::::::::::::::::::::::::::::::::
         ::                     SUMMARY                     ::
         :::::::::::::::::::::::::::::::::::::::::::::::::::::
         :: total energy            -321.231085675901 Eh    ::
         :: gradient norm              0.317430443622 Eh/a0 ::
         :: HOMO-LUMO gap              1.260056147092 eV    ::
         ::.................................................::
         :: SCC energy              -325.494413691498 Eh    ::
         :: -> isotropic ES            0.120149043904 Eh    ::
         :: -> anisotropic ES          0.029415914407 Eh    ::
         :: -> anisotropic XC          0.136969077431 Eh    ::
         :: -> dispersion             -0.286166503465 Eh    ::
         :: repulsion energy           4.262979329137 Eh    ::
         :: add. restraining           0.000000000000 Eh    ::
         :: total charge               0.000000000023 e     ::
         :::::::::::::::::::::::::::::::::::::::::::::::::::::

      ----------------------------------------------------------- 
     |                   =====================                   |
     |                        A N C O P T                        |
     |                   =====================                   |
     |               Approximate Normal Coordinate               |
     |                Rational Function Optimizer                |
      ----------------------------------------------------------- 

          ...................................................
          :                      SETUP                      :
          :.................................................:
          :   optimization level            normal          :
          :   max. optcycles                   564          :
          :   ANC micro-cycles                  20          :
          :   degrees of freedom               558          :
          :.................................................:
          :   RF solver                   davidson          :
          :   write xtbopt.log                true          :
          :   linear?                        false          :
          :   energy convergence         0.5000000E-05 Eh   :
          :   grad. convergence          0.1000000E-02 Eh/α :
          :   maximium RF displ.         1.0000000          :
          :   Hlow (freq-cutoff)         0.1000000E-01      :
          :   Hmax (freq-cutoff)         5.0000000          :
          :   S6 in model hess.         20.0000000          :
          ...................................................

generating ANC from model Hessian ...
Using Lindh-Hessian (1995)
 Shifting diagonal of input Hessian by   9.992112696881423E-003
 Lowest  eigenvalues of input Hessian
    0.000000    0.000000    0.000000    0.000000    0.000000    0.000000
    0.010000    0.010006    0.010014    0.010017    0.010026    0.010033
    0.010054    0.010057    0.010062    0.010081    0.010085    0.010092
 Highest eigenvalues
    2.051187    2.054969    2.055101    2.098838    2.101915    2.104709
 

........................................................................
.............................. CYCLE    1 ..............................
........................................................................
   1   -325.4944137 -0.325494E+03  0.170E-04    1.26       0.0  T
   2   -325.4944137  0.445027E-09  0.153E-04    1.26      47.7  T
   3   -325.4944137 -0.409602E-08  0.716E-05    1.26     101.8  T
     SCC iter.                  ...        0 min,  0.111 sec
     gradient                   ...        0 min,  0.098 sec
 * total energy  :  -321.2310857 Eh     change       -0.8194661E-08 Eh
   gradient norm :     0.3174300 Eh/α   predicted     0.0000000E+00 (-100.00%)
   displ. norm   :     0.4351277 α      lambda       -0.9838757E-01
   maximum displ.:     0.0890310 α      in ANC's #296, #357, #371, ...

........................................................................
.............................. CYCLE    2 ..............................
........................................................................
   1   -325.6905980 -0.325691E+03  0.254E-01    1.24       0.0  T
   2   -325.6916256 -0.102757E-02  0.147E-01    1.22       1.0  T
   3   -325.6912556  0.370002E-03  0.830E-02    1.23       1.0  T
   4   -325.6918730 -0.617381E-03  0.366E-02    1.24       1.0  T
   5   -325.6920285 -0.155473E-03  0.113E-02    1.24       1.0  T
   6   -325.6920352 -0.676405E-05  0.558E-03    1.24       1.3  T
   7   -325.6920382 -0.302146E-05  0.191E-03    1.24       3.8  T
   8   -325.6920386 -0.363774E-06  0.107E-03    1.24       6.8  T
   9   -325.6920387 -0.773414E-07  0.497E-04    1.24      14.7  T
  10   -325.6920387 -0.150148E-07  0.244E-04    1.24      29.9  T
     SCC iter.                  ...        0 min,  0.354 sec
     gradient                   ...        0 min,  0.097 sec
 * total energy  :  -321.3045191 Eh     change       -0.7343346E-01 Eh
   gradient norm :     0.1723010 Eh/α   predicted    -0.5853348E-01 ( -20.29%)
   displ. norm   :     0.4048930 α      lambda       -0.4733282E-01
   maximum displ.:     0.0887575 α      in ANC's #124, #296, #495, ...

........................................................................
.............................. CYCLE    3 ..............................
........................................................................
   1   -325.8287681 -0.325829E+03  0.235E-01    1.22       0.0  T
   2   -325.8301552 -0.138706E-02  0.129E-01    1.19       1.0  T
   3   -325.8300788  0.763104E-04  0.750E-02    1.21       1.0  T
   4   -325.8303818 -0.302919E-03  0.396E-02    1.22       1.0  T
   5   -325.8305683 -0.186564E-03  0.102E-02    1.22       1.0  T
   6   -325.8305714 -0.306668E-05  0.535E-03    1.22       1.4  T
   7   -325.8305744 -0.305659E-05  0.157E-03    1.22       4.7  T
   8   -325.8305747 -0.219707E-06  0.874E-04    1.22       8.3  T
   9   -325.8305747 -0.493083E-07  0.409E-04    1.22      17.8  T
     SCC iter.                  ...        0 min,  0.308 sec
     gradient                   ...        0 min,  0.097 sec
 * total energy  :  -321.3335763 Eh     change       -0.2905717E-01 Eh
   gradient norm :     0.0509054 Eh/α   predicted    -0.2754625E-01 (  -5.20%)
   displ. norm   :     0.3985645 α      lambda       -0.7927633E-02
   maximum displ.:     0.1156129 α      in ANC's #65, #69, #104, ...

........................................................................
.............................. CYCLE    4 ..............................
........................................................................
   1   -325.8572246 -0.325857E+03  0.977E-02    1.21       0.0  T
   2   -325.8573828 -0.158240E-03  0.526E-02    1.19       1.0  T
   3   -325.8573437  0.390471E-04  0.277E-02    1.20       1.0  T
   4   -325.8573949 -0.511076E-04  0.145E-02    1.20       1.0  T
   5   -325.8574220 -0.271590E-04  0.368E-03    1.20       2.0  T
   6   -325.8574220 -0.302415E-07  0.178E-03    1.20       4.1  T
   7   -325.8574225 -0.426278E-06  0.553E-04    1.20      13.2  T
   8   -325.8574225 -0.247189E-07  0.332E-04    1.20      22.0  T
     SCC iter.                  ...        0 min,  0.290 sec
     gradient                   ...        0 min,  0.099 sec
 * total energy  :  -321.3390502 Eh     change       -0.5473929E-02 Eh
   gradient norm :     0.0216729 Eh/α   predicted    -0.4593511E-02 ( -16.08%)
   displ. norm   :     0.4366191 α      lambda       -0.3281282E-02
   maximum displ.:     0.1479879 α      in ANC's #65, #69, #52, ...

........................................................................
.............................. CYCLE    5 ..............................
........................................................................
   1   -325.8694117 -0.325869E+03  0.648E-02    1.20       0.0  T
   2   -325.8694399 -0.281801E-04  0.360E-02    1.19       1.0  T
   3   -325.8694085  0.314298E-04  0.163E-02    1.20       1.0  T
   4   -325.8694428 -0.342705E-04  0.723E-03    1.19       1.0  T
   5   -325.8694493 -0.656051E-05  0.211E-03    1.19       3.5  T
   6   -325.8694493 -0.153244E-07  0.942E-04    1.19       7.7  T
   7   -325.8694495 -0.133503E-06  0.380E-04    1.19      19.2  T
     SCC iter.                  ...        0 min,  0.251 sec
     gradient                   ...        0 min,  0.098 sec
 * total energy  :  -321.3413789 Eh     change       -0.2328652E-02 Eh
   gradient norm :     0.0117582 Eh/α   predicted    -0.1953408E-02 ( -16.11%)
   displ. norm   :     0.4443439 α      lambda       -0.1697544E-02
   maximum displ.:     0.1458375 α      in ANC's #65, #52, #39, ...

........................................................................
.............................. CYCLE    6 ..............................
........................................................................
   1   -325.8790754 -0.325879E+03  0.548E-02    1.19       0.0  T
   2   -325.8790821 -0.666372E-05  0.309E-02    1.19       1.0  T
   3   -325.8790656  0.165309E-04  0.108E-02    1.19       1.0  T
   4   -325.8790842 -0.185858E-04  0.373E-03    1.19       2.0  T
   5   -325.8790851 -0.897389E-06  0.174E-03    1.19       4.2  T
   6   -325.8790854 -0.373823E-06  0.585E-04    1.19      12.5  T
   7   -325.8790855 -0.386468E-07  0.288E-04    1.19      25.4  T
     SCC iter.                  ...        0 min,  0.248 sec
     gradient                   ...        0 min,  0.097 sec
 * total energy  :  -321.3426609 Eh     change       -0.1282006E-02 Eh
   gradient norm :     0.0114759 Eh/α   predicted    -0.1016449E-02 ( -20.71%)
   displ. norm   :     0.5010352 α      lambda       -0.1312731E-02
   maximum displ.:     0.1907153 α      in ANC's #39, #52, #65, ...

........................................................................
.............................. CYCLE    7 ..............................
........................................................................
   1   -325.8882924 -0.325888E+03  0.607E-02    1.19       0.0  T
   2   -325.8882997 -0.727524E-05  0.343E-02    1.19       1.0  T
   3   -325.8882821  0.176256E-04  0.111E-02    1.19       1.0  T
   4   -325.8883017 -0.196069E-04  0.390E-03    1.19       1.9  T
   5   -325.8883028 -0.109483E-05  0.180E-03    1.19       4.1  T
   6   -325.8883032 -0.455874E-06  0.604E-04    1.19      12.1  T
   7   -325.8883033 -0.513351E-07  0.264E-04    1.19      27.6  T
     SCC iter.                  ...        0 min,  0.250 sec
     gradient                   ...        0 min,  0.098 sec
 * total energy  :  -321.3436909 Eh     change       -0.1030010E-02 Eh
   gradient norm :     0.0114048 Eh/α   predicted    -0.8211380E-03 ( -20.28%)
   displ. norm   :     0.5592077 α      lambda       -0.1160447E-02
   maximum displ.:     0.2440993 α      in ANC's #39, #52, #34, ...

........................................................................
.............................. CYCLE    8 ..............................
........................................................................
   1   -325.8958207 -0.325896E+03  0.685E-02    1.19       0.0  T
   2   -325.8958305 -0.979020E-05  0.386E-02    1.19       1.0  T
   3   -325.8958049  0.256347E-04  0.128E-02    1.19       1.0  T
   4   -325.8958326 -0.276950E-04  0.481E-03    1.19       1.5  T
   5   -325.8958349 -0.237545E-05  0.178E-03    1.19       4.1  T
   6   -325.8958352 -0.283524E-06  0.701E-04    1.19      10.4  T
   7   -325.8958353 -0.822048E-07  0.271E-04    1.19      26.9  T
     SCC iter.                  ...        0 min,  0.249 sec
     gradient                   ...        0 min,  0.098 sec
 * total energy  :  -321.3446301 Eh     change       -0.9392109E-03 Eh
   gradient norm :     0.0099088 Eh/α   predicted    -0.7617052E-03 ( -18.90%)
   displ. norm   :     0.6032024 α      lambda       -0.1089790E-02
   maximum displ.:     0.2825880 α      in ANC's #39, #34, #41, ...

........................................................................
.............................. CYCLE    9 ..............................
........................................................................
   1   -325.9005094 -0.325901E+03  0.754E-02    1.19       0.0  T
   2   -325.9005194 -0.100236E-04  0.424E-02    1.20       1.0  T
   3   -325.9004909  0.285423E-04  0.134E-02    1.19       1.0  T
   4   -325.9005216 -0.307439E-04  0.514E-03    1.19       1.4  T
   5   -325.9005242 -0.260997E-05  0.175E-03    1.19       4.2  T
   6   -325.9005245 -0.234654E-06  0.669E-04    1.19      10.9  T
   7   -325.9005245 -0.694472E-07  0.278E-04    1.19      26.2  T
     SCC iter.                  ...        0 min,  0.257 sec
     gradient                   ...        0 min,  0.098 sec
 * total energy  :  -321.3455463 Eh     change       -0.9161933E-03 Eh
   gradient norm :     0.0088459 Eh/α   predicted    -0.7431764E-03 ( -18.88%)
   displ. norm   :     0.6560918 α      lambda       -0.1121704E-02
   maximum displ.:     0.3146315 α      in ANC's #39, #34, #20, ...

........................................................................
.............................. CYCLE   10 ..............................
........................................................................
   1   -325.9019019 -0.325902E+03  0.834E-02    1.20       0.0  T
   2   -325.9019119 -0.100430E-04  0.469E-02    1.20       1.0  T
   3   -325.9018871  0.248444E-04  0.132E-02    1.20       1.0  T
   4   -325.9019141 -0.270302E-04  0.524E-03    1.20       1.4  T
   5   -325.9019164 -0.229472E-05  0.181E-03    1.20       4.0  T
   6   -325.9019167 -0.331320E-06  0.635E-04    1.20      11.5  T
   7   -325.9019168 -0.465068E-07  0.283E-04    1.20      25.8  T
     SCC iter.                  ...        0 min,  0.249 sec
     gradient                   ...        0 min,  0.098 sec
 * total energy  :  -321.3465231 Eh     change       -0.9767872E-03 Eh
   gradient norm :     0.0096297 Eh/α   predicted    -0.8022793E-03 ( -17.87%)
   displ. norm   :     0.7148759 α      lambda       -0.1217996E-02
   maximum displ.:     0.3445116 α      in ANC's #39, #20, #23, ...

........................................................................
.............................. CYCLE   11 ..............................
........................................................................
   1   -325.9002103 -0.325900E+03  0.921E-02    1.20       0.0  T
   2   -325.9002217 -0.113556E-04  0.519E-02    1.20       1.0  T
   3   -325.9002031  0.186074E-04  0.129E-02    1.20       1.0  T
   4   -325.9002237 -0.206370E-04  0.539E-03    1.20       1.4  T
   5   -325.9002257 -0.199767E-05  0.201E-03    1.20       3.6  T
   6   -325.9002262 -0.532140E-06  0.702E-04    1.20      10.4  T
   7   -325.9002263 -0.567604E-07  0.314E-04    1.20      23.2  T
     SCC iter.                  ...        0 min,  0.250 sec
     gradient                   ...        0 min,  0.098 sec
 * total energy  :  -321.3476014 Eh     change       -0.1078294E-02 Eh
   gradient norm :     0.0108826 Eh/α   predicted    -0.9202356E-03 ( -14.66%)
   displ. norm   :     0.7487565 α      lambda       -0.1286428E-02
   maximum displ.:     0.3593829 α      in ANC's #39, #20, #23, ...

........................................................................
.............................. CYCLE   12 ..............................
........................................................................
   1   -325.8968544 -0.325897E+03  0.972E-02    1.19       0.0  T
   2   -325.8968673 -0.128994E-04  0.549E-02    1.19       1.0  T
   3   -325.8968520  0.153083E-04  0.125E-02    1.19       1.0  T
   4   -325.8968692 -0.171766E-04  0.547E-03    1.19       1.3  T
   5   -325.8968712 -0.196176E-05  0.211E-03    1.19       3.5  T
   6   -325.8968718 -0.625487E-06  0.798E-04    1.19       9.1  T
   7   -325.8968719 -0.956976E-07  0.333E-04    1.19      21.9  T
     SCC iter.                  ...        0 min,  0.251 sec
     gradient                   ...        0 min,  0.098 sec
 * total energy  :  -321.3487389 Eh     change       -0.1137466E-02 Eh
   gradient norm :     0.0109849 Eh/α   predicted    -0.1003845E-02 ( -11.75%)
   displ. norm   :     0.7597339 α      lambda       -0.1279743E-02
   maximum displ.:     0.3619728 α      in ANC's #39, #20, #23, ...

........................................................................
.............................. CYCLE   13 ..............................
........................................................................
   1   -325.8934656 -0.325893E+03  0.985E-02    1.19       0.0  T
   2   -325.8934786 -0.129915E-04  0.558E-02    1.19       1.0  T
   3   -325.8934612  0.173954E-04  0.125E-02    1.19       1.0  T
   4   -325.8934802 -0.190670E-04  0.551E-03    1.19       1.3  T
   5   -325.8934826 -0.231963E-05  0.211E-03    1.19       3.5  T
   6   -325.8934832 -0.637824E-06  0.795E-04    1.19       9.2  T
   7   -325.8934833 -0.103396E-06  0.327E-04    1.19      22.3  T
     SCC iter.                  ...        0 min,  0.248 sec
     gradient                   ...        0 min,  0.098 sec
 * total energy  :  -321.3498621 Eh     change       -0.1123213E-02 Eh
   gradient norm :     0.0103288 Eh/α   predicted    -0.1009205E-02 ( -10.15%)
   displ. norm   :     0.7536501 α      lambda       -0.1219035E-02
   maximum displ.:     0.3533764 α      in ANC's #39, #20, #22, ...

........................................................................
.............................. CYCLE   14 ..............................
........................................................................
   1   -325.8921230 -0.325892E+03  0.972E-02    1.19       0.0  T
   2   -325.8921344 -0.113386E-04  0.552E-02    1.19       1.0  T
   3   -325.8921130  0.214003E-04  0.129E-02    1.19       1.0  T
   4   -325.8921366 -0.236923E-04  0.525E-03    1.19       1.4  T
   5   -325.8921386 -0.200223E-05  0.197E-03    1.19       3.7  T
   6   -325.8921392 -0.570537E-06  0.680E-04    1.19      10.7  T
   7   -325.8921393 -0.616478E-07  0.304E-04    1.19      24.0  T
     SCC iter.                  ...        0 min,  0.252 sec
     gradient                   ...        0 min,  0.097 sec
 * total energy  :  -321.3509227 Eh     change       -0.1060667E-02 Eh
   gradient norm :     0.0102146 Eh/α   predicted    -0.9557195E-03 (  -9.89%)
   displ. norm   :     0.7534350 α      lambda       -0.1132127E-02
   maximum displ.:     0.3479269 α      in ANC's #39, #20, #22, ...

........................................................................
.............................. CYCLE   15 ..............................
........................................................................
   1   -325.8910931 -0.325891E+03  0.960E-02    1.18       0.0  T
   2   -325.8911035 -0.103913E-04  0.546E-02    1.19       1.0  T
   3   -325.8910788  0.246862E-04  0.135E-02    1.18       1.0  T
   4   -325.8911065 -0.277198E-04  0.507E-03    1.19       1.4  T
   5   -325.8911080 -0.144150E-05  0.202E-03    1.19       3.6  T
   6   -325.8911086 -0.658581E-06  0.624E-04    1.19      11.7  T
   7   -325.8911087 -0.423249E-07  0.299E-04    1.19      24.4  T
     SCC iter.                  ...        0 min,  0.253 sec
     gradient                   ...        0 min,  0.098 sec
 * total energy  :  -321.3519081 Eh     change       -0.9853638E-03 Eh
   gradient norm :     0.0106164 Eh/α   predicted    -0.8873999E-03 (  -9.94%)
   displ. norm   :     0.7094701 α      lambda       -0.1130616E-02
   maximum displ.:     0.2882369 α      in ANC's #39, #22, #20, ...

........................................................................
.............................. CYCLE   16 ..............................
........................................................................
   1   -325.9039461 -0.325904E+03  0.891E-02    1.18       0.0  T
   2   -325.9039570 -0.109199E-04  0.504E-02    1.19       1.0  T
   3   -325.9039244  0.326402E-04  0.149E-02    1.18       1.0  T
   4   -325.9039605 -0.361566E-04  0.521E-03    1.19       1.4  T
   5   -325.9039624 -0.186194E-05  0.210E-03    1.19       3.5  T
   6   -325.9039630 -0.559409E-06  0.759E-04    1.19       9.6  T
   7   -325.9039631 -0.859790E-07  0.354E-04    1.19      20.6  T
     SCC iter.                  ...        0 min,  0.250 sec
     gradient                   ...        0 min,  0.098 sec
 * total energy  :  -321.3527000 Eh     change       -0.7918749E-03 Eh
   gradient norm :     0.0124863 Eh/α   predicted    -0.8498671E-03 (   7.32%)
   displ. norm   :     0.7980296 α      lambda       -0.1261913E-02
   maximum displ.:     0.3745569 α      in ANC's #39, #22, #20, ...

........................................................................
.............................. CYCLE   17 ..............................
........................................................................
   1   -325.8880451 -0.325888E+03  0.102E-01    1.19       0.0  T
   2   -325.8880661 -0.210478E-04  0.580E-02    1.19       1.0  T
   3   -325.8880162  0.499386E-04  0.190E-02    1.19       1.0  T
   4   -325.8880729 -0.566776E-04  0.607E-03    1.19       1.2  T
   5   -325.8880750 -0.219318E-05  0.297E-03    1.19       2.5  T
   6   -325.8880764 -0.131036E-05  0.994E-04    1.19       7.3  T
   7   -325.8880765 -0.146813E-06  0.404E-04    1.19      18.1  T
   8   -325.8880765 -0.738220E-08  0.245E-04    1.19      29.8  T
     SCC iter.                  ...        0 min,  0.283 sec
     gradient                   ...        0 min,  0.098 sec
 * total energy  :  -321.3534611 Eh     change       -0.7611455E-03 Eh
   gradient norm :     0.0136511 Eh/α   predicted    -0.1032787E-02 (  35.69%)
   displ. norm   :     0.5386326 α      lambda       -0.6890486E-03
   maximum displ.:     0.2191962 α      in ANC's #39, #22, #20, ...

........................................................................
.............................. CYCLE   18 ..............................
........................................................................
   1   -325.8886325 -0.325889E+03  0.622E-02    1.19       0.0  T
   2   -325.8886375 -0.501221E-05  0.348E-02    1.19       1.0  T
   3   -325.8886268  0.107130E-04  0.879E-03    1.19       1.0  T
   4   -325.8886382 -0.114702E-04  0.385E-03    1.19       1.9  T
   5   -325.8886395 -0.128454E-05  0.140E-03    1.19       5.2  T
   6   -325.8886398 -0.291680E-06  0.479E-04    1.19      15.2  T
   7   -325.8886399 -0.310577E-07  0.229E-04    1.19      31.8  T
     SCC iter.                  ...        0 min,  0.249 sec
     gradient                   ...        0 min,  0.098 sec
 * total energy  :  -321.3540584 Eh     change       -0.5972704E-03 Eh
   gradient norm :     0.0112452 Eh/α   predicted    -0.4444797E-03 ( -25.58%)
   displ. norm   :     0.5614647 α      lambda       -0.1213451E-02
   maximum displ.:     0.1696744 α      in ANC's #22, #3, #39, ...

........................................................................
.............................. CYCLE   19 ..............................
........................................................................
   1   -325.9148736 -0.325915E+03  0.644E-02    1.19       0.0  T
   2   -325.9148872 -0.135722E-04  0.362E-02    1.19       1.0  T
   3   -325.9148422  0.450301E-04  0.173E-02    1.19       1.0  T
   4   -325.9148962 -0.540086E-04  0.488E-03    1.19       1.5  T
   5   -325.9148973 -0.111465E-05  0.256E-03    1.19       2.9  T
   6   -325.9148981 -0.789774E-06  0.731E-04    1.19      10.0  T
   7   -325.9148981 -0.445775E-07  0.425E-04    1.19      17.2  T
     SCC iter.                  ...        0 min,  0.252 sec
     gradient                   ...        0 min,  0.098 sec
 * total energy  :  -321.3545320 Eh     change       -0.4735773E-03 Eh
   gradient norm :     0.0144968 Eh/α   predicted    -0.7980103E-03 (  68.51%)
   displ. norm   :     0.6058869 α      lambda       -0.1123616E-02
   maximum displ.:     0.2653109 α      in ANC's #39, #26, #25, ...

........................................................................
.............................. CYCLE   20 ..............................
........................................................................
   1   -325.9040476 -0.325904E+03  0.782E-02    1.19       0.0  T
   2   -325.9040607 -0.131025E-04  0.439E-02    1.20       1.0  T
   3   -325.9040415  0.192514E-04  0.136E-02    1.20       1.0  T
   4   -325.9040654 -0.239348E-04  0.426E-03    1.20       1.7  T
   5   -325.9040656 -0.168175E-06  0.218E-03    1.20       3.4  T
   6   -325.9040664 -0.773565E-06  0.699E-04    1.20      10.4  T
   7   -325.9040664 -0.546499E-07  0.312E-04    1.20      23.4  T
     SCC iter.                  ...        0 min,  0.248 sec
     gradient                   ...        0 min,  0.098 sec
 * total energy  :  -321.3552407 Eh     change       -0.7086977E-03 Eh
   gradient norm :     0.0103818 Eh/α   predicted    -0.7680525E-03 (   8.38%)
   displ. norm   :     0.7221606 α      lambda       -0.7871051E-03
   maximum displ.:     0.3019565 α      in ANC's #39, #22, #20, ...
 * RMSD in coord.:     0.7256492 α      energy gain  -0.1241550E+00 Eh

generating ANC from model Hessian ...
Using Lindh-Hessian (1995)
 Shifting diagonal of input Hessian by   9.991658742881855E-003
 Lowest  eigenvalues of input Hessian
    0.000000    0.000000    0.000000    0.000000    0.000000    0.000000
    0.010000    0.010002    0.010012    0.010013    0.010024    0.010029
    0.010055    0.010061    0.010067    0.010087    0.010100    0.010108
 Highest eigenvalues
    2.094521    2.102301    2.110366    2.110975    2.115101    2.135617
 

........................................................................
.............................. CYCLE   21 ..............................
........................................................................
   1   -325.8862891 -0.325886E+03  0.809E-02    1.20       0.0  T
   2   -325.8863006 -0.115098E-04  0.449E-02    1.20       1.0  T
   3   -325.8862903  0.102831E-04  0.106E-02    1.20       1.0  T
   4   -325.8863024 -0.120927E-04  0.480E-03    1.20       1.5  T
   5   -325.8863039 -0.145606E-05  0.180E-03    1.20       4.1  T
   6   -325.8863044 -0.504191E-06  0.729E-04    1.20      10.0  T
   7   -325.8863045 -0.856086E-07  0.294E-04    1.20      24.8  T
     SCC iter.                  ...        0 min,  0.248 sec
     gradient                   ...        0 min,  0.098 sec
 * total energy  :  -321.3557189 Eh     change       -0.4782828E-03 Eh
   gradient norm :     0.0120443 Eh/α   predicted     0.0000000E+00 (-100.00%)
   displ. norm   :     0.1164852 α      lambda       -0.4725261E-03
   maximum displ.:     0.0349002 α      in ANC's #28, #44, #48, ...

........................................................................
.............................. CYCLE   22 ..............................
........................................................................
   1   -325.8986690 -0.325899E+03  0.196E-02    1.20       0.0  T
   2   -325.8986707 -0.175156E-05  0.110E-02    1.20       1.0  T
   3   -325.8986690  0.168291E-05  0.421E-03    1.20       1.7  T
   4   -325.8986711 -0.203283E-05  0.155E-03    1.20       4.7  T
   5   -325.8986712 -0.135973E-06  0.791E-04    1.20       9.2  T
   6   -325.8986713 -0.644442E-07  0.328E-04    1.20      22.2  T
     SCC iter.                  ...        0 min,  0.213 sec
     gradient                   ...        0 min,  0.098 sec
 * total energy  :  -321.3560600 Eh     change       -0.3410935E-03 Eh
   gradient norm :     0.0046523 Eh/α   predicted    -0.2394699E-03 ( -29.79%)
   displ. norm   :     0.2316712 α      lambda       -0.3687210E-03
   maximum displ.:     0.0769617 α      in ANC's #28, #44, #48, ...

........................................................................
.............................. CYCLE   23 ..............................
........................................................................
   1   -325.9078397 -0.325908E+03  0.279E-02    1.19       0.0  T
   2   -325.9078421 -0.235735E-05  0.150E-02    1.20       1.0  T
   3   -325.9078393  0.279253E-05  0.523E-03    1.20       1.4  T
   4   -325.9078426 -0.332379E-05  0.218E-03    1.20       3.4  T
   5   -325.9078428 -0.203347E-06  0.108E-03    1.20       6.8  T
   6   -325.9078430 -0.186201E-06  0.307E-04    1.20      23.8  T
   7   -325.9078430 -0.141140E-07  0.131E-04    1.20      55.6  T
     SCC iter.                  ...        0 min,  0.246 sec
     gradient                   ...        0 min,  0.098 sec
 * total energy  :  -321.3563445 Eh     change       -0.2844837E-03 Eh
   gradient norm :     0.0040707 Eh/α   predicted    -0.1942619E-03 ( -31.71%)
   displ. norm   :     0.4494092 α      lambda       -0.4952492E-03
   maximum displ.:     0.1567827 α      in ANC's #28, #44, #48, ...

........................................................................
.............................. CYCLE   24 ..............................
........................................................................
   1   -325.9127407 -0.325913E+03  0.507E-02    1.20       0.0  T
   2   -325.9127466 -0.591131E-05  0.267E-02    1.20       1.0  T
   3   -325.9127426  0.403745E-05  0.737E-03    1.20       1.0  T
   4   -325.9127474 -0.480149E-05  0.374E-03    1.20       2.0  T
   5   -325.9127481 -0.710547E-06  0.157E-03    1.20       4.7  T
   6   -325.9127485 -0.443023E-06  0.424E-04    1.20      17.2  T
   7   -325.9127486 -0.293898E-07  0.174E-04    1.20      41.9  T
     SCC iter.                  ...        0 min,  0.249 sec
     gradient                   ...        0 min,  0.098 sec
 * total energy  :  -321.3567794 Eh     change       -0.4349188E-03 Eh
   gradient norm :     0.0086644 Eh/α   predicted    -0.2978315E-03 ( -31.52%)
   displ. norm   :     0.7513554 α      lambda       -0.7903742E-03
   maximum displ.:     0.2680219 α      in ANC's #28, #44, #48, ...

........................................................................
.............................. CYCLE   25 ..............................
........................................................................
   1   -325.9086259 -0.325909E+03  0.829E-02    1.20       0.0  T
   2   -325.9086413 -0.154110E-04  0.431E-02    1.20       1.0  T
   3   -325.9086388  0.248860E-05  0.979E-03    1.20       1.0  T
   4   -325.9086421 -0.334929E-05  0.573E-03    1.20       1.3  T
   5   -325.9086444 -0.223519E-05  0.202E-03    1.20       3.6  T
   6   -325.9086451 -0.711937E-06  0.672E-04    1.20      10.9  T
   7   -325.9086452 -0.797612E-07  0.253E-04    1.20      28.8  T
     SCC iter.                  ...        0 min,  0.249 sec
     gradient                   ...        0 min,  0.098 sec
 * total energy  :  -321.3574669 Eh     change       -0.6874686E-03 Eh
   gradient norm :     0.0112290 Eh/α   predicted    -0.6182840E-03 ( -10.06%)
   displ. norm   :     0.7167853 α      lambda       -0.7241511E-03
   maximum displ.:     0.2616287 α      in ANC's #28, #15, #39, ...

........................................................................
.............................. CYCLE   26 ..............................
........................................................................
   1   -325.8981527 -0.325898E+03  0.784E-02    1.21       0.0  T
   2   -325.8981665 -0.138687E-04  0.402E-02    1.21       1.0  T
   3   -325.8981670 -0.496835E-06  0.831E-03    1.21       1.0  T
   4   -325.8981675 -0.480916E-06  0.482E-03    1.21       1.5  T
   5   -325.8981694 -0.185938E-05  0.144E-03    1.21       5.1  T
   6   -325.8981697 -0.333388E-06  0.544E-04    1.21      13.4  T
   7   -325.8981697 -0.458866E-07  0.225E-04    1.21      32.5  T
     SCC iter.                  ...        0 min,  0.246 sec
     gradient                   ...        0 min,  0.098 sec
 * total energy  :  -321.3580114 Eh     change       -0.5444862E-03 Eh
   gradient norm :     0.0130790 Eh/α   predicted    -0.5481037E-03 (   0.66%)
   displ. norm   :     0.4585661 α      lambda       -0.6482405E-03
   maximum displ.:     0.1683099 α      in ANC's #28, #15, #25, ...

........................................................................
.............................. CYCLE   27 ..............................
........................................................................
   1   -325.8925536 -0.325893E+03  0.530E-02    1.21       0.0  T
   2   -325.8925610 -0.735168E-05  0.271E-02    1.22       1.0  T
   3   -325.8925546  0.639109E-05  0.826E-03    1.22       1.0  T
   4   -325.8925622 -0.762003E-05  0.410E-03    1.22       1.8  T
   5   -325.8925630 -0.861015E-06  0.164E-03    1.22       4.5  T
   6   -325.8925635 -0.482707E-06  0.471E-04    1.22      15.5  T
   7   -325.8925636 -0.347811E-07  0.209E-04    1.22      34.9  T
     SCC iter.                  ...        0 min,  0.246 sec
     gradient                   ...        0 min,  0.098 sec
 * total energy  :  -321.3585191 Eh     change       -0.5077038E-03 Eh
   gradient norm :     0.0110493 Eh/α   predicted    -0.3923640E-03 ( -22.72%)
   displ. norm   :     0.5046917 α      lambda       -0.7341689E-03
   maximum displ.:     0.1814967 α      in ANC's #28, #15, #4, ...

........................................................................
.............................. CYCLE   28 ..............................
........................................................................
   1   -325.8947057 -0.325895E+03  0.587E-02    1.22       0.0  T
   2   -325.8947152 -0.952996E-05  0.303E-02    1.23       1.0  T
   3   -325.8946992  0.160345E-04  0.113E-02    1.23       1.0  T
   4   -325.8947179 -0.186705E-04  0.470E-03    1.23       1.6  T
   5   -325.8947190 -0.115958E-05  0.201E-03    1.23       3.6  T
   6   -325.8947197 -0.640181E-06  0.596E-04    1.23      12.2  T
   7   -325.8947197 -0.605903E-07  0.247E-04    1.23      29.5  T
     SCC iter.                  ...        0 min,  0.248 sec
     gradient                   ...        0 min,  0.098 sec
 * total energy  :  -321.3591097 Eh     change       -0.5906203E-03 Eh
   gradient norm :     0.0101047 Eh/α   predicted    -0.4606089E-03 ( -22.01%)
   displ. norm   :     0.6774343 α      lambda       -0.7725436E-03
   maximum displ.:     0.2538618 α      in ANC's #28, #15, #4, ...

........................................................................
.............................. CYCLE   29 ..............................
........................................................................
   1   -325.8978415 -0.325898E+03  0.749E-02    1.23       0.0  T
   2   -325.8978550 -0.135597E-04  0.381E-02    1.24       1.0  T
   3   -325.8978408  0.142595E-04  0.117E-02    1.24       1.0  T
   4   -325.8978569 -0.161747E-04  0.587E-03    1.24       1.2  T
   5   -325.8978593 -0.235754E-05  0.216E-03    1.24       3.4  T
   6   -325.8978601 -0.799911E-06  0.623E-04    1.24      11.7  T
   7   -325.8978601 -0.601931E-07  0.267E-04    1.24      27.3  T
     SCC iter.                  ...        0 min,  0.270 sec
     gradient                   ...        0 min,  0.098 sec
 * total energy  :  -321.3597876 Eh     change       -0.6778615E-03 Eh
   gradient norm :     0.0117508 Eh/α   predicted    -0.5635626E-03 ( -16.86%)
   displ. norm   :     0.6613811 α      lambda       -0.9613929E-03
   maximum displ.:     0.2273506 α      in ANC's #28, #15, #4, ...

........................................................................
.............................. CYCLE   30 ..............................
........................................................................
   1   -325.9133336 -0.325913E+03  0.753E-02    1.23       0.0  T
   2   -325.9133489 -0.153128E-04  0.382E-02    1.24       1.0  T
   3   -325.9133361  0.127554E-04  0.115E-02    1.24       1.0  T
   4   -325.9133506 -0.144135E-04  0.590E-03    1.25       1.2  T
   5   -325.9133532 -0.260473E-05  0.233E-03    1.25       3.1  T
   6   -325.9133539 -0.785868E-06  0.781E-04    1.25       9.3  T
   7   -325.9133540 -0.100014E-06  0.318E-04    1.25      23.0  T
     SCC iter.                  ...        0 min,  0.258 sec
     gradient                   ...        0 min,  0.098 sec
 * total energy  :  -321.3604800 Eh     change       -0.6924328E-03 Eh
   gradient norm :     0.0111815 Eh/α   predicted    -0.6909652E-03 (  -0.21%)
   displ. norm   :     0.8305368 α      lambda       -0.9666229E-03
   maximum displ.:     0.3119111 α      in ANC's #28, #15, #4, ...

........................................................................
.............................. CYCLE   31 ..............................
........................................................................
   1   -325.9066559 -0.325907E+03  0.928E-02    1.25       0.0  T
   2   -325.9066784 -0.224860E-04  0.465E-02    1.26       1.0  T
   3   -325.9066762  0.223008E-05  0.107E-02    1.26       1.0  T
   4   -325.9066798 -0.362180E-05  0.643E-03    1.26       1.1  T
   5   -325.9066831 -0.333212E-05  0.196E-03    1.26       3.7  T
   6   -325.9066837 -0.569240E-06  0.829E-04    1.26       8.8  T
   7   -325.9066838 -0.121349E-06  0.305E-04    1.26      23.9  T
     SCC iter.                  ...        0 min,  0.257 sec
     gradient                   ...        0 min,  0.098 sec
 * total energy  :  -321.3612372 Eh     change       -0.7571824E-03 Eh
   gradient norm :     0.0120502 Eh/α   predicted    -0.8167204E-03 (   7.86%)
   displ. norm   :     0.6741192 α      lambda       -0.7460846E-03
   maximum displ.:     0.2304953 α      in ANC's #28, #15, #4, ...

........................................................................
.............................. CYCLE   32 ..............................
........................................................................
   1   -325.9039678 -0.325904E+03  0.753E-02    1.26       0.0  T
   2   -325.9039824 -0.146280E-04  0.373E-02    1.27       1.0  T
   3   -325.9039800  0.241696E-05  0.882E-03    1.27       1.0  T
   4   -325.9039840 -0.400125E-05  0.517E-03    1.28       1.4  T
   5   -325.9039859 -0.188766E-05  0.136E-03    1.28       5.3  T
   6   -325.9039862 -0.292422E-06  0.587E-04    1.28      12.4  T
   7   -325.9039863 -0.623872E-07  0.224E-04    1.28      32.5  T
     SCC iter.                  ...        0 min,  0.254 sec
     gradient                   ...        0 min,  0.098 sec
 * total energy  :  -321.3618736 Eh     change       -0.6363955E-03 Eh
   gradient norm :     0.0111236 Eh/α   predicted    -0.5425696E-03 ( -14.74%)
   displ. norm   :     0.5996768 α      lambda       -0.1002507E-02
   maximum displ.:     0.2162825 α      in ANC's #15, #4, #20, ...

........................................................................
.............................. CYCLE   33 ..............................
........................................................................
   1   -325.9086132 -0.325909E+03  0.698E-02    1.27       0.0  T
   2   -325.9086295 -0.162700E-04  0.354E-02    1.28       1.0  T
   3   -325.9086108  0.186566E-04  0.126E-02    1.28       1.0  T
   4   -325.9086327 -0.218824E-04  0.581E-03    1.28       1.3  T
   5   -325.9086349 -0.217307E-05  0.249E-03    1.28       2.9  T
   6   -325.9086358 -0.890071E-06  0.809E-04    1.28       9.0  T
   7   -325.9086359 -0.107021E-06  0.323E-04    1.28      22.6  T
     SCC iter.                  ...        0 min,  0.256 sec
     gradient                   ...        0 min,  0.098 sec
 * total energy  :  -321.3625142 Eh     change       -0.6406190E-03 Eh
   gradient norm :     0.0094151 Eh/α   predicted    -0.6815113E-03 (   6.38%)
   displ. norm   :     0.7721253 α      lambda       -0.7362484E-03
   maximum displ.:     0.2767354 α      in ANC's #15, #28, #4, ...

........................................................................
.............................. CYCLE   34 ..............................
........................................................................
   1   -325.9012733 -0.325901E+03  0.874E-02    1.29       0.0  T
   2   -325.9012934 -0.201121E-04  0.429E-02    1.29       1.0  T
   3   -325.9012887  0.465216E-05  0.107E-02    1.29       1.0  T
   4   -325.9012964 -0.765338E-05  0.592E-03    1.29       1.2  T
   5   -325.9012983 -0.194214E-05  0.176E-03    1.29       4.2  T
   6   -325.9012988 -0.459864E-06  0.678E-04    1.29      10.8  T
   7   -325.9012989 -0.770107E-07  0.259E-04    1.29      28.2  T
     SCC iter.                  ...        0 min,  0.252 sec
     gradient                   ...        0 min,  0.098 sec
 * total energy  :  -321.3631165 Eh     change       -0.6022891E-03 Eh
   gradient norm :     0.0093297 Eh/α   predicted    -0.5875917E-03 (  -2.44%)
   displ. norm   :     0.6798984 α      lambda       -0.6935249E-03
   maximum displ.:     0.2612052 α      in ANC's #15, #4, #20, ...

........................................................................
.............................. CYCLE   35 ..............................
........................................................................
   1   -325.9008384 -0.325901E+03  0.711E-02    1.29       0.0  T
   2   -325.9008525 -0.140850E-04  0.352E-02    1.29       1.0  T
   3   -325.9008451  0.739457E-05  0.998E-03    1.29       1.0  T
   4   -325.9008551 -0.100497E-04  0.513E-03    1.29       1.4  T
   5   -325.9008565 -0.137966E-05  0.162E-03    1.29       4.5  T
   6   -325.9008569 -0.356061E-06  0.588E-04    1.29      12.4  T
   7   -325.9008569 -0.528256E-07  0.214E-04    1.29      34.1  T
     SCC iter.                  ...        0 min,  0.252 sec
     gradient                   ...        0 min,  0.098 sec
 * total energy  :  -321.3636741 Eh     change       -0.5575490E-03 Eh
   gradient norm :     0.0086468 Eh/α   predicted    -0.5070598E-03 (  -9.06%)
   displ. norm   :     0.6746473 α      lambda       -0.8046848E-03
   maximum displ.:     0.2663946 α      in ANC's #15, #4, #20, ...

........................................................................
.............................. CYCLE   36 ..............................
........................................................................
   1   -325.9035118 -0.325904E+03  0.723E-02    1.29       0.0  T
   2   -325.9035273 -0.154881E-04  0.357E-02    1.30       1.0  T
   3   -325.9035171  0.102142E-04  0.108E-02    1.30       1.0  T
   4   -325.9035305 -0.134490E-04  0.530E-03    1.30       1.4  T
   5   -325.9035320 -0.144387E-05  0.187E-03    1.30       3.9  T
   6   -325.9035324 -0.424350E-06  0.660E-04    1.30      11.1  T
   7   -325.9035325 -0.655647E-07  0.246E-04    1.30      29.6  T
     SCC iter.                  ...        0 min,  0.252 sec
     gradient                   ...        0 min,  0.098 sec
 * total energy  :  -321.3642775 Eh     change       -0.6034331E-03 Eh
   gradient norm :     0.0099797 Eh/α   predicted    -0.5854686E-03 (  -2.98%)
   displ. norm   :     0.6698946 α      lambda       -0.7311322E-03
   maximum displ.:     0.2746983 α      in ANC's #15, #4, #20, ...

........................................................................
.............................. CYCLE   37 ..............................
........................................................................
   1   -325.9093186 -0.325909E+03  0.673E-02    1.30       0.0  T
   2   -325.9093319 -0.132743E-04  0.331E-02    1.30       1.0  T
   3   -325.9093275  0.440960E-05  0.868E-03    1.30       1.0  T
   4   -325.9093336 -0.612130E-05  0.481E-03    1.30       1.5  T
   5   -325.9093352 -0.157147E-05  0.142E-03    1.30       5.1  T
   6   -325.9093354 -0.204641E-06  0.598E-04    1.30      12.2  T
   7   -325.9093355 -0.567359E-07  0.186E-04    1.30      39.2  T
     SCC iter.                  ...        0 min,  0.251 sec
     gradient                   ...        0 min,  0.097 sec
 * total energy  :  -321.3648665 Eh     change       -0.5890122E-03 Eh
   gradient norm :     0.0093424 Eh/α   predicted    -0.5296178E-03 ( -10.08%)
   displ. norm   :     0.8043892 α      lambda       -0.7755156E-03
   maximum displ.:     0.3290326 α      in ANC's #15, #4, #20, ...

........................................................................
.............................. CYCLE   38 ..............................
........................................................................
   1   -325.9064268 -0.325906E+03  0.829E-02    1.30       0.0  T
   2   -325.9064462 -0.193659E-04  0.400E-02    1.30       1.0  T
   3   -325.9064439  0.232709E-05  0.948E-03    1.30       1.0  T
   4   -325.9064488 -0.490515E-05  0.543E-03    1.31       1.3  T
   5   -325.9064506 -0.184956E-05  0.138E-03    1.31       5.3  T
   6   -325.9064508 -0.190464E-06  0.620E-04    1.31      11.8  T
   7   -325.9064509 -0.679449E-07  0.202E-04    1.31      36.2  T
     SCC iter.                  ...        0 min,  0.250 sec
     gradient                   ...        0 min,  0.097 sec
 * total energy  :  -321.3655397 Eh     change       -0.6731727E-03 Eh
   gradient norm :     0.0081066 Eh/α   predicted    -0.6386542E-03 (  -5.13%)
   displ. norm   :     0.7175189 α      lambda       -0.9175598E-03
   maximum displ.:     0.2913644 α      in ANC's #15, #4, #20, ...

........................................................................
.............................. CYCLE   39 ..............................
........................................................................
   1   -325.9179414 -0.325918E+03  0.735E-02    1.30       0.0  T
   2   -325.9179567 -0.153552E-04  0.374E-02    1.30       1.0  T
   3   -325.9179529  0.380076E-05  0.949E-03    1.30       1.0  T
   4   -325.9179587 -0.580459E-05  0.520E-03    1.31       1.4  T
   5   -325.9179601 -0.131330E-05  0.195E-03    1.31       3.7  T
   6   -325.9179606 -0.505090E-06  0.748E-04    1.31       9.7  T
   7   -325.9179606 -0.889567E-07  0.314E-04    1.31      23.2  T
     SCC iter.                  ...        0 min,  0.246 sec
     gradient                   ...        0 min,  0.097 sec
 * total energy  :  -321.3660188 Eh     change       -0.4791475E-03 Eh
   gradient norm :     0.0138755 Eh/α   predicted    -0.6949747E-03 (  45.04%)
   displ. norm   :     0.6903347 α      lambda       -0.1058711E-02
   maximum displ.:     0.2876725 α      in ANC's #15, #20, #4, ...

........................................................................
.............................. CYCLE   40 ..............................
........................................................................
   1   -325.9082593 -0.325908E+03  0.751E-02    1.31       0.0  T
   2   -325.9082761 -0.167740E-04  0.365E-02    1.31       1.0  T
   3   -325.9082731  0.297238E-05  0.926E-03    1.31       1.0  T
   4   -325.9082780 -0.488561E-05  0.533E-03    1.31       1.4  T
   5   -325.9082795 -0.148307E-05  0.201E-03    1.31       3.6  T
   6   -325.9082800 -0.520053E-06  0.834E-04    1.31       8.7  T
   7   -325.9082802 -0.126577E-06  0.297E-04    1.31      24.6  T
     SCC iter.                  ...        0 min,  0.247 sec
     gradient                   ...        0 min,  0.097 sec
 * total energy  :  -321.3666535 Eh     change       -0.6347214E-03 Eh
   gradient norm :     0.0121302 Eh/α   predicted    -0.7816266E-03 (  23.14%)
   displ. norm   :     0.6810820 α      lambda       -0.7681666E-03
   maximum displ.:     0.2820319 α      in ANC's #15, #4, #20, ...

........................................................................
.............................. CYCLE   41 ..............................
........................................................................
   1   -325.9045070 -0.325905E+03  0.716E-02    1.31       0.0  T
   2   -325.9045228 -0.158363E-04  0.346E-02    1.31       1.0  T
   3   -325.9045165  0.629378E-05  0.958E-03    1.31       1.0  T
   4   -325.9045252 -0.871714E-05  0.517E-03    1.32       1.4  T
   5   -325.9045269 -0.167258E-05  0.170E-03    1.31       4.3  T
   6   -325.9045272 -0.267708E-06  0.643E-04    1.31      11.3  T
   7   -325.9045273 -0.612364E-07  0.222E-04    1.31      32.9  T
     SCC iter.                  ...        0 min,  0.243 sec
     gradient                   ...        0 min,  0.098 sec
 * total energy  :  -321.3671295 Eh     change       -0.4759697E-03 Eh
   gradient norm :     0.0127157 Eh/α   predicted    -0.5622481E-03 (  18.13%)
   displ. norm   :     0.4981362 α      lambda       -0.7763739E-03
   maximum displ.:     0.2045368 α      in ANC's #15, #4, #20, ...

........................................................................
.............................. CYCLE   42 ..............................
........................................................................
   1   -325.9140240 -0.325914E+03  0.488E-02    1.32       0.0  T
   2   -325.9140312 -0.713488E-05  0.249E-02    1.32       1.0  T
   3   -325.9140259  0.524623E-05  0.762E-03    1.32       1.0  T
   4   -325.9140326 -0.665602E-05  0.378E-03    1.32       1.9  T
   5   -325.9140333 -0.757113E-06  0.134E-03    1.32       5.5  T
   6   -325.9140335 -0.201058E-06  0.464E-04    1.32      15.7  T
   7   -325.9140336 -0.286592E-07  0.198E-04    1.32      36.9  T
     SCC iter.                  ...        0 min,  0.241 sec
     gradient                   ...        0 min,  0.097 sec
 * total energy  :  -321.3676301 Eh     change       -0.5005841E-03 Eh
   gradient norm :     0.0106708 Eh/α   predicted    -0.4845120E-03 (  -3.21%)
   displ. norm   :     0.6676214 α      lambda       -0.8502109E-03
   maximum displ.:     0.2831868 α      in ANC's #15, #4, #20, ...
 * RMSD in coord.:     0.8980834 α      energy gain  -0.1238943E-01 Eh

generating ANC from model Hessian ...
Using Lindh-Hessian (1995)
 Shifting diagonal of input Hessian by   1.000548913494320E-002
 Lowest  eigenvalues of input Hessian
    0.010000    0.000000    0.000000    0.000000    0.000000    0.000000
    0.000000    0.010014    0.010019    0.010026    0.010036    0.010044
    0.010061    0.010071    0.010074    0.010111    0.010118    0.010124
 Highest eigenvalues
    2.099252    2.100951    2.113613    2.114299    2.118279    2.137121
 

........................................................................
.............................. CYCLE   43 ..............................
........................................................................
   1   -325.9163142 -0.325916E+03  0.682E-02    1.32       0.0  T
   2   -325.9163269 -0.126594E-04  0.333E-02    1.32       1.0  T
   3   -325.9163241  0.273757E-05  0.827E-03    1.32       1.0  T
   4   -325.9163284 -0.425826E-05  0.459E-03    1.32       1.6  T
   5   -325.9163295 -0.108958E-05  0.186E-03    1.32       3.9  T
   6   -325.9163300 -0.525392E-06  0.577E-04    1.32      12.6  T
   7   -325.9163301 -0.567554E-07  0.226E-04    1.32      32.3  T
     SCC iter.                  ...        0 min,  0.241 sec
     gradient                   ...        0 min,  0.098 sec
 * total energy  :  -321.3682197 Eh     change       -0.5895587E-03 Eh
   gradient norm :     0.0074540 Eh/α   predicted     0.0000000E+00 (-100.00%)
   displ. norm   :     0.1056966 α      lambda       -0.2382227E-03
   maximum displ.:     0.0319579 α      in ANC's #20, #14, #31, ...

........................................................................
.............................. CYCLE   44 ..............................
........................................................................
   1   -325.9166532 -0.325917E+03  0.154E-02    1.32       0.0  T
   2   -325.9166539 -0.693417E-06  0.832E-03    1.32       1.0  T
   3   -325.9166533  0.508424E-06  0.241E-03    1.32       3.0  T
   4   -325.9166539 -0.586351E-06  0.117E-03    1.32       6.3  T
   5   -325.9166540 -0.909463E-07  0.524E-04    1.32      13.9  T
   6   -325.9166541 -0.340274E-07  0.172E-04    1.32      42.4  T
     SCC iter.                  ...        0 min,  0.209 sec
     gradient                   ...        0 min,  0.098 sec
 * total energy  :  -321.3684117 Eh     change       -0.1920694E-03 Eh
   gradient norm :     0.0030164 Eh/α   predicted    -0.1204500E-03 ( -37.29%)
   displ. norm   :     0.3126341 α      lambda       -0.4131474E-03
   maximum displ.:     0.1013054 α      in ANC's #20, #14, #31, ...

........................................................................
.............................. CYCLE   45 ..............................
........................................................................
   1   -325.9159564 -0.325916E+03  0.400E-02    1.32       0.0  T
   2   -325.9159600 -0.363585E-05  0.207E-02    1.32       1.0  T
   3   -325.9159573  0.272320E-05  0.567E-03    1.32       1.3  T
   4   -325.9159603 -0.304486E-05  0.305E-03    1.32       2.4  T
   5   -325.9159610 -0.656144E-06  0.113E-03    1.32       6.5  T
   6   -325.9159612 -0.203100E-06  0.350E-04    1.32      20.8  T
   7   -325.9159612 -0.182403E-07  0.153E-04    1.32      47.6  T
     SCC iter.                  ...        0 min,  0.242 sec
     gradient                   ...        0 min,  0.098 sec
 * total energy  :  -321.3687112 Eh     change       -0.2994622E-03 Eh
   gradient norm :     0.0058652 Eh/α   predicted    -0.2267679E-03 ( -24.27%)
   displ. norm   :     0.3895470 α      lambda       -0.3396073E-03
   maximum displ.:     0.1304943 α      in ANC's #20, #14, #3, ...

........................................................................
.............................. CYCLE   46 ..............................
........................................................................
   1   -325.9139738 -0.325914E+03  0.475E-02    1.32       0.0  T
   2   -325.9139785 -0.474700E-05  0.241E-02    1.32       1.0  T
   3   -325.9139766  0.190636E-05  0.585E-03    1.32       1.2  T
   4   -325.9139786 -0.192957E-05  0.353E-03    1.32       2.1  T
   5   -325.9139797 -0.110439E-05  0.113E-03    1.32       6.5  T
   6   -325.9139799 -0.223848E-06  0.342E-04    1.32      21.3  T
   7   -325.9139799 -0.164630E-07  0.141E-04    1.32      51.7  T
     SCC iter.                  ...        0 min,  0.242 sec
     gradient                   ...        0 min,  0.098 sec
 * total energy  :  -321.3689934 Eh     change       -0.2821695E-03 Eh
   gradient norm :     0.0093134 Eh/α   predicted    -0.1955765E-03 ( -30.69%)
   displ. norm   :     0.5800226 α      lambda       -0.5022399E-03
   maximum displ.:     0.1981342 α      in ANC's #20, #14, #3, ...

........................................................................
.............................. CYCLE   47 ..............................
........................................................................
   1   -325.9105600 -0.325911E+03  0.689E-02    1.32       0.0  T
   2   -325.9105699 -0.998078E-05  0.345E-02    1.33       1.0  T
   3   -325.9105674  0.249781E-05  0.801E-03    1.33       1.0  T
   4   -325.9105699 -0.246401E-05  0.495E-03    1.33       1.5  T
   5   -325.9105721 -0.222787E-05  0.159E-03    1.33       4.6  T
   6   -325.9105726 -0.463456E-06  0.482E-04    1.33      15.1  T
   7   -325.9105726 -0.350470E-07  0.186E-04    1.33      39.3  T
     SCC iter.                  ...        0 min,  0.242 sec
     gradient                   ...        0 min,  0.098 sec
 * total energy  :  -321.3694175 Eh     change       -0.4241662E-03 Eh
   gradient norm :     0.0096185 Eh/α   predicted    -0.3356044E-03 ( -20.88%)
   displ. norm   :     0.6207125 α      lambda       -0.5760614E-03
   maximum displ.:     0.2197648 α      in ANC's #20, #14, #3, ...

........................................................................
.............................. CYCLE   48 ..............................
........................................................................
   1   -325.9086979 -0.325909E+03  0.716E-02    1.33       0.0  T
   2   -325.9087092 -0.113354E-04  0.356E-02    1.33       1.0  T
   3   -325.9087061  0.308641E-05  0.853E-03    1.33       1.0  T
   4   -325.9087101 -0.392761E-05  0.498E-03    1.33       1.5  T
   5   -325.9087119 -0.183666E-05  0.154E-03    1.33       4.7  T
   6   -325.9087123 -0.391540E-06  0.557E-04    1.33      13.1  T
   7   -325.9087123 -0.536612E-07  0.208E-04    1.33      35.1  T
     SCC iter.                  ...        0 min,  0.244 sec
     gradient                   ...        0 min,  0.098 sec
 * total energy  :  -321.3698878 Eh     change       -0.4702865E-03 Eh
   gradient norm :     0.0069018 Eh/α   predicted    -0.3990070E-03 ( -15.16%)
   displ. norm   :     0.5752325 α      lambda       -0.5255713E-03
   maximum displ.:     0.2116054 α      in ANC's #20, #14, #3, ...

........................................................................
.............................. CYCLE   49 ..............................
........................................................................
   1   -325.9105719 -0.325911E+03  0.640E-02    1.33       0.0  T
   2   -325.9105816 -0.975095E-05  0.317E-02    1.34       1.0  T
   3   -325.9105770  0.462248E-05  0.839E-03    1.34       1.0  T
   4   -325.9105831 -0.605248E-05  0.458E-03    1.34       1.6  T
   5   -325.9105844 -0.131586E-05  0.130E-03    1.34       5.6  T
   6   -325.9105846 -0.208865E-06  0.485E-04    1.34      15.0  T
   7   -325.9105846 -0.355135E-07  0.188E-04    1.34      38.8  T
     SCC iter.                  ...        0 min,  0.260 sec
     gradient                   ...        0 min,  0.098 sec
 * total energy  :  -321.3703087 Eh     change       -0.4209022E-03 Eh
   gradient norm :     0.0066079 Eh/α   predicted    -0.3497621E-03 ( -16.90%)
   displ. norm   :     0.6243004 α      lambda       -0.4850349E-03
   maximum displ.:     0.2314024 α      in ANC's #20, #14, #3, ...

........................................................................
.............................. CYCLE   50 ..............................
........................................................................
   1   -325.9112427 -0.325911E+03  0.682E-02    1.34       0.0  T
   2   -325.9112536 -0.108765E-04  0.336E-02    1.34       1.0  T
   3   -325.9112492  0.443077E-05  0.868E-03    1.34       1.0  T
   4   -325.9112548 -0.565675E-05  0.492E-03    1.35       1.5  T
   5   -325.9112566 -0.173266E-05  0.124E-03    1.34       5.9  T
   6   -325.9112567 -0.178165E-06  0.502E-04    1.34      14.5  T
   7   -325.9112568 -0.399902E-07  0.175E-04    1.34      41.7  T
     SCC iter.                  ...        0 min,  0.265 sec
     gradient                   ...        0 min,  0.098 sec
 * total energy  :  -321.3707321 Eh     change       -0.4233670E-03 Eh
   gradient norm :     0.0083127 Eh/α   predicted    -0.3370391E-03 ( -20.39%)
   displ. norm   :     0.6343079 α      lambda       -0.6492109E-03
   maximum displ.:     0.2347926 α      in ANC's #20, #3, #14, ...

........................................................................
.............................. CYCLE   51 ..............................
........................................................................
   1   -325.9196825 -0.325920E+03  0.679E-02    1.34       0.0  T
   2   -325.9196946 -0.120829E-04  0.337E-02    1.35       1.0  T
   3   -325.9196869  0.773537E-05  0.966E-03    1.35       1.0  T
   4   -325.9196964 -0.954328E-05  0.514E-03    1.35       1.4  T
   5   -325.9196981 -0.169242E-05  0.158E-03    1.35       4.6  T
   6   -325.9196984 -0.289712E-06  0.636E-04    1.35      11.5  T
   7   -325.9196985 -0.714356E-07  0.236E-04    1.35      30.9  T
     SCC iter.                  ...        0 min,  0.261 sec
     gradient                   ...        0 min,  0.098 sec
 * total energy  :  -321.3712256 Eh     change       -0.4934982E-03 Eh
   gradient norm :     0.0090282 Eh/α   predicted    -0.4552135E-03 (  -7.76%)
   displ. norm   :     0.7938435 α      lambda       -0.6662454E-03
   maximum displ.:     0.2919171 α      in ANC's #20, #14, #3, ...

........................................................................
.............................. CYCLE   52 ..............................
........................................................................
   1   -325.9130580 -0.325913E+03  0.889E-02    1.35       0.0  T
   2   -325.9130781 -0.201014E-04  0.436E-02    1.36       1.0  T
   3   -325.9130755  0.257594E-05  0.103E-02    1.36       1.0  T
   4   -325.9130790 -0.344970E-05  0.621E-03    1.36       1.2  T
   5   -325.9130823 -0.333404E-05  0.162E-03    1.36       4.5  T
   6   -325.9130826 -0.284044E-06  0.675E-04    1.36      10.8  T
   7   -325.9130826 -0.736213E-07  0.232E-04    1.36      31.5  T
     SCC iter.                  ...        0 min,  0.258 sec
     gradient                   ...        0 min,  0.098 sec
 * total energy  :  -321.3717243 Eh     change       -0.4986986E-03 Eh
   gradient norm :     0.0089746 Eh/α   predicted    -0.5430591E-03 (   8.90%)
   displ. norm   :     0.5603394 α      lambda       -0.5141008E-03
   maximum displ.:     0.2016271 α      in ANC's #20, #3, #14, ...

........................................................................
.............................. CYCLE   53 ..............................
........................................................................
   1   -325.9150788 -0.325915E+03  0.609E-02    1.36       0.0  T
   2   -325.9150878 -0.904407E-05  0.298E-02    1.36       1.0  T
   3   -325.9150866  0.121310E-05  0.692E-03    1.36       1.1  T
   4   -325.9150884 -0.176296E-05  0.415E-03    1.36       1.8  T
   5   -325.9150898 -0.141782E-05  0.110E-03    1.36       6.6  T
   6   -325.9150900 -0.157210E-06  0.456E-04    1.36      16.0  T
   7   -325.9150900 -0.326114E-07  0.167E-04    1.36      43.6  T
     SCC iter.                  ...        0 min,  0.254 sec
     gradient                   ...        0 min,  0.098 sec
 * total energy  :  -321.3721431 Eh     change       -0.4187991E-03 Eh
   gradient norm :     0.0076525 Eh/α   predicted    -0.3377997E-03 ( -19.34%)
   displ. norm   :     0.5796935 α      lambda       -0.5238279E-03
   maximum displ.:     0.2105683 α      in ANC's #3, #20, #14, ...

........................................................................
.............................. CYCLE   54 ..............................
........................................................................
   1   -325.9200729 -0.325920E+03  0.626E-02    1.36       0.0  T
   2   -325.9200828 -0.989568E-05  0.303E-02    1.37       1.0  T
   3   -325.9200803  0.248335E-05  0.734E-03    1.37       1.0  T
   4   -325.9200835 -0.320294E-05  0.438E-03    1.37       1.7  T
   5   -325.9200850 -0.150422E-05  0.134E-03    1.37       5.4  T
   6   -325.9200852 -0.260586E-06  0.521E-04    1.37      14.0  T
   7   -325.9200853 -0.458538E-07  0.184E-04    1.37      39.6  T
     SCC iter.                  ...        0 min,  0.251 sec
     gradient                   ...        0 min,  0.098 sec
 * total energy  :  -321.3725659 Eh     change       -0.4228057E-03 Eh
   gradient norm :     0.0056913 Eh/α   predicted    -0.3499294E-03 ( -17.24%)
   displ. norm   :     0.7669916 α      lambda       -0.5083421E-03
   maximum displ.:     0.2837054 α      in ANC's #20, #3, #14, ...

........................................................................
.............................. CYCLE   55 ..............................
........................................................................
   1   -325.9181398 -0.325918E+03  0.832E-02    1.37       0.0  T
   2   -325.9181573 -0.174518E-04  0.398E-02    1.37       1.0  T
   3   -325.9181523  0.500844E-05  0.981E-03    1.38       1.0  T
   4   -325.9181591 -0.684507E-05  0.570E-03    1.38       1.3  T
   5   -325.9181614 -0.231718E-05  0.175E-03    1.38       4.2  T
   6   -325.9181619 -0.470067E-06  0.652E-04    1.38      11.2  T
   7   -325.9181620 -0.769841E-07  0.202E-04    1.38      36.1  T
     SCC iter.                  ...        0 min,  0.257 sec
     gradient                   ...        0 min,  0.098 sec
 * total energy  :  -321.3729992 Eh     change       -0.4333465E-03 Eh
   gradient norm :     0.0067301 Eh/α   predicted    -0.4036947E-03 (  -6.84%)
   displ. norm   :     0.6598640 α      lambda       -0.6496243E-03
   maximum displ.:     0.2650912 α      in ANC's #3, #20, #14, ...

........................................................................
.............................. CYCLE   56 ..............................
........................................................................
   1   -325.9264192 -0.325926E+03  0.722E-02    1.37       0.0  T
   2   -325.9264342 -0.150605E-04  0.351E-02    1.38       1.0  T
   3   -325.9264255  0.876879E-05  0.999E-03    1.38       1.0  T
   4   -325.9264365 -0.110317E-04  0.526E-03    1.38       1.4  T
   5   -325.9264382 -0.169303E-05  0.209E-03    1.38       3.5  T
   6   -325.9264388 -0.607999E-06  0.727E-04    1.38      10.0  T
   7   -325.9264389 -0.895486E-07  0.251E-04    1.38      29.0  T
     SCC iter.                  ...        0 min,  0.258 sec
     gradient                   ...        0 min,  0.098 sec
 * total energy  :  -321.3734275 Eh     change       -0.4282663E-03 Eh
   gradient norm :     0.0078061 Eh/α   predicted    -0.4662431E-03 (   8.87%)
   displ. norm   :     0.7735820 α      lambda       -0.5168523E-03
   maximum displ.:     0.2912870 α      in ANC's #3, #20, #14, ...

........................................................................
.............................. CYCLE   57 ..............................
........................................................................
   1   -325.9188123 -0.325919E+03  0.850E-02    1.38       0.0  T
   2   -325.9188320 -0.196645E-04  0.406E-02    1.39       1.0  T
   3   -325.9188271  0.484524E-05  0.102E-02    1.39       1.0  T
   4   -325.9188347 -0.756752E-05  0.568E-03    1.39       1.3  T
   5   -325.9188367 -0.198321E-05  0.167E-03    1.39       4.4  T
   6   -325.9188370 -0.313551E-06  0.646E-04    1.39      11.3  T
   7   -325.9188371 -0.697964E-07  0.203E-04    1.39      35.9  T
     SCC iter.                  ...        0 min,  0.258 sec
     gradient                   ...        0 min,  0.098 sec
 * total energy  :  -321.3738143 Eh     change       -0.3867895E-03 Eh
   gradient norm :     0.0089648 Eh/α   predicted    -0.4130773E-03 (   6.80%)
   displ. norm   :     0.5963250 α      lambda       -0.4696880E-03
   maximum displ.:     0.2427318 α      in ANC's #3, #20, #14, ...

........................................................................
.............................. CYCLE   58 ..............................
........................................................................
   1   -325.9158331 -0.325916E+03  0.617E-02    1.39       0.0  T
   2   -325.9158446 -0.115572E-04  0.298E-02    1.39       1.0  T
   3   -325.9158405  0.415277E-05  0.821E-03    1.39       1.0  T
   4   -325.9158466 -0.607356E-05  0.433E-03    1.39       1.7  T
   5   -325.9158475 -0.934873E-06  0.144E-03    1.39       5.0  T
   6   -325.9158477 -0.240943E-06  0.622E-04    1.39      11.7  T
   7   -325.9158478 -0.764467E-07  0.185E-04    1.39      39.5  T
     SCC iter.                  ...        0 min,  0.255 sec
     gradient                   ...        0 min,  0.098 sec
 * total energy  :  -321.3741133 Eh     change       -0.2990352E-03 Eh
   gradient norm :     0.0088464 Eh/α   predicted    -0.3183559E-03 (   6.46%)
   displ. norm   :     0.4998642 α      lambda       -0.4749057E-03
   maximum displ.:     0.2210403 α      in ANC's #3, #14, #4, ...

........................................................................
.............................. CYCLE   59 ..............................
........................................................................
   1   -325.9174149 -0.325917E+03  0.524E-02    1.39       0.0  T
   2   -325.9174234 -0.847893E-05  0.256E-02    1.40       1.0  T
   3   -325.9174169  0.651653E-05  0.821E-03    1.40       1.0  T
   4   -325.9174252 -0.830996E-05  0.387E-03    1.40       1.9  T
   5   -325.9174259 -0.679247E-06  0.163E-03    1.40       4.5  T
   6   -325.9174262 -0.338305E-06  0.584E-04    1.40      12.5  T
   7   -325.9174263 -0.678530E-07  0.175E-04    1.40      41.7  T
     SCC iter.                  ...        0 min,  0.259 sec
     gradient                   ...        0 min,  0.098 sec
 * total energy  :  -321.3744427 Eh     change       -0.3293724E-03 Eh
   gradient norm :     0.0067219 Eh/α   predicted    -0.2967871E-03 (  -9.89%)
   displ. norm   :     0.6255023 α      lambda       -0.3804468E-03
   maximum displ.:     0.2771252 α      in ANC's #3, #20, #14, ...

........................................................................
.............................. CYCLE   60 ..............................
........................................................................
   1   -325.9188490 -0.325919E+03  0.635E-02    1.39       0.0  T
   2   -325.9188595 -0.105086E-04  0.305E-02    1.40       1.0  T
   3   -325.9188559  0.358405E-05  0.779E-03    1.40       1.0  T
   4   -325.9188608 -0.492359E-05  0.440E-03    1.40       1.7  T
   5   -325.9188620 -0.121988E-05  0.145E-03    1.40       5.0  T
   6   -325.9188623 -0.298581E-06  0.557E-04    1.40      13.1  T
   7   -325.9188624 -0.594949E-07  0.172E-04    1.40      42.5  T
     SCC iter.                  ...        0 min,  0.258 sec
     gradient                   ...        0 min,  0.098 sec
 * total energy  :  -321.3747329 Eh     change       -0.2901969E-03 Eh
   gradient norm :     0.0062479 Eh/α   predicted    -0.2646511E-03 (  -8.80%)
   displ. norm   :     0.6522938 α      lambda       -0.3998519E-03
[...]
   111   6 C    3.945 --   112 C    1.470   109 C    1.147   117 S    1.140
   112   6 C    3.953 --   111 C    1.470   115 N    1.263   113 C    1.010
   113   6 C    3.995 --   112 C    1.010   114 C    1.000   183 H    0.972
                           184 H    0.961
   114   6 C    3.993 --   113 C    1.000   187 H    0.988   185 H    0.986
                           186 H    0.985
   115   7 N    3.128 --   116 C    1.634   112 C    1.263   117 S    0.164
   116   6 C    3.943 --   115 N    1.634   117 S    1.185   188 H    0.964
   117  16 S    2.652 --   116 C    1.185   111 C    1.140   115 N    0.164
   118   1 H    0.998 --     1 C    0.970
   119   1 H    0.997 --     3 C    0.966
   120   1 H    0.998 --     3 C    0.977
   121   1 H    0.997 --     4 C    0.987
   122   1 H    0.997 --     4 C    0.986
   123   1 H    0.999 --     4 C    0.989
   124   1 H    0.997 --    10 C    0.960
   125   1 H    0.995 --    10 C    0.970
   126   1 H    0.997 --    11 C    0.985
   127   1 H    0.998 --    11 C    0.986
   128   1 H    0.998 --    11 C    0.988
   129   1 H    0.996 --    16 C    0.956
   130   1 H    0.997 --    20 C    0.965
   131   1 H    0.997 --    21 C    0.961
   132   1 H    0.997 --    24 C    0.971
   133   1 H    0.997 --    24 C    0.970
   134   1 H    0.997 --    25 C    0.986
   135   1 H    0.998 --    25 C    0.979
   136   1 H    0.998 --    25 C    0.984
   137   1 H    0.996 --    28 C    0.963
   138   1 H    0.997 --    33 C    0.965
   139   1 H    0.997 --    34 C    0.961
   140   1 H    0.997 --    37 C    0.970
   141   1 H    0.998 --    37 C    0.970
   142   1 H    0.997 --    38 C    0.986
   143   1 H    0.998 --    38 C    0.979
   144   1 H    0.998 --    38 C    0.984
   145   1 H    0.996 --    40 C    0.963
   146   1 H    0.997 --    44 C    0.953
   147   1 H    0.997 --    48 C    0.956
   148   1 H    0.997 --    52 C    0.965
   149   1 H    0.996 --    53 C    0.966
   150   1 H    0.997 --    56 C    0.977
   151   1 H    0.996 --    56 C    0.976
   152   1 H    0.997 --    57 C    0.986
   153   1 H    0.997 --    57 C    0.979
   154   1 H    0.998 --    57 C    0.986
   155   1 H    0.996 --    60 C    0.963
   156   1 H    0.997 --    65 C    0.966
   157   1 H    0.996 --    66 C    0.966
   158   1 H    0.997 --    69 C    0.970
   159   1 H    0.996 --    69 C    0.973
   160   1 H    0.998 --    70 C    0.984
   161   1 H    0.997 --    70 C    0.976
   162   1 H    0.998 --    70 C    0.986
   163   1 H    0.996 --    72 C    0.962
   164   1 H    0.997 --    76 C    0.953
   165   1 H    0.997 --    80 C    0.957
   166   1 H    0.998 --    84 C    0.967
   167   1 H    0.997 --    85 C    0.962
   168   1 H    0.998 --    88 C    0.971
   169   1 H    0.997 --    88 C    0.970
   170   1 H    0.998 --    89 C    0.979
   171   1 H    0.998 --    89 C    0.984
   172   1 H    0.997 --    89 C    0.986
   173   1 H    0.995 --    92 C    0.962
   174   1 H    0.997 --    97 C    0.967
   175   1 H    0.996 --    98 C    0.967
   176   1 H    0.996 --   101 C    0.973
   177   1 H    0.997 --   101 C    0.969
   178   1 H    0.997 --   102 C    0.977
   179   1 H    0.998 --   102 C    0.985
   180   1 H    0.998 --   102 C    0.987
   181   1 H    0.996 --   104 C    0.962
   182   1 H    0.997 --   108 C    0.953
   183   1 H    0.995 --   113 C    0.972
   184   1 H    0.998 --   113 C    0.961
   185   1 H    0.997 --   114 C    0.986
   186   1 H    0.999 --   114 C    0.985
   187   1 H    0.998 --   114 C    0.988
   188   1 H    0.996 --   116 C    0.964
 ---------------------------------------------------------------------------

Topologies differ in bond orders
Writing corrected topology to xtbtopo.mol

molecular dipole:
                 x           y           z       tot (Debye)
 q only:        1.683      -1.586      -0.803
   full:        2.097      -3.097      -0.044       9.507
molecular quadrupole (traceless):
                xx          xy          yy          xz          yz          zz
 q only:      -25.795      16.155     -34.747      13.598      42.776      60.542
  q+dip:      -49.701     -10.668     -23.177      17.920      44.003      72.878
   full:      -48.295     -18.436     -24.836      11.945      43.710      73.131

           -------------------------------------------------
          |                Geometry Summary                 |
           -------------------------------------------------

      molecular mass/u    :     1825.5445717
   center of mass at/Å    :       -0.4458916      -0.1348279      -0.2141721
  moments of inertia/u·Å² :        0.3870534E+05   0.1524683E+06   0.1855410E+06
rotational constants/cm⁻¹ :        0.4355376E-03   0.1105648E-03   0.9085662E-04

 * 181 selected distances

     #   Z          #   Z                                           value/Å
     1   6 C        2   6 C                                       1.3646417
     2   6 C        3   6 C                                       1.4928196
     3   6 C        4   6 C                                       1.5288469
     2   6 C        5   7 N                                       1.3503707
     5   7 N        6   6 C                                       1.2927482
     1   6 C        7  16 S                                       1.7180544
     6   6 C        7  16 S                                       1.7646426 (max)
     6   6 C        8   6 C                                       1.4217940
     8   6 C        9   6 C                                       1.3852793
     9   6 C       10   6 C                                       1.4918354
    10   6 C       11   6 C                                       1.5299210
     9   6 C       12   7 N                                       1.3423594
    12   7 N       13   6 C                                       1.2963816
     8   6 C       14  16 S                                       1.7391541
    13   6 C       14  16 S                                       1.7581104
    13   6 C       15   6 C                                       1.4212129
    15   6 C       16   6 C                                       1.3648075
    16   6 C       17   6 C                                       1.4159163
    17   6 C       18   6 C                                       1.4067547
    19   6 C       20   6 C                                       1.3913504
    20   6 C       21   6 C                                       1.3814674
    21   6 C       22   6 C                                       1.3899786
    24   6 C       25   6 C                                       1.5172344
    22   6 C       26   6 C                                       1.3971021
    19   6 C       28   6 C                                       1.3943938
    26   6 C       28   6 C                                       1.3757668
    18   6 C       29   6 C                                       1.3859152
    29   6 C       30   6 C                                       1.4175492
    30   6 C       31   6 C                                       1.4047493
    32   6 C       33   6 C                                       1.3910524
    33   6 C       34   6 C                                       1.3817736
    34   6 C       35   6 C                                       1.3901338
    37   6 C       38   6 C                                       1.5169016
    35   6 C       39   6 C                                       1.3962588
    32   6 C       40   6 C                                       1.3946890
    39   6 C       40   6 C                                       1.3756501
    17   6 C       42   6 C                                       1.4194127
    31   6 C       42   6 C                                       1.3868843
    15   6 C       43  16 S                                       1.7473972
    42   6 C       43  16 S                                       1.7456030
    30   6 C       44   6 C                                       1.4159587
    44   6 C       45   6 C                                       1.3628296
    29   6 C       46  16 S                                       1.7468520
    45   6 C       46  16 S                                       1.7521019
    45   6 C       47   6 C                                       1.4255202
    47   6 C       48   6 C                                       1.3628398
    48   6 C       49   6 C                                       1.4194291
    49   6 C       50   6 C                                       1.4065630
    51   6 C       52   6 C                                       1.3942923
    52   6 C       53   6 C                                       1.3770790
    53   6 C       54   6 C                                       1.3957079
    56   6 C       57   6 C                                       1.5160847
    54   6 C       58   6 C                                       1.3915266
    51   6 C       60   6 C                                       1.3906720
    58   6 C       60   6 C                                       1.3803366
    50   6 C       61   6 C                                       1.3873116
    61   6 C       62   6 C                                       1.4168960
    62   6 C       63   6 C                                       1.4019192
    64   6 C       65   6 C                                       1.3942558
    65   6 C       66   6 C                                       1.3782746
    66   6 C       67   6 C                                       1.3932348
    69   6 C       70   6 C                                       1.5147196
    67   6 C       71   6 C                                       1.3918510
    64   6 C       72   6 C                                       1.3905369
    71   6 C       72   6 C                                       1.3798766
    49   6 C       74   6 C                                       1.4175331
    63   6 C       74   6 C                                       1.3848440
    47   6 C       75  16 S                                       1.7530603
    74   6 C       75  16 S                                       1.7408745
    62   6 C       76   6 C                                       1.4142600
    76   6 C       77   6 C                                       1.3625615
    61   6 C       78  16 S                                       1.7489325
    77   6 C       78  16 S                                       1.7535922
    77   6 C       79   6 C                                       1.4254515
    79   6 C       80   6 C                                       1.3622352
    80   6 C       81   6 C                                       1.4207013
    81   6 C       82   6 C                                       1.4051116
    83   6 C       84   6 C                                       1.3916961
    84   6 C       85   6 C                                       1.3816443
    85   6 C       86   6 C                                       1.3901112
    88   6 C       89   6 C                                       1.5169780
    86   6 C       90   6 C                                       1.3965388
    83   6 C       92   6 C                                       1.3934450
    90   6 C       92   6 C                                       1.3760975
    82   6 C       93   6 C                                       1.3879049
    93   6 C       94   6 C                                       1.4170007
    94   6 C       95   6 C                                       1.4014032
    96   6 C       97   6 C                                       1.3934076
    97   6 C       98   6 C                                       1.3789444
    98   6 C       99   6 C                                       1.3940542
   101   6 C      102   6 C                                       1.5154192
    99   6 C      103   6 C                                       1.3917753
    96   6 C      104   6 C                                       1.3910053
   103   6 C      104   6 C                                       1.3793185
    81   6 C      106   6 C                                       1.4162220
    95   6 C      106   6 C                                       1.3855594
    79   6 C      107  16 S                                       1.7545529
   106   6 C      107  16 S                                       1.7405938
    94   6 C      108   6 C                                       1.4179821
   108   6 C      109   6 C                                       1.3631183
    93   6 C      110  16 S                                       1.7424080
   109   6 C      110  16 S                                       1.7571683
   109   6 C      111   6 C                                       1.4318364
   111   6 C      112   6 C                                       1.3832136
   112   6 C      113   6 C                                       1.4945753
   113   6 C      114   6 C                                       1.5294568
   112   6 C      115   7 N                                       1.3529354
   115   7 N      116   6 C                                       1.2820770
   111   6 C      117  16 S                                       1.7443553
   116   6 C      117  16 S                                       1.7287531
     1   6 C      118   1 H                                       1.0709235 (min)
     3   6 C      119   1 H                                       1.0915146
     3   6 C      120   1 H                                       1.0911854
     4   6 C      121   1 H                                       1.0868843
     4   6 C      122   1 H                                       1.0871009
     4   6 C      123   1 H                                       1.0880122
    10   6 C      124   1 H                                       1.0915568
    10   6 C      125   1 H                                       1.0906520
    11   6 C      126   1 H                                       1.0867023
    11   6 C      127   1 H                                       1.0874064
    11   6 C      128   1 H                                       1.0872311
    16   6 C      129   1 H                                       1.0752157
    20   6 C      130   1 H                                       1.0790723
    21   6 C      131   1 H                                       1.0774306
    24   6 C      132   1 H                                       1.0900690
    24   6 C      133   1 H                                       1.0890948
    25   6 C      134   1 H                                       1.0873755
    25   6 C      135   1 H                                       1.0884306
    25   6 C      136   1 H                                       1.0878262
    28   6 C      137   1 H                                       1.0786955
    33   6 C      138   1 H                                       1.0789281
    34   6 C      139   1 H                                       1.0775640
    37   6 C      140   1 H                                       1.0901118
    37   6 C      141   1 H                                       1.0892557
    38   6 C      142   1 H                                       1.0874638
    38   6 C      143   1 H                                       1.0883602
    38   6 C      144   1 H                                       1.0879112
    40   6 C      145   1 H                                       1.0786968
    44   6 C      146   1 H                                       1.0751064
    48   6 C      147   1 H                                       1.0751961
    52   6 C      148   1 H                                       1.0788884
    53   6 C      149   1 H                                       1.0788455
    56   6 C      150   1 H                                       1.0889431
    56   6 C      151   1 H                                       1.0887567
    57   6 C      152   1 H                                       1.0876204
    57   6 C      153   1 H                                       1.0879355
    57   6 C      154   1 H                                       1.0876449
    60   6 C      155   1 H                                       1.0790508
    65   6 C      156   1 H                                       1.0792822
    66   6 C      157   1 H                                       1.0789655
    69   6 C      158   1 H                                       1.0900359
    69   6 C      159   1 H                                       1.0878694
    70   6 C      160   1 H                                       1.0883090
    70   6 C      161   1 H                                       1.0878086
    70   6 C      162   1 H                                       1.0879001
    72   6 C      163   1 H                                       1.0788886
    76   6 C      164   1 H                                       1.0752272
    80   6 C      165   1 H                                       1.0753862
    84   6 C      166   1 H                                       1.0796975
    85   6 C      167   1 H                                       1.0778935
    88   6 C      168   1 H                                       1.0892355
    88   6 C      169   1 H                                       1.0900226
    89   6 C      170   1 H                                       1.0884370
    89   6 C      171   1 H                                       1.0879665
    89   6 C      172   1 H                                       1.0873520
    92   6 C      173   1 H                                       1.0784555
    97   6 C      174   1 H                                       1.0794005
    98   6 C      175   1 H                                       1.0789763
   101   6 C      176   1 H                                       1.0875620
   101   6 C      177   1 H                                       1.0899932
   102   6 C      178   1 H                                       1.0886510
   102   6 C      179   1 H                                       1.0887781
   102   6 C      180   1 H                                       1.0881973
   104   6 C      181   1 H                                       1.0788783
   108   6 C      182   1 H                                       1.0725539
   113   6 C      183   1 H                                       1.0904241
   113   6 C      184   1 H                                       1.0915227
   114   6 C      185   1 H                                       1.0871714
   114   6 C      186   1 H                                       1.0874765
   114   6 C      187   1 H                                       1.0870922
   116   6 C      188   1 H                                       1.0715563

 * 4 distinct bonds (by element types)

   Z      Z             #   av. dist./Å        max./Å        min./Å
   1 H    6 C          71     1.0844454     1.0915568     1.0709235
   6 C    6 C          86     1.4108281     1.5299210     1.3622352
   6 C    7 N           6     1.3194787     1.3529354     1.2820770
   6 C   16 S          18     1.7464559     1.7646426     1.7180544


optimized geometry written to: xtbopt.mol


           -------------------------------------------------
          | TOTAL ENERGY             -321.389717406524 Eh   |
          | GRADIENT NORM               0.000248588556 Eh/α |
          | HOMO-LUMO GAP               1.376595088650 eV   |
           -------------------------------------------------

------------------------------------------------------------------------
 * finished run on 2022/03/07 at 15:29:33.420     
------------------------------------------------------------------------
 total:
 * wall-time:     0 d,  0 h,  1 min, 23.092 sec
 *  cpu-time:     0 d,  0 h, 11 min,  4.598 sec
 * ratio c/w:     7.998 speedup
 SCF:
 * wall-time:     0 d,  0 h,  0 min,  0.665 sec
 *  cpu-time:     0 d,  0 h,  0 min,  5.310 sec
 * ratio c/w:     7.980 speedup
 ANC optimizer:
 * wall-time:     0 d,  0 h,  1 min, 22.322 sec
 *  cpu-time:     0 d,  0 h, 10 min, 58.548 sec
 * ratio c/w:     8.000 speedup

